Control file title. For DL_FIELD 4.10
49780
    1MOL     C1    1   2.845   2.869   2.544  0.0917 -0.0090  0.1928
    1MOL     C2    2   2.814   2.800   2.678  0.1088  0.0753  0.1925
    1MOL     C3    3   2.804   2.860   2.794 -0.0560 -0.0495 -0.1754
    1MOL     C4    4   2.832   3.013   2.812 -0.1380 -0.3654  0.0533
    1MOL     C5    5   2.766   2.780   2.920 -0.1734  0.7494 -0.1790
    1MOL     H6    6   2.868   2.802   2.461 -0.3838  1.2625 -0.9920
    1MOL     H7    7   2.763   2.937   2.519  0.8097  0.3624 -1.2207
    1MOL     H8    8   2.796   2.693   2.675 -0.5279  0.2013 -1.0008
    1MOL     H9    9   2.839   3.060   2.714 -0.5432 -1.8291 -0.6902
    1MOL    H10   10   2.919   3.031   2.875  0.0144 -2.2835  0.4267
    1MOL    H11   11   2.738   3.048   2.855  1.2116  3.1149  0.3458
    1MOL    H12   12   2.729   2.680   2.898 -2.4145  1.8163 -1.3707
    1MOL    H13   13   2.683   2.838   2.960 -0.9949  0.3985 -1.3788
    1MOL    H14   14   2.929   2.935   2.565 -1.5014  1.1652  3.0209
    1MOL    C15   15   2.883   2.783   3.026 -0.3483  0.0367 -0.6141
    1MOL    C16   16   2.842   2.689   3.138  0.1702  0.1399 -0.0858
    1MOL    C17   17   2.921   2.671   3.246  0.2478  0.1275  0.2326
    1MOL    C18   18   3.050   2.742   3.269  0.7274 -0.0431 -0.1117
    1MOL    C19   19   2.869   2.557   3.339 -0.2254  0.0599 -0.2551
    1MOL    H20   20   2.894   2.875   3.083 -0.6230 -0.0714 -0.3881
    1MOL    H21   21   2.973   2.744   2.979  0.0023  1.6632 -1.3354
    1MOL    H22   22   2.752   2.630   3.128  1.0117 -0.7626 -2.9316
    1MOL    H23   23   3.062   2.828   3.203  1.6888 -0.6060 -0.6702
    1MOL    H24   24   3.125   2.663   3.264  0.7754 -0.0603  0.7431
    1MOL    H25   25   3.048   2.770   3.375  0.1369 -2.8138  0.6587
    1MOL    H26   26   2.796   2.490   3.293 -1.3543  0.2900  1.1478
    1MOL    H27   27   2.820   2.604   3.424 -0.3590  1.6753 -1.1942
    1MOL    C28   28   2.983   2.467   3.398 -0.4639 -0.0267  0.7672
    1MOL    C29   29   2.933   2.366   3.504 -0.3721  0.1088 -0.4887
    1MOL    C30   30   2.853   2.258   3.489 -0.3101  0.4365 -0.8053
    1MOL    C31   31   2.787   2.232   3.362 -0.0552 -0.3251  0.7011
    1MOL    C32   32   2.827   2.156   3.602 -0.3536 -0.1668 -0.2667
    1MOL    H33   33   3.061   2.528   3.445 -2.4026  2.3534  1.0040
    1MOL    H34   34   3.016   2.411   3.311 -2.8138  0.9715 -0.8263
    1MOL    H35   35   2.969   2.391   3.603  1.2937 -1.8257 -0.5714
    1MOL    H36   36   2.698   2.296   3.358  0.6375  0.6129 -0.2964
    1MOL    H37   37   2.762   2.130   3.336  2.5240 -1.2272  1.6577
    1MOL    H38   38   2.856   2.249   3.279 -0.2329 -0.2625  0.5646
    1MOL    H39   39   2.922   2.150   3.655 -1.6801 -4.2280  1.8938
    1MOL    H40   40   2.811   2.057   3.559  0.9560 -0.1211 -0.8772
    1MOL    C41   41   2.710   2.195   3.699 -0.0983 -0.0605  0.6970
    1MOL    C42   42   2.584   2.235   3.626 -0.1837  0.4372  0.3366
    1MOL    C43   43   2.528   2.358   3.616  0.4016 -0.3208 -0.0675
    1MOL    C44   44   2.588   2.480   3.683  0.1525  0.3611 -0.0396
    1MOL    C45   45   2.404   2.380   3.537  0.3742  0.1610  0.4527
    1MOL    H46   46   2.737   2.276   3.766  2.3068  0.0474 -0.3476
    1MOL    H47   47   2.684   2.107   3.758 -0.9126 -0.9473 -0.9247
    1MOL    H48   48   2.530   2.158   3.572 -2.2987  2.0861  0.0561
    1MOL    H49   49   2.565   2.572   3.629  2.5552  0.7543 -0.4927
    1MOL    H50   50   2.693   2.469   3.714 -0.0206  0.5958  0.6426
    1MOL    H51   51   2.531   2.496   3.775  0.7835  1.3937  0.1799
    1MOL    H52   52   2.341   2.446   3.597  0.6637  1.2988 -0.4639
    1MOL    H53   53   2.349   2.286   3.530  0.1322  0.3046  0.4173
    1MOL    C54   54   2.419   2.445   3.400  0.2135  0.4068  0.5197
    1MOL    C55   55   2.293   2.473   3.313 -0.5745  0.5653  0.6660
    1MOL    C56   56   2.283   2.561   3.211  0.1192  0.3040  0.2920
    1MOL    C57   57   2.403   2.632   3.155  0.4280 -0.4058  0.5147
    1MOL    C58   58   2.154   2.591   3.144  0.0041 -0.8120  0.6857
    1MOL    H59   59   2.487   2.381   3.343 -0.6923 -0.8673  0.8344
    1MOL    H60   60   2.480   2.535   3.402  0.4873  0.2405 -0.0873
    1MOL    H61   61   2.201   2.421   3.338 -0.7394  0.6340  0.2097
    1MOL    H62   62   2.378   2.714   3.089 -0.5299  0.0197  1.3961
    1MOL    H63   63   2.478   2.563   3.115  0.2134  0.7106 -1.8760
    1MOL    H64   64   2.458   2.684   3.234 -1.7828  0.9453  1.2058
    1MOL    H65   65   2.081   2.533   3.200 -2.2245 -0.0215 -1.2694
    1MOL    H66   66   2.167   2.578   3.036  0.9771 -0.2157  0.7262
    1MOL    C67   67   2.125   2.742   3.172  0.6954 -0.0042  0.2118
    1MOL    C68   68   1.983   2.764   3.119  0.7067 -0.1366  0.3257
    1MOL    C69   69   1.940   2.822   3.009 -0.4419 -0.1091 -0.1418
    1MOL    C70   70   2.029   2.863   2.893 -0.1676  0.0637  0.4056
    1MOL    C71   71   1.790   2.842   2.991  0.3929 -0.0690  0.2993
    1MOL    H72   72   2.193   2.813   3.125 -0.1056  1.6308  1.4806
    1MOL    H73   73   2.138   2.772   3.276  1.2645  1.3548 -0.2498
    1MOL    H74   74   1.910   2.726   3.189  1.5007 -0.6445  0.8864
    1MOL    H75   75   2.132   2.827   2.897  0.3051  1.3134 -0.4712
    1MOL    H76   76   2.025   2.967   2.861  2.0851  1.0857  3.3211
    1MOL    H77   77   1.996   2.797   2.812 -0.4501  0.3280  0.3059
    1MOL    H78   78   1.729   2.791   3.065 -0.5671 -0.1943 -0.5522
    1MOL    H79   79   1.768   2.792   2.896  1.4955  0.7405 -0.3971
    1MOL    C80   80   1.742   2.982   2.982 -0.1109  0.3385  0.0419
    1MOL    C81   81   1.777   3.069   3.108  0.5830  0.7219 -0.8832
    1MOL    C82   82   1.842   3.189   3.115  0.5690  0.2308 -0.3384
    1MOL    C83   83   1.894   3.257   2.993 -0.1170 -0.4557 -0.1292
    1MOL    C84   84   1.867   3.256   3.244  0.1145 -0.0951 -0.0475
    1MOL    H85   85   1.635   2.987   2.960 -0.5489  0.8719  2.1576
    1MOL    H86   86   1.784   3.028   2.893 -1.1034 -0.9544 -1.1208
    1MOL    H87   87   1.731   3.039   3.200 -1.0655  2.0018 -1.2564
    1MOL    H88   88   1.889   3.194   2.905  0.2176  1.6002 -1.6608
    1MOL    H89   89   1.991   3.303   3.007 -1.2521  1.3986  1.9656
    1MOL    H90   90   1.819   3.334   2.974 -0.3819 -0.6883 -0.0451
    1MOL    H91   91   1.818   3.189   3.314 -0.5738  0.4391 -0.0067
    1MOL    H92   92   1.808   3.348   3.250 -0.1067 -0.2911  0.7815
    1MOL    C93   93   2.014   3.282   3.278  0.0299  0.1624 -0.3619
    1MOL    C94   94   2.023   3.314   3.425 -0.4532 -0.0576 -0.0679
    1MOL    C95   95   2.071   3.233   3.525 -0.4220 -0.2605  0.8699
    1MOL    C96   96   2.087   3.081   3.514 -0.0872  0.3017 -0.4250
    1MOL    C97   97   2.068   3.288   3.664 -0.5353  0.2716 -0.0861
    1MOL    H98   98   2.053   3.359   3.212 -0.0904  0.2418 -0.3419
    1MOL    H99   99   2.071   3.192   3.254 -1.3397 -0.1792 -2.4961
    1MOL   H100  100   2.003   3.419   3.445 -0.0112 -0.1774  1.0489
    1MOL   H101  101   1.984   3.045   3.523  0.3742 -0.9231 -0.0074
    1MOL   H102  102   2.141   3.047   3.602  0.7104  1.8419 -0.3065
    1MOL   H103  103   2.125   3.037   3.421 -3.0115 -3.0078 -0.1942
    1MOL   H104  104   2.071   3.397   3.660  1.4597  0.1880 -2.1535
    1MOL   H105  105   2.160   3.261   3.717 -0.1528  2.5935  0.4835
    1MOL   C106  106   1.950   3.244   3.744 -0.8413  0.0744  0.5871
    1MOL   C107  107   1.934   3.324   3.870 -0.6406 -0.4989 -0.1838
    1MOL   C108  108   1.944   3.290   3.999 -1.0292  0.1615  0.6611
    1MOL   C109  109   1.973   3.150   4.049  0.1317 -1.0214  0.2160
    1MOL   C110  110   1.922   3.397   4.108 -0.5683 -0.1883 -0.2255
    1MOL   H111  111   1.957   3.138   3.765  0.6483  0.1945  0.7479
    1MOL   H112  112   1.861   3.258   3.682  0.3318 -0.8697 -1.3319
    1MOL   H113  113   1.915   3.427   3.846  0.9731 -0.5655 -1.8092
    1MOL   H114  114   1.886   3.115   4.105  0.1597 -1.3089  0.0768
    1MOL   H115  115   2.065   3.150   4.108 -0.1502 -1.8991  0.6636
    1MOL   H116  116   1.983   3.088   3.961 -1.0786  1.2725 -1.6045
    1MOL   H117  117   1.952   3.497   4.080 -1.3287  0.2936  0.6557
    1MOL   H118  118   1.978   3.375   4.198  0.7612  0.6716 -0.8293
    1MOL   C119  119   1.775   3.400   4.165 -0.3845 -0.2675 -0.4479
    1MOL   C120  120   1.676   3.450   4.058 -0.2227  0.3939  0.2572
    1MOL   C121  121   1.635   3.575   4.036  0.2575 -0.2162 -0.3376
    1MOL   C122  122   1.680   3.694   4.126 -0.0751  0.0268  0.0272
    1MOL   C123  123   1.532   3.612   3.930 -0.5289  0.3278  0.0613
    1MOL   H124  124   1.751   3.456   4.256  1.8699 -1.8325  1.1669
    1MOL   H125  125   1.748   3.299   4.193 -0.5216  0.1089  0.8396
    1MOL   H126  126   1.641   3.368   3.997  0.1070 -0.4650  1.2073
    1MOL   H127  127   1.710   3.778   4.064  1.7992 -1.7650 -1.5634
    1MOL   H128  128   1.772   3.674   4.181  0.2408 -2.9997 -1.4800
    1MOL   H129  129   1.607   3.728   4.200 -1.5243  0.1887 -1.4573
    1MOL   H130  130   1.504   3.521   3.877 -1.9757  0.1521  1.0833
    1MOL   H131  131   1.580   3.679   3.859 -0.2336  1.2588  1.1197
    1MOL   C132  132   1.397   3.659   3.986 -0.2968 -0.4997  0.1038
    1MOL   C133  133   1.304   3.725   3.885 -0.5430  0.3415  0.5538
    1MOL   C134  134   1.212   3.662   3.809 -0.7364 -0.0637  0.1087
    1MOL   C135  135   1.179   3.512   3.822 -0.0661 -0.1631 -0.1012
    1MOL   C136  136   1.154   3.724   3.688 -0.0542  0.1094  0.3140
    1MOL   H137  137   1.407   3.720   4.076  1.2408  1.5338 -1.3822
    1MOL   H138  138   1.330   3.580   4.021 -3.9405  1.4140 -2.1835
    1MOL   H139  139   1.329   3.828   3.862  0.4919 -0.1462 -0.5597
    1MOL   H140  140   1.242   3.444   3.765 -3.0056 -1.3492 -2.0619
    1MOL   H141  141   1.074   3.503   3.793  0.4302  0.8555 -2.2985
    1MOL   H142  142   1.185   3.491   3.929 -2.5041 -0.5104 -0.0022
    1MOL   H143  143   1.175   3.831   3.693  0.7763  0.0044 -0.7866
    1MOL   H144  144   1.046   3.709   3.700 -0.7855  1.2094 -3.9705
    1MOL   C145  145   1.202   3.675   3.554 -0.4137  0.0507  0.6772
    1MOL   C146  146   1.137   3.754   3.445  0.2604  0.3648 -0.2253
    1MOL   C147  147   1.190   3.801   3.326 -0.8976 -1.0482  0.2113
    1MOL   C148  148   1.341   3.782   3.290  0.0352 -0.2713  0.3614
    1MOL   C149  149   1.101   3.883   3.228  0.6004  0.7694 -0.0939
    1MOL   H150  150   1.184   3.568   3.553  2.5619 -0.5333  2.6256
    1MOL   H151  151   1.311   3.677   3.560 -0.3367  0.1733 -0.7130
    1MOL   H152  152   1.030   3.764   3.456  0.4125  4.3577 -1.3004
    1MOL   H153  153   1.378   3.884   3.276 -0.0571 -0.3692 -0.5746
    1MOL   H154  154   1.351   3.739   3.191 -0.0955 -2.1451  1.1357
    1MOL   H155  155   1.398   3.705   3.343  1.7677  0.8038  0.1149
    1MOL   H156  156   1.135   3.985   3.212 -2.4265  2.0422  1.2955
    1MOL   H157  157   1.003   3.898   3.272  0.8359 -0.6491  0.9489
    1MOL   C158  158   1.082   3.799   3.101 -0.1505 -1.0653  0.1052
    1MOL   C159  159   1.033   3.888   2.988  0.0075  0.0896  0.1196
    1MOL   C160  160   1.085   3.886   2.863 -1.2717  0.3787  0.2593
    1MOL   C161  161   1.212   3.805   2.825  0.5409  0.5281 -0.1020
    1MOL   C162  162   1.057   4.001   2.765  0.1008  0.0324 -0.3754
    1MOL   H163  163   1.002   3.729   3.124 -2.3193  2.0057  2.4565
    1MOL   H164  164   1.170   3.745   3.068 -0.1369  0.3124 -2.1803
    1MOL   H165  165   0.947   3.951   3.005 -1.5311 -2.2116  1.0990
    1MOL   H166  166   1.203   3.769   2.722 -0.2569 -0.5426  0.3418
    1MOL   H167  167   1.231   3.709   2.873 -1.4478  0.6808  1.0248
    1MOL   H168  168   1.304   3.863   2.840  1.0041 -0.0870 -0.5331
    1MOL   H169  169   1.147   4.059   2.750 -1.0035  1.3230 -2.2458
    1MOL   H170  170   0.980   4.064   2.809 -1.3303 -2.6867  1.2190
    1MOL   C171  171   1.005   3.943   2.631 -0.4846 -0.7454  0.4431
    1MOL   C172  172   1.102   3.929   2.517 -0.0707 -0.3096 -0.9153
    1MOL   C173  173   1.117   4.001   2.408 -0.2262  0.1543 -0.0186
    1MOL   C174  174   1.030   4.119   2.370 -1.0081  0.5338  0.2439
    1MOL   C175  175   1.228   3.971   2.303 -0.0972 -0.6251 -0.0133
    1MOL   H176  176   0.930   4.015   2.599 -2.3525 -2.6175  0.5265
    1MOL   H177  177   0.958   3.845   2.637 -1.5079 -0.3378 -0.8643
    1MOL   H178  178   1.169   3.845   2.532  3.3125  2.6668  1.6038
    1MOL   H179  179   1.013   4.186   2.455  1.3735 -0.2379  1.3693
    1MOL   H180  180   0.936   4.084   2.328 -1.4776  3.2550 -1.0932
    1MOL   H181  181   1.085   4.166   2.288 -1.0103 -2.4419 -1.5332
    1MOL   H182  182   1.198   4.000   2.203 -3.2401  1.8624  1.5695
    1MOL   H183  183   1.238   3.863   2.297 -0.3110 -0.7249  1.1913
    1MOL   C184  184   1.358   4.047   2.337 -0.0842 -0.3163  0.2754
    1MOL   C185  185   1.473   4.015   2.248 -0.1805 -0.2458 -0.6191
    1MOL   C186  186   1.606   4.025   2.271  0.4424  0.1137 -0.2184
    1MOL   C187  187   1.656   4.082   2.404 -0.0499  0.4369 -0.9376
    1MOL   C188  188   1.705   3.975   2.173  0.3857  0.4735  0.5758
    1MOL   H189  189   1.389   4.021   2.438  0.3415 -2.8166 -0.4700
    1MOL   H190  190   1.334   4.154   2.333  0.5114 -0.2025 -0.3479
    1MOL   H191  191   1.455   3.973   2.150  1.7655 -1.1487 -0.5989
    1MOL   H192  192   1.759   4.051   2.419 -0.3020 -0.2844 -0.6910
    1MOL   H193  193   1.591   4.044   2.482  0.4283 -1.6613 -1.5348
    1MOL   H194  194   1.644   4.190   2.394  0.6301  0.8593  2.3059
    1MOL   H195  195   1.665   3.927   2.084  2.1842 -1.1795  0.6152
    1MOL   H196  196   1.756   3.895   2.226 -0.5905 -1.0594 -0.7716
    1MOL   C197  197   1.808   4.080   2.125  0.6310 -0.4199  0.4739
    1MOL   C198  198   1.880   4.035   1.993 -0.0093 -0.3489  0.0060
    1MOL   C199  199   1.996   4.085   1.947 -1.2891  0.2374 -0.3571
    1MOL   C200  200   2.074   4.188   2.022  0.2031 -0.0124  0.3941
    1MOL   C201  201   2.058   4.026   1.825 -0.2530 -0.6454  0.5443
    1MOL   H202  202   1.875   4.092   2.210 -0.1403 -0.7473  1.1361
    1MOL   H203  203   1.759   4.177   2.111 -1.5858 -1.4204  0.9974
    1MOL   H204  204   1.823   3.979   1.921 -2.7487  1.2711  0.8653
    1MOL   H205  205   2.116   4.146   2.113 -0.7433 -0.9627  0.3989
    1MOL   H206  206   2.007   4.268   2.053  0.0557 -0.5342  1.4409
    1MOL   H207  207   2.161   4.232   1.973  2.4143 -3.2022  1.2806
    1MOL   H208  208   2.061   4.098   1.743 -1.2743 -0.5893  0.5535
    1MOL   H209  209   2.004   3.935   1.797 -4.0945  1.3725  1.0876
    1MOL   C210  210   2.201   3.982   1.854  0.2744  0.3048  0.0923
    1MOL   C211  211   2.253   3.895   1.740  0.2224  0.5887  0.4076
    1MOL   C212  212   2.258   3.756   1.745 -0.0891 -0.3447 -0.8356
    1MOL   C213  213   2.211   3.675   1.862  0.1016 -0.0224 -0.1301
    1MOL   C214  214   2.310   3.667   1.633  0.2911 -0.4634 -0.3761
    1MOL   H215  215   2.198   3.910   1.936  1.8687  0.1657  0.0395
    1MOL   H216  216   2.265   4.062   1.889  1.8828 -0.5516 -0.8289
    1MOL   H217  217   2.292   3.935   1.647 -1.3110 -0.9639 -0.9480
    1MOL   H218  218   2.296   3.656   1.928  0.4135 -1.0222 -0.8039
    1MOL   H219  219   2.170   3.582   1.823  1.2345 -0.6744  0.1906
    1MOL   H220  220   2.138   3.725   1.925  0.8197 -1.3460  1.8385
    1MOL   H221  221   2.346   3.735   1.556  0.3629  2.4763  2.1297
    1MOL   H222  222   2.219   3.621   1.594 -0.6272  0.2588  0.8641
    1MOL   C223  223   2.416   3.556   1.668 -0.6728  0.7994 -0.2626
    1MOL   C224  224   2.484   3.493   1.548 -0.7111  0.1262 -0.1551
    1MOL   C225  225   2.485   3.365   1.502  0.3123  0.5551  0.5369
    1MOL   C226  226   2.394   3.259   1.569 -0.7274 -0.7130  0.9277
    1MOL   C227  227   2.547   3.324   1.368 -0.3856  0.3705 -0.1590
    1MOL   H228  228   2.373   3.484   1.737  0.0316  1.8560  1.2906
    1MOL   H229  229   2.496   3.608   1.721 -0.2454  0.5224 -0.6291
    1MOL   H230  230   2.532   3.572   1.492  0.7159 -0.5525  0.0886
    1MOL   H231  231   2.319   3.235   1.493  2.8626  1.1116 -3.4779
    1MOL   H232  232   2.341   3.290   1.659 -1.6229 -0.1984  0.2331
    1MOL   H233  233   2.461   3.177   1.592  0.4689 -0.0706 -0.2116
    1MOL   H234  234   2.604   3.403   1.319  0.1265 -0.7815 -1.4285
    1MOL   H235  235   2.473   3.289   1.297 -0.2092  0.2078 -0.2655
    1MOL   C236  236   2.647   3.214   1.380  0.4715 -0.2908  0.1739
    1MOL   C237  237   2.753   3.198   1.268  0.2877 -0.3997 -0.4635
    1MOL   C238  238   2.753   3.105   1.172 -0.0818 -0.0384  0.0901
    1MOL   C239  239   2.656   2.995   1.165  0.1487  0.4747 -0.6414
    1MOL   C240  240   2.876   3.085   1.091  0.9668 -0.6381  0.5408
    1MOL   H241  241   2.607   3.119   1.416 -3.0498  0.8240 -0.5746
    1MOL   H242  242   2.717   3.244   1.458  2.2206 -0.6038 -1.2254
    1MOL   H243  243   2.831   3.272   1.266  2.5958 -2.6521  1.9314
    1MOL   H244  244   2.560   3.039   1.189 -0.6047 -1.2684 -0.3438
    1MOL   H245  245   2.667   2.915   1.238 -3.0840 -1.2886 -1.9665
    1MOL   H246  246   2.664   2.949   1.066  0.5375 -1.5010  0.2786
    1MOL   H247  247   2.937   3.174   1.082 -0.1890  0.1773  0.6828
    1MOL   H248  248   2.849   3.064   0.987  1.1624 -1.7377  0.7072
    1MOL   C249  249   2.960   2.971   1.152 -0.4677  0.0898  0.5383
    1MOL   C250  250   3.086   2.951   1.068  0.3609 -0.8156  0.7067
    1MOL   C251  251   3.204   3.013   1.092  0.4878  0.2238 -0.2115
    1MOL   C252  252   3.241   3.097   1.209  0.5727  0.0203  0.6340
    1MOL   C253  253   3.303   3.010   0.978 -0.4047 -0.0607 -0.2678
    1MOL   H254  254   2.895   2.884   1.157 -1.2614  0.6043 -0.4980
    1MOL   H255  255   2.984   2.996   1.255 -0.1522 -0.0294  0.4924
    1MOL   H256  256   3.067   2.915   0.968  1.6652 -0.5856  0.3785
    1MOL   H257  257   3.147   3.153   1.213  0.6273  0.2769 -1.2709
    1MOL   H258  258   3.315   3.175   1.191 -0.5319  0.9381 -0.0310
    1MOL   H259  259   3.266   3.043   1.300  2.5758 -0.8570 -0.4043
    1MOL   H260  260   3.274   2.953   0.889  0.9507  0.0382 -0.7827
    1MOL   H261  261   3.402   2.977   1.007 -0.6708 -1.2121 -0.6438
    1MOL   H262  262   3.314   3.113   0.941  0.9494  0.0088  0.3403
    2MOL     C1  263   4.471   7.332   6.480  0.0295  0.2486 -0.0043
    2MOL     C2  264   4.342   7.360   6.542  0.1473 -0.2874  0.5675
    2MOL     C3  265   4.311   7.451   6.634  0.7200 -0.8191  0.3246
    2MOL     C4  266   4.413   7.539   6.701  0.0781 -0.7297  0.1703
    2MOL     C5  267   4.166   7.475   6.681 -0.2300 -0.3778  0.9750
    2MOL     H6  268   4.547   7.330   6.558  0.7624 -1.0315 -0.7285
    2MOL     H7  269   4.468   7.233   6.436 -1.3871  1.2177 -2.2087
    2MOL     H8  270   4.260   7.302   6.502 -0.5117  0.1869  1.2290
    2MOL     H9  271   4.383   7.643   6.707  1.5428 -0.2199 -0.9438
    2MOL    H10  272   4.510   7.554   6.652 -1.8311 -1.1366 -3.9091
    2MOL    H11  273   4.427   7.514   6.806  0.0916 -0.2277  0.2917
    2MOL    H12  274   4.093   7.418   6.623  0.8177 -0.0406 -0.6883
    2MOL    H13  275   4.140   7.575   6.646 -1.7649 -0.9909  0.3105
    2MOL    H14  276   4.500   7.407   6.406 -2.5982 -0.2536 -1.6277
    2MOL    C15  277   4.143   7.441   6.834  0.0694  0.0235  1.0257
    2MOL    C16  278   4.002   7.413   6.866  0.7198 -0.3812 -0.0848
    2MOL    C17  279   3.947   7.362   6.975  0.0777  0.0587  0.2773
    2MOL    C18  280   4.023   7.319   7.095 -0.0081  0.2093 -0.3642
    2MOL    C19  281   3.793   7.331   6.994  0.2058 -0.4935 -0.7153
    2MOL    H20  282   4.168   7.520   6.904  2.4807  0.5783 -0.4145
    2MOL    H21  283   4.200   7.353   6.864 -1.5245 -2.0801 -1.8767
    2MOL    H22  284   3.927   7.450   6.799  0.5464 -0.7619 -0.1021
    2MOL    H23  285   4.131   7.313   7.095 -0.0925 -1.8299  0.5409
    2MOL    H24  286   3.999   7.216   7.121  1.0054  0.3236  1.0360
    2MOL    H25  287   3.991   7.379   7.180  0.8860  1.2830 -0.7772
    2MOL    H26  288   3.738   7.387   6.919 -0.3064  0.8273  0.6231
    2MOL    H27  289   3.757   7.370   7.090  1.9708  2.0520 -1.0462
    2MOL    C28  290   3.753   7.185   6.967  0.2800 -0.3034  0.0296
    2MOL    C29  291   3.598   7.170   6.951 -0.0771 -0.5627  0.4675
    2MOL    C30  292   3.538   7.085   6.864  0.0210 -0.0875 -0.4380
    2MOL    C31  293   3.609   6.982   6.774 -0.0398  0.3764  0.1787
    2MOL    C32  294   3.389   7.083   6.841  0.2607  0.1255  0.1932
    2MOL    H33  295   3.786   7.118   7.046 -0.2080 -0.6391 -0.0531
    2MOL    H34  296   3.815   7.150   6.884  0.0485 -3.9777  1.3169
    2MOL    H35  297   3.541   7.240   7.010 -1.0870  1.0849 -2.3372
    2MOL    H36  298   3.718   6.988   6.769  0.0356 -0.9457 -0.1232
    2MOL    H37  299   3.564   6.979   6.675  2.5605 -0.2375 -1.0262
    2MOL    H38  300   3.593   6.880   6.810 -0.1510  0.6245  0.8297
    2MOL    H39  301   3.351   7.129   6.932 -1.1226  1.8955 -1.2248
    2MOL    H40  302   3.354   6.980   6.837 -2.3590  1.0182 -1.2646
    2MOL    C41  303   3.349   7.169   6.720  0.2975  0.2250 -0.1934
    2MOL    C42  304   3.196   7.179   6.715  0.0152  0.0055 -0.1117
    2MOL    C43  305   3.126   7.290   6.753 -1.0764  0.5093  0.1481
    2MOL    C44  306   3.182   7.404   6.833 -0.6405  0.0607 -0.1662
    2MOL    C45  307   2.973   7.298   6.732  0.6880  0.5609  0.1374
    2MOL    H46  308   3.383   7.120   6.629 -0.1437  0.8605 -0.7007
    2MOL    H47  309   3.397   7.266   6.723 -3.1262  1.9667  0.3648
    2MOL    H48  310   3.143   7.095   6.672  1.6154 -0.6488 -0.8629
    2MOL    H49  311   3.287   7.397   6.863 -0.1072  2.3123 -1.3395
    2MOL    H50  312   3.127   7.430   6.923 -0.7007 -2.0657  0.4358
    2MOL    H51  313   3.197   7.494   6.773  0.4488  0.0227  0.0375
    2MOL    H52  314   2.923   7.314   6.828 -0.1243 -1.1511 -0.0004
    2MOL    H53  315   2.938   7.202   6.695  1.5259 -0.1727  1.2320
    2MOL    C54  316   2.930   7.418   6.644 -0.1855 -0.0836 -0.0511
    2MOL    C55  317   2.794   7.391   6.584 -0.4409 -0.0339  0.0580
    2MOL    C56  318   2.692   7.487   6.591 -0.0005 -0.1377  0.6684
    2MOL    C57  319   2.713   7.625   6.650  0.5123  0.2755  0.2896
    2MOL    C58  320   2.562   7.469   6.506  0.0044 -0.0682  0.4267
    2MOL    H59  321   2.997   7.421   6.559 -1.0036 -1.1795 -0.7615
    2MOL    H60  322   2.941   7.510   6.700  0.7622 -0.2689  0.0647
    2MOL    H61  323   2.774   7.297   6.536  1.4193 -0.6420  0.4342
    2MOL    H62  324   2.737   7.604   6.754 -0.1108  0.3248  0.4447
    2MOL    H63  325   2.631   7.693   6.627  0.8227  0.5279 -0.0796
    2MOL    H64  326   2.805   7.675   6.622  0.3381 -0.3224 -1.4139
    2MOL    H65  327   2.485   7.517   6.566 -1.8717 -0.4665 -1.5715
    2MOL    H66  328   2.531   7.366   6.488 -2.6497  1.1136 -2.1510
    2MOL    C67  329   2.570   7.525   6.356 -0.5687 -0.3456  0.6035
    2MOL    C68  330   2.449   7.486   6.275 -0.2335  0.2313  0.0310
    2MOL    C69  331   2.456   7.424   6.155 -0.6036 -0.4496  0.2009
    2MOL    C70  332   2.576   7.399   6.072  0.1671  0.2432 -1.0321
    2MOL    C71  333   2.323   7.374   6.090  1.0949 -0.0676 -0.5510
    2MOL    H72  334   2.661   7.477   6.320 -0.8565  0.3601 -1.1059
    2MOL    H73  335   2.594   7.631   6.348  0.3702 -0.4197  2.2036
    2MOL    H74  336   2.353   7.497   6.323 -1.3410 -0.8918 -1.8234
    2MOL    H75  337   2.671   7.448   6.096 -1.7925  2.2047  3.2633
    2MOL    H76  338   2.557   7.443   5.974  0.1045  1.3505 -0.5386
    2MOL    H77  339   2.589   7.293   6.052  1.7576  0.5516 -1.6997
    2MOL    H78  340   2.242   7.398   6.160  1.4863  0.8316 -0.4004
    2MOL    H79  341   2.331   7.265   6.081  0.3688 -0.2027  0.3512
    2MOL    C80  342   2.286   7.441   5.956 -0.2029 -0.0446  0.1210
    2MOL    C81  343   2.154   7.402   5.902 -1.0728  1.1409  0.4404
    2MOL    C82  344   2.037   7.467   5.913  0.1546 -0.2330  0.1605
    2MOL    C83  345   2.023   7.612   5.953 -0.1393  0.1954  0.0119
    2MOL    C84  346   1.908   7.404   5.851  0.6099  0.6276 -0.1359
    2MOL    H85  347   2.363   7.413   5.884  0.3311 -1.5691  1.2652
    2MOL    H86  348   2.296   7.549   5.963  0.0018 -0.1109  0.9229
    2MOL    H87  349   2.148   7.307   5.851 -2.6428  0.7755  1.2816
    2MOL    H88  350   1.925   7.627   5.997 -1.6166  1.2244 -3.4287
    2MOL    H89  351   2.035   7.673   5.863 -0.5866 -0.5452 -0.5629
    2MOL    H90  352   2.094   7.650   6.027 -0.7619 -1.5353  1.5260
    2MOL    H91  353   1.918   7.391   5.743 -0.4311 -2.3039  0.0849
    2MOL    H92  354   1.820   7.464   5.878 -1.2645 -1.6373 -1.0471
    2MOL    C93  355   1.873   7.257   5.885 -0.2133  0.5922  0.2956
    2MOL    C94  356   1.760   7.196   5.795 -0.7298 -0.5073 -0.8598
    2MOL    C95  357   1.649   7.124   5.838 -0.0451 -0.0208  0.8028
    2MOL    C96  358   1.618   7.090   5.979  0.4955  0.0118 -0.3687
    2MOL    C97  359   1.541   7.082   5.742  0.3464  0.3374 -0.2491
    2MOL    H98  360   1.844   7.279   5.988  0.5116  0.2860  0.5703
    2MOL    H99  361   1.965   7.200   5.889  1.5984  3.1867 -2.1715
    2MOL   H100  362   1.781   7.199   5.689  1.6882 -0.3195 -0.4041
    2MOL   H101  363   1.591   6.985   5.991  2.2885 -0.5231 -0.8376
    2MOL   H102  364   1.531   7.140   6.020 -0.5925  2.0974 -4.8364
    2MOL   H103  365   1.708   7.109   6.037  0.6144  0.1555 -0.5989
    2MOL   H104  366   1.508   6.986   5.783  1.1142  0.4718  0.7125
    2MOL   H105  367   1.569   7.045   5.644 -1.9142  0.4182 -0.9554
    2MOL   C106  368   1.422   7.177   5.740 -0.7398 -0.4169 -0.4079
    2MOL   C107  369   1.309   7.110   5.674  0.7646 -0.6097  0.5947
    2MOL   C108  370   1.267   7.122   5.544 -0.1667 -0.2060  0.5464
    2MOL   C109  371   1.332   7.221   5.447  0.3885 -0.4279 -0.2176
    2MOL   C110  372   1.156   7.037   5.488 -0.0356 -0.4203 -0.6216
    2MOL   H111  373   1.461   7.266   5.690 -0.1066 -0.7387 -0.4781
    2MOL   H112  374   1.398   7.218   5.838 -0.4690  0.8230 -0.8509
    2MOL   H113  375   1.260   7.035   5.733  1.4408 -0.6553  1.1120
    2MOL   H114  376   1.257   7.260   5.377  1.9164  0.7093 -1.2494
    2MOL   H115  377   1.421   7.180   5.399 -0.4118 -1.0221 -1.2200
    2MOL   H116  378   1.357   7.310   5.504 -0.5488 -0.0767 -0.3364
    2MOL   H117  379   1.069   7.097   5.462  0.5648 -0.2181 -2.2088
    2MOL   H118  380   1.131   6.965   5.566 -2.0681  0.4913 -0.3897
    2MOL   C119  381   1.196   6.965   5.359 -0.3129 -0.2492 -0.3362
    2MOL   C120  382   1.084   6.862   5.321  0.9370  0.4611  0.3234
    2MOL   C121  383   1.076   6.796   5.207  0.1303 -0.1943 -0.7608
    2MOL   C122  384   1.175   6.817   5.092 -0.1098 -0.0481  0.4594
    2MOL   C123  385   0.972   6.686   5.183  0.7387 -0.2886 -0.2307
    2MOL   H124  386   1.288   6.913   5.388  0.1829  1.6955  1.6910
    2MOL   H125  387   1.188   7.046   5.287 -2.2200  1.3065  1.5755
    2MOL   H126  388   1.007   6.849   5.395  2.1217 -0.2202  1.4533
    2MOL   H127  389   1.217   6.723   5.058  1.3988 -0.2137  2.6115
    2MOL   H128  390   1.256   6.882   5.125 -0.3123  0.1779  0.5135
    2MOL   H129  391   1.127   6.856   5.002 -1.3166 -1.2082  0.5981
    2MOL   H130  392   0.930   6.717   5.087 -1.5647 -2.3425  0.0774
    2MOL   H131  393   0.896   6.698   5.260 -0.3507 -1.3217 -1.1108
    2MOL   C132  394   1.027   6.550   5.187  0.2428  0.0261  0.2918
    2MOL   C133  395   0.921   6.454   5.126 -0.2615  0.7031 -0.2501
    2MOL   C134  396   0.922   6.321   5.157 -0.6153  0.1159  0.6206
    2MOL   C135  397   1.025   6.256   5.254 -0.4571  0.2034  0.2008
    2MOL   C136  398   0.819   6.225   5.099 -0.7401 -0.4699  0.3948
    2MOL   H137  399   1.072   6.515   5.281  3.1640  0.5133 -0.8565
    2MOL   H138  400   1.110   6.545   5.116  0.3587 -2.1902  0.5326
    2MOL   H139  401   0.857   6.494   5.049  0.5200 -1.2590 -1.9683
    2MOL   H140  402   1.017   6.147   5.264 -1.1221  0.4570  2.7979
    2MOL   H141  403   1.002   6.289   5.355 -1.7914 -0.6424  0.1868
    2MOL   H142  404   1.131   6.267   5.230 -0.2100 -1.4340  0.4438
    2MOL   H143  405   0.862   6.151   5.032 -0.1375  0.4006 -0.1978
    2MOL   H144  406   0.762   6.288   5.030  1.9847  1.3709 -0.2572
    2MOL   C145  407   0.722   6.160   5.200  0.3367 -0.1167 -0.8728
    2MOL   C146  408   0.619   6.087   5.123 -0.3782  0.5074  0.0677
    2MOL   C147  409   0.607   5.956   5.105  0.2208  0.3645 -0.1908
    2MOL   C148  410   0.694   5.843   5.167 -0.7617 -1.3232 -0.0163
    2MOL   C149  411   0.488   5.903   5.028 -0.4214  0.7100 -0.5508
    2MOL   H150  412   0.655   6.225   5.256 -0.5535 -0.2864 -1.7188
    2MOL   H151  413   0.775   6.094   5.269 -0.5815 -1.3596 -1.3192
    2MOL   H152  414   0.548   6.155   5.078 -0.1984  0.4342 -0.3266
    2MOL   H153  415   0.719   5.778   5.083 -0.4833 -1.8200  0.4433
    2MOL   H154  416   0.647   5.789   5.249  0.2178 -1.6302  0.3586
    2MOL   H155  417   0.790   5.884   5.200 -1.2485  0.5845 -0.8856
    2MOL   H156  418   0.409   5.977   5.024 -0.4072  0.8222  0.9398
    2MOL   H157  419   0.445   5.832   5.100  0.3029  0.4109 -0.4048
    2MOL   C158  420   0.515   5.858   4.884 -0.0519  0.5368  0.3386
    2MOL   C159  421   0.390   5.786   4.829  0.8498  0.5120  0.6051
    2MOL   C160  422   0.377   5.654   4.801  0.9954 -0.5100  0.1897
    2MOL   C161  423   0.483   5.549   4.835  0.0099  0.1207  0.1528
    2MOL   C162  424   0.250   5.601   4.736  0.2247 -0.2479 -0.5306
    2MOL   H163  425   0.606   5.797   4.891  1.0696  2.0185 -0.9411
    2MOL   H164  426   0.548   5.941   4.822  1.0068 -0.3638 -0.3364
    2MOL   H165  427   0.314   5.858   4.802  1.9503  0.5084 -2.7008
    2MOL   H166  428   0.526   5.574   4.932  1.7485 -0.7680 -0.3690
    2MOL   H167  429   0.564   5.551   4.762  0.1305 -1.0356  0.2447
    2MOL   H168  430   0.448   5.446   4.835 -2.3398  0.8659  2.2412
    2MOL   H169  431   0.272   5.516   4.672  0.5131 -1.2277  0.8457
    2MOL   H170  432   0.202   5.684   4.685  2.1257  0.9566 -0.3892
    2MOL   C171  433   0.151   5.543   4.841  0.5150  0.0503 -0.6254
    2MOL   C172  434   0.022   5.494   4.777  0.5639 -0.0397 -0.1849
    2MOL   C173  435   7.795   5.569   4.735  0.2848 -0.2395 -0.0471
    2MOL   C174  436   7.792   5.714   4.755 -0.0590 -0.3926 -0.2580
    2MOL   C175  437   7.661   5.506   4.692 -0.0764  0.0133 -0.4288
    2MOL   H176  438   0.119   5.627   4.904 -0.4883 -1.6405  1.1744
    2MOL   H177  439   0.207   5.473   4.903 -1.1820 -1.2440 -0.5212
    2MOL   H178  440   0.016   5.388   4.759  1.1682 -0.1070  0.0010
    2MOL   H179  441   7.762   5.777   4.671  1.8054  0.1463 -0.5504
    2MOL   H180  442   0.006   5.764   4.765 -1.5984  3.0318 -1.5717
    2MOL   H181  443   7.731   5.746   4.840  1.6551 -2.0816  1.6761
    2MOL   H182  444   7.580   5.550   4.750 -0.3721 -0.4310 -0.4962
    2MOL   H183  445   7.660   5.405   4.733  2.2687  0.5294  0.9655
    2MOL   C184  446   7.618   5.513   4.549  0.6117  0.2279 -0.7615
    2MOL   C185  447   7.718   5.439   4.461 -0.8419  0.0322 -0.1368
    2MOL   C186  448   7.722   5.440   4.326  0.0369  0.1763 -0.3690
    2MOL   C187  449   7.633   5.542   4.241 -0.1135  0.5037  0.6741
    2MOL   C188  450   7.803   5.343   4.244  0.2756  0.5140 -0.1593
    2MOL   H189  451   7.614   5.619   4.522 -2.1059  0.5481  0.6944
    2MOL   H190  452   7.520   5.465   4.544  0.4939  0.1117  2.0081
    2MOL   H191  453   7.781   5.365   4.510  0.0514  2.7546  2.9865
    2MOL   H192  454   7.582   5.631   4.279  0.2569  1.4983 -1.0856
    2MOL   H193  455   7.556   5.477   4.199  2.0931 -2.5074  1.1461
    2MOL   H194  456   7.696   5.580   4.161  1.2757 -0.2183  1.4135
    2MOL   H195  457   7.732   5.277   4.195 -0.5702  1.2113  0.1130
    2MOL   H196  458   7.856   5.279   4.315 -0.2024 -0.1255 -0.3770
    2MOL   C197  459   0.027   5.414   4.157  0.1932 -0.0298  0.2268
    2MOL   C198  460   0.116   5.500   4.244  0.5333 -0.1877  0.0312
    2MOL   C199  461   0.245   5.535   4.210  0.3098 -0.6678  0.2075
    2MOL   C200  462   0.321   5.472   4.094  0.3540  0.4623 -0.8470
    2MOL   C201  463   0.314   5.649   4.280  0.0539 -0.1928  0.0778
    2MOL   H202  464   7.852   5.465   4.080  1.1866 -0.5079 -0.8518
    2MOL   H203  465   0.083   5.338   4.101 -0.1858 -1.1270  1.3131
    2MOL   H204  466   0.072   5.559   4.323 -2.3699 -0.4294 -1.3524
    2MOL   H205  467   0.424   5.452   4.123  0.1853 -0.3798 -0.8170
    2MOL   H206  468   0.323   5.533   4.004 -0.8770  0.8644 -0.6128
    2MOL   H207  469   0.280   5.376   4.060  1.4619 -0.1874 -0.3640
    2MOL   H208  470   0.236   5.700   4.337 -0.9555  1.1419 -2.3779
    2MOL   H209  471   0.367   5.727   4.225 -1.8970  1.3750  0.3516
    2MOL   C210  472   0.413   5.602   4.392 -0.3559 -0.0908 -0.4440
    2MOL   C211  473   0.494   5.706   4.476  0.4971  0.0022  0.0117
    2MOL   C212  474   0.628   5.711   4.490  2.0376 -0.2156 -0.3626
    2MOL   C213  475   0.723   5.608   4.430  0.2422  0.4601  0.3891
    2MOL   C214  476   0.702   5.809   4.579  0.7966 -0.1120  0.2289
    2MOL   H215  477   0.484   5.541   4.337  0.5352  0.1137  0.4588
    2MOL   H216  478   0.352   5.542   4.459 -0.7380  3.1017  2.1908
    2MOL   H217  479   0.445   5.784   4.533  0.9402 -0.3916  0.9437
    2MOL   H218  480   0.689   5.506   4.414 -3.1787  1.5341  0.4643
    2MOL   H219  481   0.807   5.587   4.496  0.5461  0.1347 -0.1012
    2MOL   H220  482   0.760   5.655   4.338 -0.2895 -0.2923 -0.2115
    2MOL   H221  483   0.736   5.764   4.673 -1.6894 -1.3720  0.5790
    2MOL   H222  484   0.642   5.891   4.620  0.0735 -0.3320 -0.3782
    2MOL   C223  485   0.815   5.887   4.525 -0.4289  0.5286 -0.1431
    2MOL   C224  486   0.883   5.958   4.636 -0.0954 -0.1115  1.0796
    2MOL   C225  487   0.886   6.093   4.652  0.1866  0.3415  0.1158
    2MOL   C226  488   0.809   6.193   4.566  0.0708  0.1527 -0.5259
    2MOL   C227  489   0.977   6.159   4.756 -0.6206 -0.7512 -0.8534
    2MOL   H228  490   0.778   5.961   4.455 -3.0964  0.0811  0.7408
    2MOL   H229  491   0.889   5.822   4.477  1.2202  3.8578 -2.2761
    2MOL   H230  492   0.934   5.896   4.708 -1.9521 -0.3941  2.1914
    2MOL   H231  493   0.704   6.187   4.592  0.6902 -3.1357  1.5714
    2MOL   H232  494   0.814   6.178   4.458 -0.6298 -1.0045 -0.4048
    2MOL   H233  495   0.834   6.298   4.578  2.5649 -0.3138 -1.2877
    2MOL   H234  496   0.907   6.212   4.821 -0.7470 -0.9989 -0.7906
    2MOL   H235  497   1.032   6.233   4.697 -1.5740  1.1069  0.5234
    2MOL   C236  498   1.076   6.066   4.840  0.6544 -0.0774  0.7313
    2MOL   C237  499   1.172   6.143   4.931  0.1706 -0.0988  0.3258
    2MOL   C238  500   1.277   6.211   4.880  0.2023  0.3666  0.4345
    2MOL   C239  501   1.315   6.221   4.732 -0.5441  0.1966 -0.2101
    2MOL   C240  502   1.377   6.274   4.978 -0.3782  0.0256 -0.4705
    2MOL   H241  503   1.124   5.998   4.769 -1.3024 -0.6380 -0.0871
    2MOL   H242  504   1.028   5.990   4.902 -0.4383 -0.3845 -0.4804
    2MOL   H243  505   1.161   6.133   5.038 -1.1789  1.6519  0.3673
    2MOL   H244  506   1.404   6.163   4.709  0.7566  1.6130  1.1102
    2MOL   H245  507   1.331   6.323   4.697  0.5982 -1.2234 -4.0244
    2MOL   H246  508   1.240   6.183   4.664 -0.1462  0.2335 -0.6700
    2MOL   H247  509   1.471   6.299   4.927  0.1769  1.3149  1.1417
    2MOL   H248  510   1.395   6.211   5.065 -0.8229 -1.0528 -1.1498
    2MOL   C249  511   1.330   6.406   5.028  0.5353  0.2556  0.1949
    2MOL   C250  512   1.438   6.483   5.107  0.2786 -0.0453  0.1164
    2MOL   C251  513   1.496   6.595   5.068  0.2031 -0.2957 -0.2731
    2MOL   C252  514   1.468   6.672   4.942  0.0087  0.1402  0.9113
    2MOL   C253  515   1.608   6.656   5.155  0.1109 -0.0915 -0.0112
    2MOL   H254  516   1.248   6.386   5.097  0.2464  0.9666  0.0652
    2MOL   H255  517   1.287   6.468   4.950 -0.1588 -1.2999 -0.6915
    2MOL   H256  518   1.470   6.429   5.195  4.1437  0.1001 -1.1243
    2MOL   H257  519   1.554   6.653   4.878  0.1404  2.0703  0.4936
    2MOL   H258  520   1.443   6.778   4.951 -0.6454  0.3041 -2.2497
    2MOL   H259  521   1.375   6.643   4.892  1.2333 -0.0121 -1.3347
    2MOL   H260  522   1.600   6.765   5.157  1.5082  0.0795 -1.8880
    2MOL   H261  523   1.705   6.613   5.128  0.5532  0.7300  0.2627
    2MOL   H262  524   1.589   6.621   5.256 -2.5446  1.0571 -0.0603
    3MOL     C1  525   3.501   3.819   3.542  0.3754  0.3928  0.1263
    3MOL     C2  526   3.606   3.881   3.634  0.8337 -0.6404  0.2857
    3MOL     C3  527   3.737   3.850   3.637  0.0354 -0.1037  0.1234
    3MOL     C4  528   3.807   3.758   3.541 -0.7753  0.0953 -0.1965
    3MOL     C5  529   3.827   3.916   3.738  0.1243  0.3871  0.6995
    3MOL     H6  530   3.443   3.745   3.597  1.3727  1.6652  2.9876
    3MOL     H7  531   3.440   3.900   3.500  0.2520 -1.1534 -2.7606
    3MOL     H8  532   3.568   3.934   3.720  1.6247  0.7566 -0.2198
    3MOL     H9  533   3.761   3.670   3.494  0.1115  1.1104 -3.0343
    3MOL    H10  534   3.903   3.722   3.577 -0.5359  1.0469  0.1096
    3MOL    H11  535   3.833   3.821   3.456 -2.1585  0.6026 -0.2646
    3MOL    H12  536   3.780   4.000   3.788 -2.9304 -1.1093  0.4103
    3MOL    H13  537   3.915   3.964   3.693 -0.2814 -0.7960 -1.4181
    3MOL    H14  538   3.553   3.768   3.461  1.0355  0.1908  0.6751
    3MOL    C15  539   3.862   3.821   3.846  0.1906  0.1098 -0.0059
    3MOL    C16  540   3.908   3.901   3.973 -0.1751  0.0862  0.0404
    3MOL    C17  541   4.001   3.854   4.061  0.3522  0.5806 -0.3138
    3MOL    C18  542   4.071   3.719   4.051 -0.0390  0.2133 -0.1984
    3MOL    C19  543   4.036   3.934   4.189  0.4730 -0.6659 -0.2255
    3MOL    H20  544   3.937   3.747   3.816 -0.2369 -0.2511 -0.1868
    3MOL    H21  545   3.775   3.764   3.878  0.8308  0.1743  1.8700
    3MOL    H22  546   3.851   3.992   3.991 -1.2825 -0.0396 -2.6216
    3MOL    H23  547   4.006   3.641   4.012  1.0185 -0.8420  0.1073
    3MOL    H24  548   4.098   3.675   4.147 -3.6143 -1.1617  0.2229
    3MOL    H25  549   4.156   3.721   3.982  1.1352 -1.8067  1.1214
    3MOL    H26  550   4.061   3.868   4.272  1.3737 -1.1573 -0.8824
    3MOL    H27  551   3.949   3.992   4.219 -0.8461 -2.7699  0.1891
    3MOL    C28  552   4.161   4.013   4.171 -0.6891  0.5538  0.1922
    3MOL    C29  553   4.195   4.075   4.305  0.7629 -0.1177 -0.1504
    3MOL    C30  554   4.300   4.056   4.386 -0.2555  0.0591  0.7916
    3MOL    C31  555   4.396   3.946   4.364  0.3127  0.7748  0.1115
    3MOL    C32  556   4.342   4.154   4.496 -0.0422  0.4048  0.3056
    3MOL    H33  557   4.157   4.097   4.102 -0.7578  0.5470  0.1893
    3MOL    H34  558   4.249   3.956   4.139  0.1846  1.5408  0.7927
    3MOL    H35  559   4.126   4.152   4.334 -1.4557 -1.2352 -2.3092
    3MOL    H36  560   4.421   3.917   4.262 -3.0318  0.2756 -0.6204
    3MOL    H37  561   4.366   3.858   4.421 -0.8420 -0.3372 -2.1283
    3MOL    H38  562   4.490   3.981   4.405  1.0241 -1.6092  0.5637
    3MOL    H39  563   4.433   4.205   4.464  0.1161 -0.5010 -0.7094
    3MOL    H40  564   4.370   4.093   4.582  1.4110 -0.1182 -0.5142
    3MOL    C41  565   4.242   4.267   4.526 -0.3366  0.4033  0.2955
    3MOL    C42  566   4.293   4.339   4.652  0.1265  0.4482 -0.6677
    3MOL    C43  567   4.302   4.475   4.670 -0.6635 -0.0613 -0.0236
    3MOL    C44  568   4.286   4.575   4.561 -0.1338 -0.2235 -0.6508
    3MOL    C45  569   4.354   4.530   4.797  0.1381 -0.0675 -0.3059
    3MOL    H46  570   4.137   4.241   4.544 -0.3274  1.4936  2.0463
    3MOL    H47  571   4.231   4.331   4.439 -2.6876 -1.4398 -0.8310
    3MOL    H48  572   4.315   4.281   4.740  0.4261  0.3088 -0.8362
    3MOL    H49  573   4.371   4.577   4.493 -0.5157 -1.4802 -1.1886
    3MOL    H50  574   4.264   4.670   4.609  0.0175 -0.1040 -0.8165
    3MOL    H51  575   4.194   4.557   4.506 -0.3637 -0.6409 -0.1270
    3MOL    H52  576   4.275   4.581   4.850  0.3239 -1.9179  1.7990
    3MOL    H53  577   4.424   4.613   4.787 -3.2012  2.9564  0.3641
    3MOL    C54  578   4.421   4.424   4.897 -0.3463 -0.3342 -0.4877
    3MOL    C55  579   4.513   4.490   4.986  0.1802 -0.3936  0.0954
    3MOL    C56  580   4.640   4.532   4.967 -0.1082 -0.5808 -0.2540
    3MOL    C57  581   4.706   4.501   4.834 -0.0224  0.1502  0.4594
    3MOL    C58  582   4.724   4.596   5.073 -0.2514 -0.1208 -0.7159
    3MOL    H59  583   4.487   4.358   4.841  0.4464  0.3958 -0.4257
    3MOL    H60  584   4.347   4.368   4.954 -0.8315 -0.6367 -1.4088
    3MOL    H61  585   4.459   4.509   5.078  2.0701 -0.3201  1.2280
    3MOL    H62  586   4.770   4.579   4.794  2.1428 -1.7205  0.1321
    3MOL    H63  587   4.641   4.476   4.751 -0.8904  0.0144  1.1765
    3MOL    H64  588   4.774   4.416   4.842 -0.6078 -0.5059 -1.2527
    3MOL    H65  589   4.745   4.696   5.035  3.3671 -1.4058 -2.2844
    3MOL    H66  590   4.822   4.551   5.089  0.8521  1.5657 -2.4319
    3MOL    C67  591   4.650   4.608   5.204  0.3823  0.4896  0.0277
    3MOL    C68  592   4.740   4.675   5.303  0.2920  0.1404  0.0604
    3MOL    C69  593   4.809   4.611   5.399 -0.4207  0.2331 -0.1295
    3MOL    C70  594   4.814   4.456   5.410 -0.0867 -0.7264  0.2860
    3MOL    C71  595   4.896   4.688   5.498  0.5447  0.4409  0.3665
    3MOL    H72  596   4.623   4.510   5.243 -0.0407 -0.3615 -2.3303
    3MOL    H73  597   4.559   4.667   5.200 -1.6164 -2.3431  1.8545
    3MOL    H74  598   4.743   4.782   5.293 -1.5181 -0.0016 -2.3992
    3MOL    H75  599   4.893   4.424   5.478 -1.2708  0.2244  2.1623
    3MOL    H76  600   4.822   4.397   5.319 -1.5042 -1.0006  0.3241
    3MOL    H77  601   4.727   4.426   5.469 -0.8349  1.4840  0.3521
    3MOL    H78  602   4.862   4.677   5.600  1.0055 -1.2000  0.3691
    3MOL    H79  603   4.883   4.795   5.481 -0.3055  0.4513  1.0927
    3MOL    C80  604   5.048   4.652   5.476 -0.1663  0.7193 -0.8643
    3MOL    C81  605   5.135   4.744   5.558 -0.4103 -0.3172  0.3681
    3MOL    C82  606   5.201   4.847   5.513 -0.8036  0.5657 -0.2554
    3MOL    C83  607   5.214   4.871   5.369  0.2219 -0.6324  0.0835
    3MOL    C84  608   5.287   4.945   5.600 -0.2376 -0.0994 -0.6329
    3MOL    H85  609   5.083   4.641   5.373  0.1326  1.8574 -0.8957
    3MOL    H86  610   5.085   4.555   5.507  0.8622  1.7234  1.1768
    3MOL    H87  611   5.133   4.741   5.666  0.4082 -1.0948  0.3630
    3MOL    H88  612   5.131   4.844   5.303  0.1772 -0.3204  0.0157
    3MOL    H89  613   5.297   4.810   5.333  0.8111  0.4173 -0.3438
    3MOL    H90  614   5.234   4.975   5.344  2.1500 -1.1731 -0.7088
    3MOL    H91  615   5.243   5.042   5.576  0.4570  0.2523 -0.5038
    3MOL    H92  616   5.383   4.952   5.548  0.4327 -1.6805  0.3529
    3MOL    C93  617   5.300   4.923   5.749  0.0210 -0.3239  0.0573
    3MOL    C94  618   5.363   5.048   5.810  0.1737  0.3655 -0.0359
    3MOL    C95  619   5.489   5.052   5.862  0.1529 -0.1366 -0.2956
    3MOL    C96  620   5.597   4.941   5.862  0.5556 -0.6698 -0.3174
    3MOL    C97  621   5.539   5.186   5.931 -0.3534 -0.1521 -0.7088
    3MOL    H98  622   5.354   4.832   5.774  0.7306 -0.6982 -2.6112
    3MOL    H99  623   5.200   4.910   5.790  0.9225 -0.7032  2.2005
    3MOL   H100  624   5.296   5.134   5.809  0.3101  0.4637 -2.7048
    3MOL   H101  625   5.561   4.858   5.801 -0.9176 -0.8998  0.8318
    3MOL   H102  626   5.614   4.886   5.954  0.5789  1.7898  1.1787
    3MOL   H103  627   5.684   4.985   5.814  1.3337 -1.4749  0.3342
    3MOL   H104  628   5.452   5.249   5.917  0.1416  0.6272 -0.3463
    3MOL   H105  629   5.614   5.238   5.871 -1.4079  1.3651 -0.7415
    3MOL   C106  630   5.570   5.185   6.076  0.0530  0.0809  0.1139
    3MOL   C107  631   5.466   5.124   6.162  0.5952 -0.4724 -0.4188
    3MOL   C108  632   5.412   5.184   6.271 -0.2848  0.8833 -0.5303
    3MOL   C109  633   5.458   5.320   6.316 -0.3549  0.3478  0.3125
    3MOL   C110  634   5.313   5.115   6.365  0.1203  0.0916 -0.9552
    3MOL   H111  635   5.605   5.285   6.103  0.8772 -0.5118  1.2855
    3MOL   H112  636   5.664   5.133   6.097  0.8831  1.5848  0.2801
    3MOL   H113  637   5.434   5.025   6.133  0.9588 -0.4140 -1.0342
    3MOL   H114  638   5.561   5.313   6.352 -0.1359 -0.0326 -0.3828
    3MOL   H115  639   5.394   5.342   6.402 -0.8945  1.2924 -0.3176
    3MOL   H116  640   5.446   5.393   6.236 -1.8542 -0.1930  0.0347
    3MOL   H117  641   5.283   5.019   6.322 -1.1789 -0.7594  1.7171
    3MOL   H118  642   5.217   5.164   6.382  0.7569  0.9653  0.1448
    3MOL   C119  643   5.361   5.112   6.510  0.5044 -0.5103  0.4338
    3MOL   C120  644   5.303   4.994   6.584  0.2819 -1.1498 -0.5272
    3MOL   C121  645   5.327   4.956   6.709 -0.3812 -0.0846  0.2070
    3MOL   C122  646   5.413   5.047   6.797 -0.6308 -0.8340 -0.3086
    3MOL   C123  647   5.271   4.828   6.775  0.0937  0.2880  0.8992
    3MOL   H124  648   5.340   5.208   6.558  1.2687  0.6158 -1.4485
    3MOL   H125  649   5.469   5.104   6.519  0.3863 -0.8480  1.7152
    3MOL   H126  650   5.243   4.930   6.522  0.2977 -1.2465 -0.4424
    3MOL   H127  651   5.486   4.988   6.850  1.6955  1.6794 -0.6078
    3MOL   H128  652   5.345   5.090   6.871 -1.5779 -2.1699 -0.3869
    3MOL   H129  653   5.462   5.125   6.737  0.0525  0.0189  1.3353
    3MOL   H130  654   5.357   4.770   6.808 -0.2881 -1.0540 -0.4381
    3MOL   H131  655   5.215   4.774   6.699 -0.5523  0.7654  1.0297
    3MOL   C132  656   5.196   4.853   6.909 -0.4518 -0.2954 -0.0456
    3MOL   C133  657   5.080   4.950   6.902  0.7772  0.4701  0.6430
    3MOL   C134  658   4.944   4.927   6.897  0.0934  0.7329 -0.3550
    3MOL   C135  659   4.898   4.783   6.901 -0.4094  0.6625  0.6438
    3MOL   C136  660   4.837   5.036   6.897  0.4678  0.0777  0.0135
    3MOL   H137  661   5.257   4.898   6.986 -0.5128 -0.7667  0.2816
    3MOL   H138  662   5.153   4.757   6.939 -1.1798  0.4904  1.4658
    3MOL   H139  663   5.115   5.051   6.889  1.1945  0.3440  0.7644
    3MOL   H140  664   4.901   4.749   7.004  1.9982 -0.8484  0.1033
    3MOL   H141  665   4.961   4.722   6.837  0.1048  1.1289  0.7079
    3MOL   H142  666   4.797   4.771   6.861 -0.1646  1.5990 -0.2981
    3MOL   H143  667   4.766   5.018   6.977 -0.9414  4.9430  0.0284
    3MOL   H144  668   4.782   5.039   6.803  0.2487 -0.6458  0.1215
    3MOL   C145  669   4.890   5.189   6.912 -0.2565 -0.2557 -0.5191
    3MOL   C146  670   4.789   5.298   6.886 -0.4385  0.1251  0.2043
    3MOL   C147  671   4.798   5.433   6.900  0.6809 -0.1535  0.4140
    3MOL   C148  672   4.909   5.494   6.981  0.3156  0.4697 -0.3647
    3MOL   C149  673   4.703   5.535   6.833 -0.0369  0.4526 -0.4467
    3MOL   H150  674   4.968   5.219   6.843  0.5376  0.0452  0.4916
    3MOL   H151  675   4.928   5.197   7.014 -1.1652 -2.7904  0.0628
    3MOL   H152  676   4.707   5.272   6.820  0.6380  1.2555 -1.6157
    3MOL   H153  677   4.867   5.536   7.072  0.5892  0.0816 -0.0607
    3MOL   H154  678   4.960   5.576   6.929 -1.4863  0.5030 -2.1415
    3MOL   H155  679   4.983   5.420   7.015  1.1353  1.5010  0.1368
    3MOL   H156  680   4.633   5.478   6.774 -0.8064 -0.7067  1.5481
    3MOL   H157  681   4.762   5.602   6.770 -0.5171  0.8630 -0.4626
    3MOL   C158  682   4.632   5.620   6.940  0.1590  0.3866 -0.0822
    3MOL   C159  683   4.536   5.728   6.890 -0.2377  0.1114 -0.1528
    3MOL   C160  684   4.408   5.760   6.938 -0.8621 -0.3420 -0.3959
    3MOL   C161  685   4.352   5.699   7.065  0.5075  0.2254  0.4210
    3MOL   C162  686   4.319   5.853   6.864 -0.6666 -0.2236 -0.2786
    3MOL   H163  687   4.691   5.676   7.012 -1.7634  0.8444  1.1734
    3MOL   H164  688   4.564   5.546   6.983  1.7322 -1.5203 -0.7889
    3MOL   H165  689   4.567   5.778   6.799  0.2717  1.0929  0.5447
    3MOL   H166  690   4.357   5.590   7.063 -1.1419  0.1399  0.5725
    3MOL   H167  691   4.253   5.737   7.090  1.6124  2.2199  1.9653
    3MOL   H168  692   4.419   5.721   7.149  0.2902  0.6060  0.4941
    3MOL   H169  693   4.333   5.949   6.914 -2.4787  0.7493 -1.5965
    3MOL   H170  694   4.218   5.813   6.871 -1.2731  1.5805  1.8055
    3MOL   C171  695   4.349   5.877   6.719  0.1942  0.6818 -0.6911
    3MOL   C172  696   4.348   5.746   6.636 -0.2143 -0.0268  0.3827
    3MOL   C173  697   4.437   5.693   6.553 -0.0122 -0.0450  0.7574
    3MOL   C174  698   4.563   5.750   6.501  0.2085 -0.7588 -0.5278
    3MOL   C175  699   4.414   5.561   6.487  0.6838  0.0006 -0.2260
    3MOL   H176  700   4.444   5.929   6.706 -0.1357  1.6074  0.4635
    3MOL   H177  701   4.264   5.935   6.684 -0.6581  0.1585  0.4835
    3MOL   H178  702   4.261   5.682   6.645 -0.2164 -0.1516 -0.5303
    3MOL   H179  703   4.642   5.702   6.558  2.1514 -0.8095 -3.1515
    3MOL   H180  704   4.575   5.857   6.518  0.6572 -0.6766 -1.3189
    3MOL   H181  705   4.570   5.737   6.393  1.3890 -1.4428 -0.3755
    3MOL   H182  706   4.348   5.503   6.552  1.4905 -2.6730 -1.7221
    3MOL   H183  707   4.505   5.501   6.493  1.3022  0.9638  0.1970
    3MOL   C184  708   4.342   5.584   6.345  0.6122  0.1383 -0.1033
    3MOL   C185  709   4.184   5.596   6.351  0.1656 -0.2846  0.9506
    3MOL   C186  710   4.095   5.504   6.389 -0.2574 -0.2502  0.5500
    3MOL   C187  711   4.140   5.362   6.433  0.2769  0.5805  0.2441
    3MOL   C188  712   3.940   5.525   6.384  0.3132 -0.0414  0.3183
    3MOL   H189  713   4.370   5.530   6.255 -1.4663 -0.7269 -0.2588
    3MOL   H190  714   4.361   5.686   6.310  1.2868 -0.1405 -0.5454
    3MOL   H191  715   4.144   5.693   6.324  0.0958 -0.5843 -0.0389
    3MOL   H192  716   4.138   5.293   6.348 -0.5931  2.0076 -0.9145
    3MOL   H193  717   4.072   5.322   6.508  1.4688 -0.4053  0.8133
    3MOL   H194  718   4.241   5.345   6.469  0.1576  1.5229  1.0364
    3MOL   H195  719   3.923   5.630   6.360  1.3900  1.4012  5.3221
    3MOL   H196  720   3.885   5.523   6.478 -0.9442 -1.4166 -0.4213
    3MOL   C197  721   3.867   5.457   6.269 -1.2029 -0.4435 -0.9411
    3MOL   C198  722   3.719   5.476   6.272 -0.3637  0.5118  0.6555
    3MOL   C199  723   3.632   5.397   6.341 -0.4768  0.5820  0.0936
    3MOL   C200  724   3.673   5.272   6.418  0.0192  0.3174 -0.3011
    3MOL   C201  725   3.482   5.430   6.355  0.5549 -0.1348 -0.1047
    3MOL   H202  726   3.906   5.355   6.266  0.0754 -0.0112  0.1936
    3MOL   H203  727   3.905   5.498   6.176 -0.7446  0.7131 -0.2606
    3MOL   H204  728   3.690   5.565   6.217 -2.3626 -0.9717 -0.7537
    3MOL   H205  729   3.662   5.295   6.524 -1.8314  0.9296 -0.6165
    3MOL   H206  730   3.776   5.241   6.405 -0.1395 -0.6433  0.6093
    3MOL   H207  731   3.611   5.189   6.384  2.2204 -2.0309  1.2307
    3MOL   H208  732   3.452   5.442   6.459 -1.4395  0.1838 -0.6989
    3MOL   H209  733   3.428   5.343   6.319 -0.1969 -0.6254  2.1444
    3MOL   C210  734   3.432   5.555   6.279  0.0068  0.1427 -0.4823
    3MOL   C211  735   3.287   5.581   6.313 -0.2938  0.3362  0.0082
    3MOL   C212  736   3.188   5.559   6.224 -0.0173 -0.1805  0.1169
    3MOL   C213  737   3.201   5.506   6.081  0.0541  0.1993  0.8323
    3MOL   C214  738   3.049   5.605   6.267  0.2640 -0.1210 -0.4554
    3MOL   H215  739   3.469   5.552   6.177  0.4475 -0.1096 -0.3173
    3MOL   H216  740   3.491   5.642   6.309  1.2169 -1.4848  2.1025
    3MOL   H217  741   3.268   5.625   6.410  0.0516  1.4610 -0.4319
    3MOL   H218  742   3.178   5.584   6.009 -0.4889 -0.4268  0.3215
    3MOL   H219  743   3.133   5.422   6.067  1.8366 -1.2365  0.6505
    3MOL   H220  744   3.303   5.478   6.057  0.4827  3.2524 -1.2564
    3MOL   H221  745   3.044   5.608   6.376 -1.9580  0.9452 -0.5664
    3MOL   H222  746   2.980   5.529   6.232  1.7193 -1.0051 -1.4271
    3MOL   C223  747   3.012   5.743   6.214  0.0346 -0.1369 -0.6722
    3MOL   C224  748   2.897   5.812   6.276 -0.1007  0.4065 -0.4837
    3MOL   C225  749   2.903   5.882   6.392  0.5477  0.3490 -0.4288
    3MOL   C226  750   3.030   5.925   6.468  0.4575 -0.0272  0.7832
    3MOL   C227  751   2.773   5.928   6.454 -0.0259  0.4344  0.1736
    3MOL   H228  752   2.997   5.734   6.106 -0.0570 -0.9073 -0.5933
    3MOL   H229  753   3.095   5.811   6.235  1.2378 -1.9850  0.7010
    3MOL   H230  754   2.797   5.798   6.237  0.5938  1.0235 -2.5800
    3MOL   H231  755   3.043   6.031   6.447 -1.5505  0.1417  0.2951
    3MOL   H232  756   3.110   5.861   6.430 -2.0227 -2.4907 -0.5164
    3MOL   H233  757   3.008   5.912   6.574 -1.1949 -1.5435  0.2757
    3MOL   H234  758   2.785   5.930   6.562 -1.2830 -1.3551  0.3674
    3MOL   H235  759   2.695   5.853   6.443  0.9750 -0.9432  2.2766
    3MOL   C236  760   2.744   6.073   6.410  0.0353 -0.6469  0.0990
    3MOL   C237  761   2.597   6.109   6.431 -0.8333  0.0608  0.2729
    3MOL   C238  762   2.555   6.189   6.524  0.3375 -0.2305 -0.2485
    3MOL   C239  763   2.645   6.261   6.627  0.4420 -0.0758 -0.3417
    3MOL   C240  764   2.411   6.235   6.541  0.4195  0.3998  0.2770
    3MOL   H241  765   2.763   6.088   6.304 -1.6163 -0.5006 -0.1964
    3MOL   H242  766   2.806   6.151   6.455 -1.9326  0.2448  1.3486
    3MOL   H243  767   2.534   6.055   6.361 -0.5838  1.0321 -0.7144
    3MOL   H244  768   2.589   6.281   6.718  1.7504 -1.5605  0.8255
    3MOL   H245  769   2.689   6.354   6.592 -0.8169  0.6232 -0.0834
    3MOL   H246  770   2.733   6.201   6.652 -0.0287 -0.8727 -0.5929
    3MOL   H247  771   2.397   6.342   6.556 -0.9583 -0.0187  2.2030
    3MOL   H248  772   2.377   6.198   6.637 -0.3934  0.7317  0.1203
    3MOL   C249  773   2.301   6.191   6.433  0.8003  1.1106 -0.0755
    3MOL   C250  774   2.169   6.275   6.442 -0.2273  0.2492  0.2196
    3MOL   C251  775   2.043   6.222   6.451 -0.1071 -0.0950  0.2612
    3MOL   C252  776   2.009   6.071   6.438  0.0604 -0.2138  0.0640
    3MOL   C253  777   1.924   6.319   6.447  0.6219 -0.9971  0.0290
    3MOL   H254  778   2.288   6.087   6.465 -1.2835  1.4673  0.3322
    3MOL   H255  779   2.344   6.196   6.333  2.4465 -3.1598  0.3096
    3MOL   H256  780   2.174   6.383   6.437 -0.9119  0.2496 -0.4704
    3MOL   H257  781   2.073   5.999   6.489 -1.9047 -0.3886  2.3714
    3MOL   H258  782   2.002   6.042   6.334  0.9654 -1.9581  0.4659
    3MOL   H259  783   1.913   6.062   6.488 -1.0552 -0.4062 -2.0805
    3MOL   H260  784   1.882   6.335   6.347 -1.0183  1.7959  1.0936
    3MOL   H261  785   1.943   6.416   6.492 -1.2067  0.9554 -3.1625
    3MOL   H262  786   1.840   6.276   6.502 -1.7719  0.3167 -2.4329
    4MOL     C1  787   6.938   1.275   1.086  0.2614 -0.3800 -0.1049
    4MOL     C2  788   6.912   1.136   1.057  0.3065 -0.1836  0.2360
    4MOL     C3  789   6.914   1.084   0.928 -0.6612 -0.3015 -0.1471
    4MOL     C4  790   6.949   1.166   0.802 -0.4649 -0.0555  0.0959
    4MOL     C5  791   6.872   0.937   0.907  0.1790 -0.4461  1.0295
    4MOL     H6  792   6.960   1.340   1.001  0.3714  0.3218  0.4514
    4MOL     H7  793   6.865   1.324   1.151  2.0535 -0.6389  2.1942
    4MOL     H8  794   6.888   1.070   1.139  1.5416  0.0482  0.7997
    4MOL     H9  795   7.043   1.221   0.806 -0.7094  0.2113  2.2811
    4MOL    H10  796   6.879   1.250   0.801  1.1496  1.3380  1.2698
    4MOL    H11  797   6.939   1.111   0.708  1.0279  0.9748 -0.7004
    4MOL    H12  798   6.778   0.932   0.851  1.2506 -2.3906 -0.6628
    4MOL    H13  799   6.869   0.886   1.004 -0.2775  0.0664  1.2870
    4MOL    H14  800   7.024   1.274   1.153  0.4273  1.1630 -0.2738
    4MOL    C15  801   6.975   0.848   0.835  0.0962 -0.7482  0.0156
    4MOL    C16  802   6.935   0.697   0.841  0.1025  0.0429  0.0151
    4MOL    C17  803   7.019   0.592   0.826 -0.2548  0.9226 -1.1669
    4MOL    C18  804   7.161   0.595   0.785 -0.2777 -0.6811  0.0811
    4MOL    C19  805   6.961   0.454   0.825  0.0814  0.6816  0.2658
    4MOL    H20  806   7.072   0.855   0.885  1.0191 -1.1134 -1.6786
    4MOL    H21  807   6.974   0.879   0.731 -1.0172 -2.1395 -0.3949
    4MOL    H22  808   6.831   0.684   0.868  0.0039 -1.6995 -1.0969
    4MOL    H23  809   7.189   0.695   0.752  0.6465 -0.6924  0.7872
    4MOL    H24  810   7.188   0.521   0.710  1.0978 -1.6083  1.4446
    4MOL    H25  811   7.208   0.583   0.883  1.6006 -0.7361 -0.8054
    4MOL    H26  812   6.879   0.429   0.893  1.3808  1.9707  2.3653
    4MOL    H27  813   7.037   0.387   0.867 -0.2921 -2.2125 -3.4387
    4MOL    C28  814   6.925   0.395   0.690  0.2328  0.3517  0.2351
    4MOL    C29  815   6.868   0.248   0.687 -0.0905 -0.6720 -0.0009
    4MOL    C30  816   6.885   0.153   0.592  1.1044 -0.5766  0.0194
    4MOL    C31  817   6.955   0.189   0.462  0.1812  0.5159 -0.3056
    4MOL    C32  818   6.838   0.008   0.603  0.3457 -0.6649  0.3140
    4MOL    H33  819   7.008   0.405   0.621 -0.8895 -1.1037 -1.3406
    4MOL    H34  820   6.852   0.462   0.644  0.0599 -0.5136 -0.7490
    4MOL    H35  821   6.812   0.216   0.773  0.8929 -1.6434  0.2859
    4MOL    H36  822   6.968   0.296   0.447  1.5051  0.8632  2.8210
    4MOL    H37  823   6.896   0.156   0.377  0.8385  1.7964 -1.2771
    4MOL    H38  824   7.050   0.143   0.434 -0.0024  0.6073 -1.0827
    4MOL    H39  825   6.779   7.869   0.514 -0.3908  1.6912  0.2029
    4MOL    H40  826   6.769   0.003   0.688 -1.1048  4.2156 -0.4021
    4MOL    C41  827   6.952   7.782   0.621 -1.4073 -0.0832  0.5752
    4MOL    C42  828   6.904   7.639   0.625  0.6097  0.2055 -0.7358
    4MOL    C43  829   6.981   7.541   0.669  0.6657 -0.0033 -0.5934
    4MOL    C44  830   7.119   7.569   0.726 -0.1367  0.6158 -1.1703
    4MOL    C45  831   6.922   7.401   0.666  0.6705 -0.3982  0.0560
    4MOL    H46  832   7.015   7.802   0.707  1.8753 -0.9618 -1.5146
    4MOL    H47  833   7.020   7.789   0.535  1.0454  1.7004  2.6022
    4MOL    H48  834   6.810   7.614   0.578 -0.1513  2.7370 -0.6249
    4MOL    H49  835   7.118   7.585   0.834 -0.4028 -2.0554 -0.7504
    4MOL    H50  836   7.180   7.646   0.680  0.1659  0.0514 -1.7169
    4MOL    H51  837   7.185   7.485   0.706  0.3706  0.6481  0.3236
    4MOL    H52  838   6.822   7.402   0.623  0.7490 -1.3579 -0.1696
    4MOL    H53  839   6.920   7.360   0.767  1.4643 -1.1408 -0.2205
    4MOL    C54  840   7.006   7.300   0.586  0.3584 -0.0408 -0.1433
    4MOL    C55  841   6.922   7.195   0.520 -0.0568  0.2098 -0.1171
    4MOL    C56  842   6.944   7.065   0.522 -0.6973  0.3966 -0.4561
    4MOL    C57  843   7.070   7.006   0.581  0.3013 -0.1315 -0.2346
    4MOL    C58  844   6.838   6.965   0.480  0.2637 -0.0492 -0.0008
    4MOL    H59  845   7.084   7.276   0.658  0.6028 -0.7068 -0.6311
    4MOL    H60  846   7.059   7.349   0.504  0.3483  1.1243  0.5376
    4MOL    H61  847   6.827   7.229   0.479 -0.4303 -1.5402 -0.7437
    4MOL    H62  848   7.071   6.991   0.689 -0.4159 -0.8784 -0.3300
    4MOL    H63  849   7.151   7.078   0.566 -1.3750  1.7900 -0.2310
    4MOL    H64  850   7.103   6.914   0.534  0.0338  0.0528 -0.7802
    4MOL    H65  851   6.885   6.905   0.403  0.5366 -0.9258  0.8475
    4MOL    H66  852   6.754   7.011   0.427  2.3230  0.5837 -2.8129
    4MOL    C67  853   6.810   6.858   0.590  0.0501 -0.1629  0.0538
    4MOL    C68  854   6.692   6.766   0.549  0.0724  0.3439 -0.5802
    4MOL    C69  855   6.575   6.760   0.617 -0.8364  0.5334  0.4806
    4MOL    C70  856   6.536   6.836   0.739 -0.7419  0.6433 -0.2839
    4MOL    C71  857   6.456   6.671   0.571 -0.8754  0.0802 -0.4253
    4MOL    H72  858   6.777   6.909   0.680  0.8778 -0.9869  0.8397
    4MOL    H73  859   6.898   6.799   0.616  1.4657  1.3153 -1.2759
    4MOL    H74  860   6.712   6.695   0.471  1.7002  0.6351 -0.4519
    4MOL    H75  861   6.603   6.808   0.820  0.6578  1.8373 -1.0021
    4MOL    H76  862   6.430   6.826   0.763 -0.5808  1.3473  0.7873
    4MOL    H77  863   6.556   6.940   0.715 -0.0235  0.8497  1.1703
    4MOL    H78  864   6.415   6.592   0.635  0.0809  0.3078  0.4829
    4MOL    H79  865   6.496   6.614   0.488  1.5717 -1.2375  1.5741
    4MOL    C80  866   6.344   6.754   0.513 -0.1566  0.3374  0.3537
    4MOL    C81  867   6.387   6.864   0.418  0.1648 -0.0855  0.2706
    4MOL    C82  868   6.369   6.998   0.437  0.8457 -0.1456  0.2738
    4MOL    C83  869   6.328   7.064   0.568  0.0565  0.0324 -0.1639
    4MOL    C84  870   6.409   7.097   0.333  0.4604  0.3255  0.0310
    4MOL    H85  871   6.277   6.809   0.580 -0.7825  0.5522 -0.4348
    4MOL    H86  872   6.287   6.683   0.454  0.4304  2.0284 -2.3467
    4MOL    H87  873   6.413   6.822   0.322 -1.2770 -0.9481  0.2339
    4MOL    H88  874   6.249   7.135   0.544 -1.8852 -2.1862 -0.6464
    4MOL    H89  875   6.410   7.124   0.605 -0.9483  1.1753  0.2460
    4MOL    H90  876   6.284   7.001   0.645 -0.1345 -0.9680 -1.0758
    4MOL    H91  877   6.465   7.174   0.387 -2.3881  2.7509 -0.3016
    4MOL    H92  878   6.321   7.151   0.299 -0.3355  0.1288  1.7022
    4MOL    C93  879   6.464   7.036   0.201  0.2134 -0.4800 -0.0394
    4MOL    C94  880   6.522   7.147   0.115 -0.2436 -0.1736 -0.0337
    4MOL    C95  881   6.584   7.130   7.878  0.3087 -0.2412 -0.0076
    4MOL    C96  882   6.610   6.990   7.819  0.6005 -0.8572  0.2219
    4MOL    C97  883   6.628   7.254   7.796  0.3572  0.9371  0.0471
    4MOL    H98  884   6.390   6.977   0.147  2.0934 -0.0816 -3.2208
    4MOL    H99  885   6.545   6.966   0.222  1.2683  1.3250  2.0848
    4MOL   H100  886   6.510   7.248   0.152  2.7211 -0.0462  0.7063
    4MOL   H101  887   6.580   6.911   0.005  1.5032 -0.2385  1.3686
    4MOL   H102  888   6.713   6.978   7.784  1.0415 -0.8743  1.4904
    4MOL   H103  889   6.555   6.978   7.726 -1.2597 -0.4816  1.2499
    4MOL   H104  890   6.595   7.344   7.847  0.0427  0.6445  0.3685
    4MOL   H105  891   6.590   7.259   7.694 -0.0281 -1.8459  0.0193
    4MOL   C106  892   6.788   7.267   7.806  0.1739  0.3230  0.1745
    4MOL   C107  893   6.844   7.393   7.742  0.1554  0.5795  0.5645
    4MOL   C108  894   6.911   7.410   7.621 -0.0815 -1.3029 -0.1423
    4MOL   C109  895   6.936   7.293   7.524 -0.2370  0.1646 -0.3038
    4MOL   C110  896   6.959   7.541   7.572 -0.0322 -0.0199 -0.6195
    4MOL   H111  897   6.838   7.177   7.771 -0.9069  0.0744 -0.7784
    4MOL   H112  898   6.818   7.266   0.028  2.1720 -0.4434 -0.3804
    4MOL   H113  899   6.824   7.485   7.796  1.3900  0.5120  1.1497
    4MOL   H114  900   6.879   7.201   7.541  2.4735 -1.2932  1.2136
    4MOL   H115  901   7.043   7.275   7.519 -0.2488 -0.5077  1.4224
    4MOL   H116  902   6.901   7.325   7.425 -0.5717 -0.7022 -0.4704
    4MOL   H117  903   6.937   7.617   7.647 -3.3832  1.3235 -2.8356
    4MOL   H118  904   6.905   7.564   7.480  0.4139  1.6849 -0.4794
    4MOL   C119  905   7.115   7.532   7.550  0.1350  0.3220  0.5141
    4MOL   C120  906   7.171   7.663   7.505  0.1172  0.5900 -0.6542
    4MOL   C121  907   7.260   7.742   7.572 -0.0054 -0.6787 -0.6001
    4MOL   C122  908   7.297   7.730   7.714  0.5514  0.1694  0.0702
    4MOL   C123  909   7.308   7.875   7.514 -0.8054 -0.1667  0.3550
    4MOL   H124  910   7.133   7.473   7.461  0.8221 -0.5191  1.1982
    4MOL   H125  911   7.170   7.497   7.638  0.1393  0.7837  0.6963
    4MOL   H126  912   7.133   7.693   7.409 -1.9731 -0.0654 -0.0496
    4MOL   H127  913   7.286   7.627   7.747  0.7872  0.8620  2.3726
    4MOL   H128  914   7.242   7.805   7.770 -2.0482 -1.2693 -0.4785
    4MOL   H129  915   7.403   7.755   7.717  1.0261 -1.8257  0.4782
    4MOL   H130  916   7.283   7.872   7.407  2.1497  0.7208 -0.3914
    4MOL   H131  917   7.416   7.865   7.516 -0.5448  1.8449 -1.5679
    4MOL   C132  918   7.248   0.121   7.569  0.4335  0.2724  0.2443
    4MOL   C133  919   7.324   0.242   7.515 -0.0153 -0.7778 -0.5327
    4MOL   C134  920   7.435   0.292   7.576  0.3205 -0.0377 -0.3474
    4MOL   C135  921   7.488   0.239   7.706  0.2331  0.0160 -0.3551
    4MOL   C136  922   7.513   0.410   7.516  0.7279  1.1876 -0.1535
    4MOL   H137  923   7.233   0.126   7.677  1.7156  1.0065  0.3952
    4MOL   H138  924   7.147   0.135   7.531 -0.1087 -0.0778  1.5441
    4MOL   H139  925   7.298   0.286   7.420 -1.4469 -0.1467  0.1394
    4MOL   H140  926   7.481   0.313   7.786  1.9158  0.5108 -0.6346
    4MOL   H141  927   7.595   0.218   7.698  0.8587  0.8406  4.0600
    4MOL   H142  928   7.438   0.148   7.739  1.9057  0.1911  2.9483
    4MOL   H143  929   7.518   0.493   7.587  0.0235  0.6742  0.5029
    4MOL   H144  930   7.456   0.439   7.428 -1.4971 -3.5476 -0.4220
    4MOL   C145  931   7.655   0.376   7.467  0.0441  0.0747 -0.1721
    4MOL   C146  932   7.671   0.244   7.391  0.2323 -0.1448  0.0116
    4MOL   C147  933   7.688   0.227   7.256 -0.5388 -0.3736 -0.7519
    4MOL   C148  934   7.689   0.341   7.153  0.1446  0.2878 -0.4396
    4MOL   C149  935   7.704   0.086   7.197 -0.3561  0.4836  0.2458
    4MOL   H150  936   7.718   0.358   7.554  0.0708  2.6192  0.3582
    4MOL   H151  937   7.705   0.458   7.416 -1.0580  0.8949  0.0476
    4MOL   H152  938   7.675   0.155   7.452 -0.5945 -1.5562 -1.9126
    4MOL   H153  939   7.614   0.303   7.083 -0.0289 -2.2672  1.0725
    4MOL   H154  940   7.782   0.345   7.096  1.6073  1.6492  1.9663
    4MOL   H155  941   7.690   0.440   7.197  3.3212 -0.4326  1.2452
    4MOL   H156  942   7.758   0.026   7.271 -0.8862 -0.0425  0.1993
    4MOL   H157  943   7.774   0.089   7.114  0.6051  0.8735  1.0473
    4MOL   C158  944   7.577   0.016   7.170 -0.1960  0.1968 -0.1987
    4MOL   C159  945   7.587   7.769   7.098  0.0432 -0.2630  0.1304
    4MOL   C160  946   7.505   7.663   7.106 -0.5481 -0.5918  0.2849
    4MOL   C161  947   7.377   7.658   7.191  0.3379  0.1922 -0.2400
    4MOL   C162  948   7.533   7.538   7.022  0.1232 -0.6024 -0.3597
    4MOL   H163  949   7.515   0.084   7.111  1.6668  0.6259 -1.6889
    4MOL   H164  950   7.513   0.020   7.258 -0.4919  0.6339 -0.4346
    4MOL   H165  951   7.683   7.761   7.051 -0.7571  1.5773 -1.8860
    4MOL   H166  952   7.369   7.568   7.251  1.1447  0.2987  0.0386
    4MOL   H167  953   7.287   7.657   7.130  0.5194 -0.0226 -0.5053
    4MOL   H168  954   7.377   7.736   7.267 -0.1028 -0.4610  0.4390
    4MOL   H169  955   7.574   7.576   6.928 -0.8689 -0.6961 -0.8419
    4MOL   H170  956   7.438   7.493   6.994  0.1148  0.1303 -1.5464
    4MOL   C171  957   7.623   7.441   7.090 -0.1658  0.0757  0.0875
    4MOL   C172  958   7.632   7.311   7.022  1.1803  0.2176  0.3710
    4MOL   C173  959   7.682   7.192   7.072 -0.1289 -0.3024  0.0847
    4MOL   C174  960   7.725   7.174   7.210  0.4479  0.0798 -0.0066
    4MOL   C175  961   7.699   7.061   6.995 -0.3195  0.1181  0.3456
    4MOL   H176  962   7.592   7.417   7.192  1.3420  0.7299  0.7138
    4MOL   H177  963   7.723   7.483   7.099 -1.0446  2.1630  0.3888
    4MOL   H178  964   7.594   7.318   6.922  0.5008  1.7819  0.7217
    4MOL   H179  965   7.679   7.080   7.238 -0.3656 -0.5902 -3.3623
    4MOL   H180  966   7.699   7.255   7.278 -0.9548 -0.5858  0.2799
    4MOL   H181  967   7.832   7.161   7.222  0.1980 -1.4314  0.5800
    4MOL   H182  968   7.672   7.082   6.892 -0.8939  1.6773  0.7931
    4MOL   H183  969   7.639   6.982   7.040 -1.5037  0.0874 -1.2659
    4MOL   C184  970   7.844   6.993   7.005 -0.2781  0.2435  0.0566
    4MOL   C185  971   7.867   6.868   6.925  0.4325 -0.0284  0.2034
    4MOL   C186  972   0.081   6.785   6.957  0.3718  0.1578 -0.1356
    4MOL   C187  973   0.189   6.810   7.063 -0.2221  0.2121  0.7736
    4MOL   C188  974   0.104   6.658   6.876  0.6496 -0.4585  0.7788
    4MOL   H189  975   7.869   6.981   7.110  0.6784 -0.5626 -0.2568
    4MOL   H190  976   0.026   7.068   6.959  1.9353 -2.8321 -2.0595
    4MOL   H191  977   7.805   6.844   6.840  3.1110 -0.9286 -1.5402
    4MOL   H192  978   0.191   6.727   7.133  2.4912  0.2870  0.8285
    4MOL   H193  979   0.174   6.906   7.114 -2.8974  0.5140 -0.4995
    4MOL   H194  980   0.278   6.825   7.002 -1.4541  1.7842 -0.6863
    4MOL   H195  981   0.202   6.666   6.828 -0.2568 -0.7659 -1.1895
    4MOL   H196  982   0.033   6.642   6.795  1.6872 -3.9818  0.4832
    4MOL   C197  983   0.098   6.539   6.956 -0.2178  0.4304  0.0956
    4MOL   C198  984   0.137   6.411   6.880  0.5467 -0.1812 -0.9508
    4MOL   C199  985   0.055   6.308   6.844 -0.2925  0.1004  0.1341
    4MOL   C200  986   7.784   6.304   6.866  0.3843  0.0910  0.2382
    4MOL   C201  987   0.106   6.173   6.779  0.0293 -0.5989 -0.3794
    4MOL   H202  988   0.000   6.531   7.004  1.2835  1.0494  3.4255
    4MOL   H203  989   0.159   6.540   7.047 -2.0166  0.5297  1.3370
    4MOL   H204  990   0.244   6.413   6.864  0.3984  1.0155 -1.8999
    4MOL   H205  991   7.744   6.212   6.823  0.1894  0.0254  0.5533
    4MOL   H206  992   7.723   6.388   6.833 -0.3686 -0.5294  0.0441
    4MOL   H207  993   7.760   6.319   6.972 -1.7813  0.6519 -0.3137
    4MOL   H208  994   0.039   6.161   6.694 -0.7571  0.8000  0.0305
    4MOL   H209  995   0.097   6.087   6.846 -2.8358  1.3311  1.8262
    4MOL   C210  996   0.251   6.175   6.737 -0.2263 -0.1431  1.1155
    4MOL   C211  997   0.285   6.049   6.654  0.1345 -0.3444 -0.8137
    4MOL   C212  998   0.333   6.052   6.529  0.7457 -0.6659 -0.0464
    4MOL   C213  999   0.349   6.176   6.439  0.6061  0.0826 -0.0065
    4MOL   C214 1000   0.364   5.918   6.460  0.1445 -0.0909  0.1922
    4MOL   H215 1001   0.319   6.184   6.821  0.3580  1.9688  0.4244
    4MOL   H216 1002   0.265   6.265   6.678 -1.3217 -0.8084 -0.2000
    4MOL   H217 1003   0.279   5.958   6.713  0.8244 -0.2313 -0.5642
    4MOL   H218 1004   0.364   6.149   6.334  0.9821  0.9889 -0.1897
    4MOL   H219 1005   0.435   6.238   6.467  0.2527  1.1139 -1.1848
    4MOL   H220 1006   0.259   6.236   6.440  0.5331 -0.0243  2.4219
    4MOL   H221 1007   0.470   5.896   6.472 -0.0735 -0.1381  2.2127
    4MOL   H222 1008   0.349   5.929   6.352  2.2688  0.3836 -0.0706
    4MOL   C223 1009   0.294   5.783   6.513 -0.2137  0.2768 -0.3772
    4MOL   C224 1010   0.143   5.783   6.483 -0.0121  0.1040  0.8283
    4MOL   C225 1011   0.048   5.732   6.561  0.7278 -1.1712  0.1358
    4MOL   C226 1012   0.079   5.652   6.688 -0.5138 -0.9970  0.5625
    4MOL   C227 1013   7.780   5.761   6.540 -0.6074 -0.1591 -0.1998
    4MOL   H228 1014   0.307   5.782   6.621  2.6684  2.9370 -0.6143
    4MOL   H229 1015   0.355   5.709   6.462  0.2197  0.8853 -0.7496
    4MOL   H230 1016   0.120   5.839   6.394  2.3251  0.0682  0.1502
    4MOL   H231 1017   0.010   5.571   6.712 -1.9137  0.0358  0.0912
    4MOL   H232 1018   0.085   5.716   6.777 -2.7674  1.1497 -0.7849
    4MOL   H233 1019   0.173   5.601   6.664 -0.3159  0.2109 -1.3078
    4MOL   H234 1020   7.768   5.836   6.462  2.9203  0.4795 -0.2197
    4MOL   H235 1021   7.751   5.820   6.628  1.0300 -0.1751  0.3694
    4MOL   C236 1022   7.692   5.630   6.533  0.0967 -0.6369  0.9630
    4MOL   C237 1023   7.539   5.663   6.541 -1.1271  0.4455  0.2013
    4MOL   C238 1024   7.464   5.675   6.650 -0.3266 -0.2843 -0.2307
    4MOL   C239 1025   7.530   5.662   6.792  0.1901 -0.1903 -0.2056
    4MOL   C240 1026   7.318   5.709   6.651 -0.0857  0.2790 -0.3384
    4MOL   H241 1027   7.715   5.545   6.597 -1.0878 -1.0450  0.8694
    4MOL   H242 1028   7.689   5.590   6.432 -0.2936 -1.6803  1.3741
    4MOL   H243 1029   7.495   5.669   6.442  1.0483  2.1949 -0.7025
    4MOL   H244 1030   7.638   5.643   6.789  0.3192  0.1819  1.6271
    4MOL   H245 1031   7.484   5.582   6.849 -0.2827 -0.2586 -0.6776
    4MOL   H246 1032   7.510   5.754   6.846 -2.5656 -0.0002 -1.4862
    4MOL   H247 1033   7.316   5.801   6.709  2.4268 -0.8288  1.5875
    4MOL   H248 1034   7.257   5.639   6.709  0.5715 -0.7009 -0.8239
    4MOL   C249 1035   7.256   5.748   6.513 -0.3633 -0.7579  0.2570
    4MOL   C250 1036   7.139   5.844   6.533  0.1263  0.7199  0.6816
    4MOL   C251 1037   7.013   5.807   6.557  0.2075  0.3171 -0.5597
    4MOL   C252 1038   6.966   5.663   6.568  0.1200  0.2378 -0.1720
    4MOL   C253 1039   6.900   5.904   6.566 -0.7444 -0.0073  0.1228
    4MOL   H254 1040   7.219   5.657   6.465 -0.3357  0.3458 -1.9227
    4MOL   H255 1041   7.323   5.799   6.443 -1.4050 -1.1403 -1.0316
    4MOL   H256 1042   7.166   5.948   6.541 -0.0919  0.7849  0.5852
    4MOL   H257 1043   6.965   5.624   6.466  0.9560 -0.0938 -0.0551
    4MOL   H258 1044   6.874   5.641   6.621 -0.7754  0.4313 -1.6085
    4MOL   H259 1045   7.050   5.609   6.611 -2.0992 -2.0884  1.4060
    4MOL   H260 1046   6.857   5.898   6.666  0.5982  1.1674  0.7871
    4MOL   H261 1047   6.827   5.884   6.487  0.4089 -1.2924 -0.6510
    4MOL   H262 1048   6.932   6.008   6.557 -2.5953  0.6110  0.3487
    5MOL     C1 1049   3.792   4.385   7.429 -0.1679 -0.0492 -0.0596
    5MOL     C2 1050   3.705   4.500   7.478  0.5283 -0.5783  0.6317
    5MOL     C3 1051   3.750   4.602   7.552  0.5235  0.4412  0.0789
    5MOL     C4 1052   3.894   4.617   7.589 -0.4214 -0.4706  0.5073
    5MOL     C5 1053   3.649   4.718   7.594  0.7178  0.1839  0.0558
    5MOL     H6 1054   3.838   4.401   7.331  1.2329 -2.3912  0.1782
    5MOL     H7 1055   3.864   4.348   7.503  1.2472 -0.2268 -1.4886
    5MOL     H8 1056   3.603   4.468   7.460  0.5638 -0.3426 -0.0112
    5MOL     H9 1057   3.910   4.709   7.646  0.8277 -0.8084  0.7352
    5MOL    H10 1058   3.970   4.618   7.511 -0.4839 -0.7892  0.4404
    5MOL    H11 1059   3.922   4.531   7.651 -1.8778 -0.0254  1.8203
    5MOL    H12 1060   3.550   4.698   7.555  0.6829  0.1417  0.1651
    5MOL    H13 1061   3.697   4.807   7.555  0.3582  0.6488  0.6776
    5MOL    H14 1062   3.724   4.303   7.410 -1.7043  1.4362 -1.1315
    5MOL    C15 1063   3.628   4.719   7.747  0.9461 -0.1163  0.0579
    5MOL    C16 1064   3.583   4.585   7.795  0.0439  0.5905 -0.2983
    5MOL    C17 1065   3.629   4.516   0.023  0.7962  0.5645  0.0993
    5MOL    C18 1066   3.722   4.571   0.129 -0.0284 -0.4767 -0.3546
    5MOL    C19 1067   3.608   4.366   0.033 -0.5697  0.6598 -0.1914
    5MOL    H20 1068   3.548   4.791   7.767 -0.3762 -1.2536 -1.1015
    5MOL    H21 1069   3.714   4.750   7.808  1.6034 -0.7961 -0.5102
    5MOL    H22 1070   3.509   4.538   7.731 -0.5662 -0.1814  0.9479
    5MOL    H23 1071   3.818   4.544   0.084 -1.1185  0.5067 -3.4195
    5MOL    H24 1072   3.723   4.519   0.225 -1.7540 -1.7432 -0.9979
    5MOL    H25 1073   3.724   4.676   0.159 -0.5553  0.3719 -3.1693
    5MOL    H26 1074   3.536   4.339   7.839  0.9780 -0.5170 -1.2703
    5MOL    H27 1075   3.559   4.347   0.128 -2.2811 -1.8061 -1.5170
    5MOL    C28 1076   3.730   4.281   7.880  0.0397  0.1252 -0.4469
    5MOL    C29 1077   3.697   4.138   0.001  0.1077  0.6326  0.4324
    5MOL    C30 1078   3.683   4.055   0.104 -0.1145  0.2959 -0.1129
    5MOL    C31 1079   3.684   4.096   0.251  0.0407  0.0436 -0.0694
    5MOL    C32 1080   3.642   3.907   0.094  0.1007  0.1934  0.2606
    5MOL    H33 1081   3.813   4.297   0.066 -1.6732 -2.2600  2.3420
    5MOL    H34 1082   3.754   4.302   7.776  0.8095  0.7864 -0.1378
    5MOL    H35 1083   3.682   4.105   7.782  1.9919  0.8123  0.0730
    5MOL    H36 1084   3.584   4.127   0.281  0.7561  2.5808 -0.1201
    5MOL    H37 1085   3.737   4.190   0.267 -0.6484  0.2949  0.7598
    5MOL    H38 1086   3.718   4.018   0.319  0.4548 -1.5368 -2.0473
    5MOL    H39 1087   3.556   3.885   0.157 -1.1819  1.5751 -0.9626
    5MOL    H40 1088   3.723   3.845   0.132 -0.5352 -1.6899 -1.3845
    5MOL    C41 1089   3.596   3.857   7.831 -0.1705 -0.8258 -0.5213
    5MOL    C42 1090   3.585   3.710   7.843  0.3231 -0.3639  0.0132
    5MOL    C43 1091   3.647   3.621   7.766  0.3695  0.1046  0.2304
    5MOL    C44 1092   3.749   3.656   7.659  0.3053 -0.2134  0.6142
    5MOL    C45 1093   3.618   3.472   7.770 -0.3598 -0.0197  0.1792
    5MOL    H46 1094   3.675   3.903   7.770  0.8805 -0.3286  1.1892
    5MOL    H47 1095   3.499   3.896   7.802 -0.0012 -0.4605 -0.5993
    5MOL    H48 1096   3.522   3.659   0.033  2.6189  0.0516  2.3784
    5MOL    H49 1097   3.835   3.590   7.665 -0.4970 -1.4467 -1.0001
    5MOL    H50 1098   3.786   3.757   7.676  3.1611 -1.5692  2.6066
    5MOL    H51 1099   3.692   3.643   7.566 -0.4186 -1.3322  1.2031
    5MOL    H52 1100   3.581   3.450   7.669  0.8451  0.2718 -0.3363
    5MOL    H53 1101   3.528   3.456   7.828  0.1880  2.4710  1.8094
    5MOL    C54 1102   3.723   3.379   7.824  0.2993  0.7078 -0.1705
    5MOL    C55 1103   3.691   3.233   7.793 -0.6617  0.1153  0.5328
    5MOL    C56 1104   3.777   3.141   7.747 -0.0858  0.3495  0.3030
    5MOL    C57 1105   3.922   3.174   7.739 -0.5429 -0.3086  1.0335
    5MOL    C58 1106   3.739   2.995   7.713  0.4883 -0.1383  0.2127
    5MOL    H59 1107   3.729   3.400   0.048 -0.4719  1.2308 -0.2177
    5MOL    H60 1108   3.820   3.401   7.781 -0.2644 -2.0850 -3.1050
    5MOL    H61 1109   3.587   3.204   7.800 -0.4981 -0.3440  1.1932
    5MOL    H62 1110   3.929   3.256   7.667 -1.0815 -0.0891  1.2307
    5MOL    H63 1111   3.983   3.091   7.703 -2.7875 -2.9220  3.0712
    5MOL    H64 1112   3.960   3.203   7.837 -3.1924 -1.1120  2.3285
    5MOL    H65 1113   3.823   2.934   7.747  2.0809  2.0650  0.3876
    5MOL    H66 1114   3.734   2.983   7.605 -1.2172  0.0957  0.2566
    5MOL    C67 1115   3.610   2.942   7.777 -0.1665  0.0155  0.4071
    5MOL    C68 1116   3.621   2.934   0.048 -1.0067  0.1095 -0.0535
    5MOL    C69 1117   3.660   2.829   0.121 -0.0032 -0.2970  0.0078
    5MOL    C70 1118   3.716   2.703   0.061 -0.4695  0.0016 -0.6508
    5MOL    C71 1119   3.678   2.833   0.271  0.2038  0.7707 -0.6145
    5MOL    H72 1120   3.585   2.841   7.742  1.6300 -0.1432 -0.4502
    5MOL    H73 1121   3.532   3.014   7.754  0.8480  0.9340 -0.1669
    5MOL    H74 1122   3.588   3.022   0.102  1.7270  0.3674  1.3184
    5MOL    H75 1123   3.726   2.707   7.835 -0.6318  0.2033 -0.6587
    5MOL    H76 1124   3.652   2.620   0.088  1.8189 -1.4766  0.4299
    5MOL    H77 1125   3.818   2.679   0.092 -0.2258 -0.9856 -2.1589
    5MOL    H78 1126   3.656   2.741   0.325 -0.4355  1.3190  0.0703
    5MOL    H79 1127   3.599   2.900   0.305  2.1359  1.7235  2.1030
    5MOL    C80 1128   3.815   2.885   0.323 -0.2530 -0.2444  0.4144
    5MOL    C81 1129   3.810   2.941   0.466 -0.4122 -0.4510  0.2667
    5MOL    C82 1130   3.743   3.047   0.502  0.3675  0.3652 -0.1566
    5MOL    C83 1131   3.662   3.133   0.402 -0.1633 -0.2245 -0.3755
    5MOL    C84 1132   3.754   3.105   0.647 -0.2940  0.2377  0.4526
    5MOL    H85 1133   3.860   2.957   0.254 -1.5355 -0.8081 -1.0454
    5MOL    H86 1134   3.880   2.798   0.310  1.3531  1.1396 -1.1142
    5MOL    H87 1135   3.866   2.884   0.538  2.3262 -0.0310 -1.4707
    5MOL    H88 1136   3.559   3.099   0.411  0.2216 -1.0623  1.0487
    5MOL    H89 1137   3.690   3.104   0.301 -0.1324  0.5570 -0.5908
    5MOL    H90 1138   3.668   3.240   0.420  0.3780 -0.5118  1.2515
    5MOL    H91 1139   3.789   3.206   0.625  0.8195 -0.5929 -1.7665
    5MOL    H92 1140   3.840   3.059   0.695  0.4741  1.9791  0.8086
    5MOL    C93 1141   3.618   3.111   0.717  1.2268  0.3744 -0.2665
    5MOL    C94 1142   3.624   3.178   0.857 -0.2773  0.4204  0.4593
    5MOL    C95 1143   3.631   3.310   0.885  0.3058  0.2618  0.1411
    5MOL    C96 1144   3.613   3.415   0.766 -0.0102  0.4043 -0.1159
    5MOL    C97 1145   3.656   3.375   1.023 -0.2563 -0.0095  0.5444
    5MOL    H98 1146   3.565   3.016   0.706 -0.3592  1.1764  0.2706
    5MOL    H99 1147   3.546   3.165   0.655 -1.3643 -1.9401  0.5828
    5MOL   H100 1148   3.640   3.118   0.945 -1.2751  0.7131  0.8399
    5MOL   H101 1149   3.511   3.453   0.775 -0.6425 -1.0397 -1.0676
    5MOL   H102 1150   3.600   3.375   0.666 -2.3619  1.6753 -0.3675
    5MOL   H103 1151   3.685   3.497   0.763  2.5840 -1.6306  3.0732
    5MOL   H104 1152   3.751   3.428   1.016  0.1450 -0.3547  2.7855
    5MOL   H105 1153   3.669   3.300   1.101  1.1632  1.3828  1.6725
    5MOL   C106 1154   3.541   3.458   1.074 -0.3395 -0.0155  0.5792
    5MOL   C107 1155   3.402   3.402   1.058  0.3066  0.6031 -0.3815
    5MOL   C108 1156   3.283   3.467   1.059 -0.2224 -0.4057 -0.1651
    5MOL   C109 1157   3.268   3.613   1.105 -0.4626 -0.1654 -0.2890
    5MOL   C110 1158   3.143   3.399   1.042  0.3972  0.3286 -0.3700
    5MOL   H111 1159   3.539   3.554   1.022  0.5091  0.0548  0.6667
    5MOL   H112 1160   3.558   3.461   1.182 -1.7219  1.9566  0.7582
    5MOL   H113 1161   3.394   3.297   1.032 -1.4472  1.3609 -3.1117
    5MOL   H114 1162   3.197   3.591   1.185  0.5238 -0.6390  0.4797
    5MOL   H115 1163   3.222   3.688   1.041  1.7432 -1.6172 -3.7060
    5MOL   H116 1164   3.361   3.651   1.149  0.8337 -1.5205 -1.7967
    5MOL   H117 1165   3.108   3.376   1.142  0.1327  1.1918 -0.2558
    5MOL   H118 1166   3.163   3.305   0.991  2.3763  0.2370  0.5366
    5MOL   C119 1167   3.044   3.480   0.953  0.0090  0.0772  0.0678
    5MOL   C120 1168   2.911   3.412   0.900 -0.2808  0.7288  0.9177
    5MOL   C121 1169   2.808   3.476   0.829  0.3492 -0.2457  0.5246
    5MOL   C122 1170   2.792   3.628   0.816 -1.0597  0.4494 -0.2770
    5MOL   C123 1171   2.693   3.401   0.760  0.2696  0.3580 -0.0508
    5MOL   H124 1172   3.104   3.509   0.867 -0.3682 -0.5173 -0.4013
    5MOL   H125 1173   3.013   3.568   1.009 -0.5635 -0.4903  0.6706
    5MOL   H126 1174   2.917   3.304   0.909 -3.2896  0.4344 -0.1996
    5MOL   H127 1175   2.694   3.675   0.815 -1.2239  0.2683  2.3754
    5MOL   H128 1176   2.855   3.657   0.732 -1.2930  0.5534 -0.4146
    5MOL   H129 1177   2.839   3.673   0.903  0.2752 -1.7567  0.1943
    5MOL   H130 1178   2.597   3.429   0.805  1.2772  0.2518  2.2560
    5MOL   H131 1179   2.708   3.297   0.789 -0.3673  0.0939 -0.6625
    5MOL   C132 1180   2.699   3.409   0.612 -1.0231  0.1032 -0.0566
    5MOL   C133 1181   2.592   3.335   0.545 -0.0758  0.5342  0.9573
    5MOL   C134 1182   2.586   3.229   0.463 -0.8918  0.1760  0.5183
    5MOL   C135 1183   2.704   3.152   0.418  0.2042 -0.2209 -0.4838
    5MOL   C136 1184   2.447   3.191   0.417 -0.1253 -0.0282 -0.5635
    5MOL   H137 1185   2.795   3.369   0.581 -1.0508  0.3476 -0.4675
    5MOL   H138 1186   2.693   3.515   0.584  2.3764 -0.1171 -1.9213
    5MOL   H139 1187   2.499   3.388   0.552 -0.2417  0.4754 -0.7930
    5MOL   H140 1188   2.697   3.141   0.309  2.5366 -0.3942 -0.6439
    5MOL   H141 1189   2.692   3.050   0.456 -1.1272 -0.0586 -0.4233
    5MOL   H142 1190   2.803   3.187   0.446  0.4226 -0.5664 -0.8229
    5MOL   H143 1191   2.459   3.171   0.310 -0.2250 -0.9592 -0.4045
    5MOL   H144 1192   2.370   3.268   0.412 -2.9261 -2.7826 -1.9255
    5MOL   C145 1193   2.397   3.067   0.491 -0.1249 -0.7227  0.6128
    5MOL   C146 1194   2.366   3.090   0.640 -0.6304  0.1002 -0.4612
    5MOL   C147 1195   2.448   3.076   0.747  0.2527  0.0700  0.8895
    5MOL   C148 1196   2.588   3.024   0.738 -0.3028 -0.0318 -0.0331
    5MOL   C149 1197   2.396   3.111   0.889  0.6338 -0.6672  0.2202
    5MOL   H150 1198   2.463   2.981   0.478 -0.2423 -0.8920  1.1219
    5MOL   H151 1199   2.304   3.025   0.453  0.1150 -0.7778  0.0847
    5MOL   H152 1200   2.268   3.128   0.668  0.3404  1.4704  1.1950
    5MOL   H153 1201   2.582   2.916   0.743 -4.2264  0.0162 -2.4034
    5MOL   H154 1202   2.650   3.045   0.826 -1.5940  2.9209  0.2204
    5MOL   H155 1203   2.650   3.061   0.656 -0.8261  0.7506 -0.0841
    5MOL   H156 1204   2.441   3.042   0.960 -2.2914 -1.2715  1.5460
    5MOL   H157 1205   2.292   3.078   0.892  1.0092 -2.2183 -2.1432
    5MOL   C158 1206   2.410   3.252   0.931 -0.0180  0.1024  0.1433
    5MOL   C159 1207   2.330   3.294   1.053  0.0770  0.1024 -0.4766
    5MOL   C160 1208   2.243   3.398   1.064  0.0996  0.1527 -0.2604
    5MOL   C161 1209   2.212   3.476   0.939 -0.0137  0.0216 -0.2037
    5MOL   C162 1210   2.160   3.436   1.191  0.3725 -0.8597  0.6564
    5MOL   H163 1211   2.379   3.316   0.848  0.4108 -0.9904 -0.8864
    5MOL   H164 1212   2.515   3.273   0.948 -0.3872  0.6637  1.8375
    5MOL   H165 1213   2.330   3.232   1.141  0.6699  1.4966  0.5225
    5MOL   H166 1214   2.194   3.407   0.856  0.3827  1.2583 -1.3296
    5MOL   H167 1215   2.282   3.555   0.916  0.3553 -1.0650 -3.0391
    5MOL   H168 1216   2.115   3.525   0.947 -0.4527 -0.5786 -1.5269
    5MOL   H169 1217   2.179   3.359   1.266  3.0186  1.3301  2.3398
    5MOL   H170 1218   2.054   3.416   1.174 -0.0545  2.1716 -0.6762
    5MOL   C171 1219   2.183   3.578   1.239 -0.4651  0.4785 -0.5479
    5MOL   C172 1220   2.334   3.608   1.255 -0.3240 -0.5673  0.1891
    5MOL   C173 1221   2.399   3.728   1.242  0.1344 -0.3594 -0.6409
    5MOL   C174 1222   2.326   3.851   1.196 -0.3038  0.4348 -0.1628
    5MOL   C175 1223   2.551   3.733   1.264 -0.1867  0.6818  0.5479
    5MOL   H176 1224   2.146   3.584   1.341  0.6108 -0.7782 -0.0779
    5MOL   H177 1225   2.136   3.652   1.174 -0.4347 -0.6196 -1.8660
    5MOL   H178 1226   2.391   3.519   1.279  1.7449  0.7672  0.4087
    5MOL   H179 1227   2.364   3.930   1.259 -2.5904  1.4533 -0.0066
    5MOL   H180 1228   2.217   3.855   1.209 -0.3800  0.8833 -0.8796
    5MOL   H181 1229   2.343   3.875   1.091  0.8812 -0.9844 -0.3112
    5MOL   H182 1230   2.592   3.633   1.277  1.1126  1.3557  1.8442
    5MOL   H183 1231   2.571   3.799   1.348 -0.9748  0.7352  0.6954
    5MOL   C184 1232   2.630   3.792   1.152  0.4889 -0.1061 -0.5970
    5MOL   C185 1233   2.779   3.789   1.178 -0.0378 -0.0069  0.2239
    5MOL   C186 1234   2.867   3.888   1.213  0.2515 -0.7561 -0.5831
    5MOL   C187 1235   2.829   4.034   1.245  0.1405 -0.5051  0.3761
    5MOL   C188 1236   3.012   3.851   1.226 -0.1345 -0.5143 -0.6304
    5MOL   H189 1237   2.598   3.896   1.146 -1.8434 -0.7956 -0.4184
    5MOL   H190 1238   2.608   3.748   1.055  1.1232 -0.9119 -0.3832
    5MOL   H191 1239   2.817   3.688   1.179 -1.7061 -0.6521  0.4717
    5MOL   H192 1240   2.728   4.046   1.206  0.8487  0.1628 -1.2885
    5MOL   H193 1241   2.889   4.110   1.196 -1.3528  1.6612  1.8313
    5MOL   H194 1242   2.831   4.052   1.353 -1.9939  0.6205  0.2618
    5MOL   H195 1243   3.056   3.916   1.151 -0.0268 -2.6654 -2.4815
    5MOL   H196 1244   3.023   3.750   1.187  2.5945  0.3106 -2.1250
    5MOL   C197 1245   3.074   3.859   1.369  0.0566 -0.2275  0.5688
    5MOL   C198 1246   3.211   3.798   1.369 -0.3077 -0.0124 -0.7704
    5MOL   C199 1247   3.326   3.856   1.330  0.3403 -0.1619 -0.3607
    5MOL   C200 1248   3.331   3.998   1.273  0.0420 -0.2457  0.1575
    5MOL   C201 1249   3.465   3.791   1.345  0.6576  0.0701  0.0549
    5MOL   H202 1250   3.011   3.816   1.447 -3.3596  2.9509 -0.2597
    5MOL   H203 1251   3.079   3.965   1.395  3.2809 -0.8752  2.8584
    5MOL   H204 1252   3.214   3.705   1.423  0.4665 -0.6144 -1.8409
    5MOL   H205 1253   3.234   4.033   1.239 -0.2343 -1.4726 -0.3522
    5MOL   H206 1254   3.379   4.001   1.175 -1.0246 -1.0355 -0.4062
    5MOL   H207 1255   3.383   4.067   1.338 -1.7012  0.5557  0.7200
    5MOL   H208 1256   3.518   3.788   1.250 -1.0721 -1.4628 -0.9044
    5MOL   H209 1257   3.450   3.691   1.386 -0.8035  0.0804 -0.4370
    5MOL   C210 1258   3.544   3.856   1.457  0.8348  0.4253 -0.6388
    5MOL   C211 1259   3.668   3.780   1.496 -0.4468  0.2360 -0.2154
    5MOL   C212 1260   3.681   3.693   1.596 -0.1452 -0.7967 -0.4170
    5MOL   C213 1261   3.569   3.657   1.695  0.3143  0.0490 -0.1884
    5MOL   C214 1262   3.815   3.625   1.619  0.1986 -0.0742 -1.0385
    5MOL   H215 1263   3.482   3.879   1.543 -1.4733 -1.9522 -1.6145
    5MOL   H216 1264   3.579   3.950   1.415 -0.6302  0.6027 -1.4860
    5MOL   H217 1265   3.749   3.794   1.426  0.5990  1.6382  1.2408
    5MOL   H218 1266   3.593   3.720   1.781 -1.4712 -0.3628  0.6375
    5MOL   H219 1267   3.559   3.558   1.738  0.7164 -0.0145 -0.2452
    5MOL   H220 1268   3.469   3.692   1.670  0.3008  0.6227  0.6289
    5MOL   H221 1269   3.861   3.654   1.713  1.9481  0.9408 -2.1740
    5MOL   H222 1270   3.888   3.675   1.555 -0.5144  2.0288 -0.2536
    5MOL   C223 1271   3.804   3.473   1.582 -0.2544  0.7399 -0.6669
    5MOL   C224 1272   3.945   3.406   1.591  0.3414  0.3804 -0.6272
    5MOL   C225 1273   4.006   3.322   1.505  0.5251  0.3895 -0.1779
    5MOL   C226 1274   3.957   3.284   1.367 -0.5234  0.4892  0.2593
    5MOL   C227 1275   4.136   3.266   1.542 -0.7149 -0.2417  0.7197
    5MOL   H228 1276   3.776   3.463   1.477  2.0507 -2.0116 -1.1078
    5MOL   H229 1277   3.728   3.423   1.642  0.3588  0.3825 -0.1795
    5MOL   H230 1278   3.983   3.404   1.692 -0.6549 -0.1480 -0.2604
    5MOL   H231 1279   3.852   3.314   1.359 -1.1158 -1.6713 -0.1966
    5MOL   H232 1280   3.952   3.178   1.344 -0.9674  0.0684  2.2162
    5MOL   H233 1281   4.010   3.342   1.292 -2.1003 -0.5053 -1.6618
    5MOL   H234 1282   4.181   3.319   1.627  0.4146  0.2025 -0.1339
    5MOL   H235 1283   4.196   3.298   1.457 -0.2010 -1.0375  0.7841
    5MOL   C236 1284   4.128   3.112   1.573 -0.2838  0.5944  0.4677
    5MOL   C237 1285   4.259   3.053   1.630 -0.2717  0.6727  0.0994
    5MOL   C238 1286   4.338   2.959   1.575 -0.1138 -0.5459 -0.4625
    5MOL   C239 1287   4.288   2.887   1.452  0.1427 -0.5831  0.1920
    5MOL   C240 1288   4.461   2.896   1.647  0.4547  0.1602 -0.1318
    5MOL   H241 1289   4.098   3.059   1.482 -2.1197  0.6217  1.0408
    5MOL   H242 1290   4.037   3.094   1.630 -0.1939 -1.9332 -0.1289
    5MOL   H243 1291   4.299   3.110   1.713  2.8045 -0.6924 -0.3859
    5MOL   H244 1292   4.244   2.944   1.370  1.0551 -1.2262 -0.7702
    5MOL   H245 1293   4.202   2.823   1.472 -0.4570 -1.0747 -3.4742
    5MOL   H246 1294   4.359   2.814   1.412 -0.3915 -1.1379  0.2443
    5MOL   H247 1295   4.440   2.790   1.660 -0.5376  0.2934 -0.5940
    5MOL   H248 1296   4.474   2.921   1.752  3.3592 -1.2363 -0.1089
    5MOL   C249 1297   4.594   2.908   1.580  0.4010 -0.3343 -0.1197
    5MOL   C250 1298   4.705   2.891   1.692  1.2442 -0.6910 -0.1358
    5MOL   C251 1299   4.819   2.960   1.695 -0.1377  0.3541  0.1303
    5MOL   C252 1300   4.874   3.056   1.589  0.3138  0.3325  0.6008
    5MOL   C253 1301   4.907   2.950   1.818  0.5029 -0.4655  0.2151
    5MOL   H254 1302   4.607   3.000   1.522 -0.5178 -0.6886 -0.8997
    5MOL   H255 1303   4.608   2.829   1.507 -1.0555  0.5022 -1.3268
    5MOL   H256 1304   4.678   2.826   1.773 -0.5136  2.3790  1.8529
    5MOL   H257 1305   4.797   3.081   1.516  0.6398 -1.0966 -0.2425
    5MOL   H258 1306   4.951   3.000   1.537  0.3589  0.6595  0.3186
    5MOL   H259 1307   4.908   3.146   1.640 -0.2085  0.2148  1.1700
    5MOL   H260 1308   5.008   2.939   1.779  0.4415  0.5334 -0.2367
    5MOL   H261 1309   4.879   2.869   1.885  2.2917 -0.3833  1.1201
    5MOL   H262 1310   4.900   3.042   1.877 -0.2595 -0.0725 -0.4813
    6MOL     C1 1311   2.881   6.745   4.221 -0.1236 -0.8278  0.6608
    6MOL     C2 1312   2.800   6.798   4.334 -0.4697  0.7742 -0.7865
    6MOL     C3 1313   2.785   6.924   4.377 -0.2932 -0.5700  0.7616
    6MOL     C4 1314   2.863   7.046   4.313 -0.0772 -0.1182 -0.2890
    6MOL     C5 1315   2.689   6.968   4.491 -0.2871  0.7699  1.1205
    6MOL     H6 1316   2.819   6.708   4.140 -0.0968 -0.6427  0.5563
    6MOL     H7 1317   2.967   6.807   4.196  0.7736 -2.1247  0.4428
    6MOL     H8 1318   2.747   6.723   4.391  1.4318  0.4070  0.5635
    6MOL     H9 1319   2.789   7.121   4.288  1.9772  1.9354 -0.3790
    6MOL    H10 1320   2.914   7.030   4.218  0.7561  0.3909  0.0628
    6MOL    H11 1321   2.921   7.096   4.391 -1.3943  0.5080  0.3100
    6MOL    H12 1322   2.591   6.922   4.478  0.7411 -1.3710  0.6930
    6MOL    H13 1323   2.663   7.071   4.470 -1.3346  0.1174 -1.0251
    6MOL    H14 1324   2.933   6.659   4.265  1.3440  0.4355  1.4516
    6MOL    C15 1325   2.758   6.939   4.626  0.0509  0.5553  0.4378
    6MOL    C16 1326   2.667   6.987   4.737  0.0757 -0.4270  0.4798
    6MOL    C17 1327   2.701   7.025   4.857  1.0673 -0.3693 -0.0097
    6MOL    C18 1328   2.841   7.015   4.912 -0.4721 -0.0710  0.3779
    6MOL    C19 1329   2.606   7.084   4.963  0.0250 -0.4092 -0.0930
    6MOL    H20 1330   2.857   6.985   4.627  0.1290  0.3797  0.8201
    6MOL    H21 1331   2.780   6.834   4.642  0.5862  0.6836  0.5776
    6MOL    H22 1332   2.562   6.991   4.709 -0.0166  1.9100  1.0362
    6MOL    H23 1333   2.847   7.040   5.018  1.7447  0.0575  0.2487
    6MOL    H24 1334   2.905   7.085   4.858  1.6730 -3.3184 -1.4270
    6MOL    H25 1335   2.880   6.914   4.907 -1.8203 -0.5818 -0.0704
    6MOL    H26 1336   2.626   7.036   5.059  2.5474  1.9180  0.6201
    6MOL    H27 1337   2.506   7.055   4.931  0.3183  0.1257 -1.5357
    6MOL    C28 1338   2.616   7.238   4.983  0.4791 -0.0448 -0.4546
    6MOL    C29 1339   2.504   7.284   5.066  0.0651 -0.5199 -0.1964
    6MOL    C30 1340   2.431   7.398   5.039  0.2512 -0.6806 -0.2499
    6MOL    C31 1341   2.445   7.483   4.916  0.2336  0.7865  0.3418
    6MOL    C32 1342   2.317   7.448   5.138 -0.1823 -0.4554  0.2100
    6MOL    H33 1343   2.599   7.282   4.885 -0.5635 -1.6414 -1.0231
    6MOL    H34 1344   2.714   7.255   5.028  0.0886  0.7302  0.0963
    6MOL    H35 1345   2.487   7.223   5.153  0.5369 -1.6690 -0.9046
    6MOL    H36 1346   2.441   7.426   4.822  2.1047  0.3260  0.5098
    6MOL    H37 1347   2.540   7.536   4.909  2.0929 -2.4140  0.3730
    6MOL    H38 1348   2.371   7.563   4.916 -0.5685  0.0927 -1.7249
    6MOL    H39 1349   2.244   7.368   5.138 -1.3537  0.5609 -1.9067
    6MOL    H40 1350   2.264   7.533   5.097 -1.6097 -1.1505  0.5821
    6MOL    C41 1351   2.370   7.476   5.280 -0.2145 -0.2131 -0.4723
    6MOL    C42 1352   2.264   7.538   5.364 -0.1148 -0.1928 -0.2373
    6MOL    C43 1353   2.182   7.475   5.454 -0.1151  0.3619 -0.2369
    6MOL    C44 1354   2.200   7.335   5.504 -0.4383  0.6611 -0.3147
    6MOL    C45 1355   2.090   7.559   5.546 -0.1601  0.3364 -0.1663
    6MOL    H46 1356   2.456   7.542   5.273  0.0888 -0.2278  2.5619
    6MOL    H47 1357   2.408   7.386   5.329 -1.4670 -0.7350 -0.4536
    6MOL    H48 1358   2.251   7.644   5.347  1.4440  0.2784  1.4489
    6MOL    H49 1359   2.259   7.275   5.434 -0.7040  3.2634 -2.8638
    6MOL    H50 1360   2.103   7.291   5.528  0.1539 -1.1962 -1.2572
    6MOL    H51 1361   2.260   7.330   5.595  0.4136  2.5298 -0.7425
    6MOL    H52 1362   2.159   7.564   5.630  0.2443  1.0289 -0.5412
    6MOL    H53 1363   2.005   7.499   5.579 -1.5137  0.9093 -2.5029
    6MOL    C54 1364   2.053   7.709   5.525 -1.0560  0.0144  0.9013
    6MOL    C55 1365   1.941   7.755   5.614 -0.5787  0.1953  0.1042
    6MOL    C56 1366   1.921   7.879   5.666 -0.5585  0.4173  0.0086
    6MOL    C57 1367   2.005   0.118   5.631 -0.5505 -0.1595 -0.6402
    6MOL    C58 1368   1.795   0.027   5.749 -0.3611 -0.5591  0.4782
    6MOL    H59 1369   2.013   7.724   5.425  1.0304  0.0054  0.0435
    6MOL    H60 1370   2.138   7.774   5.548 -2.5701  2.1129  0.6852
    6MOL    H61 1371   1.872   7.680   5.649 -0.8274 -0.0885 -0.9576
    6MOL    H62 1372   2.072   0.146   5.712  2.4194  0.6627 -3.2950
    6MOL    H63 1373   1.937   0.198   5.604 -0.7917  0.2882  1.2786
    6MOL    H64 1374   2.076   0.104   5.549  0.3838 -2.2583  0.4674
    6MOL    H65 1375   1.727   7.825   5.746 -1.4985  0.3972 -1.5080
    6MOL    H66 1376   1.758   0.111   5.690  2.0217  1.8593  2.3284
    6MOL    C67 1377   1.817   0.079   5.886 -0.2402 -0.1745 -0.3480
    6MOL    C68 1378   1.681   0.138   5.941  0.7194  0.0476 -0.3709
    6MOL    C69 1379   1.620   0.105   6.056 -0.4563  0.0624  0.1002
    6MOL    C70 1380   1.664   7.880   6.153  0.1739 -0.5013  0.0077
    6MOL    C71 1381   1.484   0.163   6.091  0.4977 -0.5162  0.6514
    6MOL    H72 1382   1.892   0.158   5.881  1.4480 -1.6432  1.4299
    6MOL    H73 1383   1.856   0.001   5.950 -1.9171 -0.4261  0.3931
    6MOL    H74 1384   1.637   0.209   5.873 -1.4211 -0.6604  0.2523
    6MOL    H75 1385   1.752   7.834   6.110  0.1758 -0.4521 -0.0404
    6MOL    H76 1386   1.597   7.795   6.160  0.7847 -1.0786 -1.0615
    6MOL    H77 1387   1.693   0.032   6.252 -0.3130  0.5485 -0.2000
    6MOL    H78 1388   1.475   0.260   6.041 -1.6306  0.1540  2.2394
    6MOL    H79 1389   1.483   0.193   6.196 -0.6482  2.0445 -0.0388
    6MOL    C80 1390   1.358   0.073   6.065  0.2785 -0.0326  0.4489
    6MOL    C81 1391   1.292   0.020   6.192  0.0866  0.2325 -0.5467
    6MOL    C82 1392   1.178   0.068   6.249 -0.4973  0.1216  0.0057
    6MOL    C83 1393   1.123   0.199   6.200 -0.0096 -0.4606  0.3779
    6MOL    C84 1394   1.094   7.877   6.357 -0.3662 -0.1956  0.4111
    6MOL    H85 1395   1.385   7.874   5.999  0.1836  0.4895 -0.2420
    6MOL    H86 1396   1.286   0.126   6.003  0.5868 -0.8578 -0.6105
    6MOL    H87 1397   1.342   7.818   6.237 -0.4634  0.6903  0.9360
    6MOL    H88 1398   1.117   0.276   6.277 -2.8466  0.3752 -0.5803
    6MOL    H89 1399   1.021   0.191   6.162  0.0903  3.7205 -1.1048
    6MOL    H90 1400   1.178   0.243   6.117 -2.0957  3.6595  1.0172
    6MOL    H91 1401   0.991   7.875   6.324 -0.0393 -3.8868 -0.6229
    6MOL    H92 1402   1.094   0.052   6.449 -0.9371 -0.3950  0.5397
    6MOL    C93 1403   1.143   7.738   6.401  0.2962  0.0748 -1.4195
    6MOL    C94 1404   1.039   7.684   6.494 -0.3056  0.2831  0.7044
    6MOL    C95 1405   1.059   7.663   6.627  0.3939  0.6767  0.7108
    6MOL    C96 1406   1.188   7.685   6.694 -0.5495 -0.0669  0.2707
    6MOL    C97 1407   0.956   7.583   6.715  0.4174  0.6034  0.4478
    6MOL    H98 1408   1.238   7.745   6.453  0.6735 -0.6973 -1.9920
    6MOL    H99 1409   1.146   7.667   6.318  0.0573 -2.5405  0.7358
    6MOL   H100 1410   0.944   7.654   6.453  0.1688  0.2833 -0.4226
    6MOL   H101 1411   1.238   7.775   6.658 -0.0384  0.2035  1.6116
    6MOL   H102 1412   1.256   7.602   6.675  0.6948  0.5254  1.9826
    6MOL   H103 1413   1.172   7.700   6.801 -1.1019  0.9349  0.0501
    6MOL   H104 1414   1.015   7.503   6.759  0.5115  0.3648 -0.1050
    6MOL   H105 1415   0.887   7.531   6.648  0.6341  0.2373  0.5071
    6MOL   C106 1416   0.872   7.668   6.808 -0.0334 -0.2218 -0.2246
    6MOL   C107 1417   0.903   7.655   6.954 -0.5098  0.1397  0.1863
    6MOL   C108 1418   0.818   7.677   7.058 -0.3661  0.2387 -0.1880
    6MOL   C109 1419   0.673   7.715   7.042 -0.7546  0.0121  0.1390
    6MOL   C110 1420   0.856   7.627   7.197  0.1585  0.1076 -0.0163
    6MOL   H111 1421   0.767   7.640   6.797  0.4183 -3.4357  2.6442
    6MOL   H112 1422   0.872   7.770   6.770 -1.1048 -0.1985 -0.1741
    6MOL   H113 1423   1.005   7.625   6.973 -0.0830 -0.0034 -2.1530
    6MOL   H114 1424   0.660   7.778   6.954  0.4784 -0.2434 -0.2291
    6MOL   H115 1425   0.638   7.783   7.120  1.1001 -0.0060  1.0117
    6MOL   H116 1426   0.613   7.624   7.037  0.6773 -1.0803  2.4504
    6MOL   H117 1427   0.931   7.549   7.190 -0.1864 -0.0166 -2.6156
    6MOL   H118 1428   0.770   7.583   7.249  0.6664 -0.7720  0.0941
    6MOL   C119 1429   0.908   7.738   7.293 -0.2492 -0.1660 -0.5109
    6MOL   C120 1430   1.057   7.780   7.269 -0.2641 -0.7288 -0.1802
    6MOL   C121 1431   1.105   0.016   7.214  0.4306 -0.0940 -0.1081
    6MOL   C122 1432   1.008   0.133   7.182  0.6411 -0.2905  0.0880
    6MOL   C123 1433   1.247   0.042   7.181  0.0469  0.2743 -0.1337
    6MOL   H124 1434   0.904   7.698   7.394  1.9944 -2.8007 -1.4129
    6MOL   H125 1435   0.843   7.824   7.277 -0.4883 -0.2216  0.1346
    6MOL   H126 1436   1.125   7.697   7.277  0.6997  0.1108  0.5188
    6MOL   H127 1437   1.021   0.210   7.259 -2.1664  0.3621 -0.0292
    6MOL   H128 1438   0.902   0.111   7.169  0.9470 -1.2609 -0.8773
    6MOL   H129 1439   1.038   0.173   7.085 -2.1487  2.3149  0.2163
    6MOL   H130 1440   1.320   0.017   7.259 -0.4545 -0.2027  0.1903
    6MOL   H131 1441   1.256   0.150   7.175  2.5554  0.0858 -0.1498
    6MOL   C132 1442   1.297   7.880   7.040  0.2883 -0.2184  0.5160
    6MOL   C133 1443   1.410   0.098   6.994 -0.2546  0.4012  1.0121
    6MOL   C134 1444   1.425   0.175   6.885  0.2489  0.3724 -0.0737
    6MOL   C135 1445   1.326   0.170   6.766 -0.5509  0.8103 -0.1833
    6MOL   C136 1446   1.532   0.270   6.867 -0.5716 -0.0209 -0.3285
    6MOL   H137 1447   1.218   7.867   6.966  1.2581 -0.3442 -0.5137
    6MOL   H138 1448   1.342   7.781   7.039 -0.3844 -0.5411  1.4139
    6MOL   H139 1449   1.492   0.096   7.065  0.1136 -0.9856  0.5610
    6MOL   H140 1450   1.237   0.107   6.766 -1.2477  1.7761 -1.0420
    6MOL   H141 1451   1.383   0.141   6.677  0.6804  0.8493  0.5847
    6MOL   H142 1452   1.288   0.272   6.764  1.3328  1.5515  0.6626
    6MOL   H143 1453   1.579   0.298   6.962 -0.4820 -0.4939 -0.2359
    6MOL   H144 1454   1.488   0.367   6.844  0.8571  1.2121  1.9325
    6MOL   C145 1455   1.643   0.234   6.764 -0.1354  0.2098  1.0153
    6MOL   C146 1456   1.764   0.314   6.769  0.2337 -0.4239  0.4642
    6MOL   C147 1457   1.884   0.282   6.819  0.3965 -0.2560  0.4783
    6MOL   C148 1458   1.902   0.153   6.896 -0.8291  0.2520  0.2843
    6MOL   C149 1459   2.007   0.366   6.781 -0.5551 -0.3085 -0.1699
    6MOL   H150 1460   1.598   0.211   6.667  3.7796  1.0181 -1.0543
    6MOL   H151 1461   1.674   0.133   6.791  0.5209  0.5567  1.5619
    6MOL   H152 1462   1.750   0.407   6.715 -4.4451 -0.8567  0.7337
    6MOL   H153 1463   1.973   0.176   6.975  0.0419 -0.8807 -0.1602
    6MOL   H154 1464   1.945   0.064   6.850 -2.2976 -1.1158  1.5088
    6MOL   H155 1465   1.807   0.119   6.939 -0.3867 -1.6316 -0.2003
    6MOL   H156 1466   1.999   0.428   6.692 -1.9552 -2.1806 -1.3655
    6MOL   H157 1467   2.095   0.306   6.757 -0.7317 -0.3978 -0.5909
    6MOL   C158 1468   2.051   0.453   6.896  0.2238  0.9282  0.0412
    6MOL   C159 1469   2.191   0.500   6.878 -0.3544  0.0271  0.2942
    6MOL   C160 1470   2.291   0.499   6.975 -0.0702 -0.0142  0.6977
    6MOL   C161 1471   2.261   0.445   7.113 -0.8005  0.3461 -0.7154
    6MOL   C162 1472   2.429   0.558   6.953 -1.1232  0.1979  0.2044
    6MOL   H163 1473   2.036   0.406   6.993 -0.7266  0.0182 -0.5303
    6MOL   H164 1474   1.984   0.539   6.903 -0.5945  0.2078  1.2020
    6MOL   H165 1475   2.203   0.547   6.782  0.1818  1.9032  1.2426
    6MOL   H166 1476   2.170   0.485   7.156  1.4771  0.3226  4.5189
    6MOL   H167 1477   2.340   0.475   7.182  0.5136 -0.6446 -1.7642
    6MOL   H168 1478   2.265   0.336   7.111  0.9073  0.3483  1.2148
    6MOL   H169 1479   2.436   0.637   7.028  1.6933  1.3563 -1.1887
    6MOL   H170 1480   2.438   0.616   6.861  0.4802  0.1011  0.2981
    6MOL   C171 1481   2.540   0.455   6.964 -0.4018 -0.2502 -0.4157
    6MOL   C172 1482   2.524   0.358   6.846 -0.2317  0.3152  0.1450
    6MOL   C173 1483   2.568   0.230   6.851  0.5502  0.5087  0.5837
    6MOL   C174 1484   2.650   0.173   6.964 -0.1490 -0.7719  0.6302
    6MOL   C175 1485   2.543   0.125   6.735  0.4473 -0.0164  0.7176
    6MOL   H176 1486   2.535   0.400   7.058 -1.6534 -1.2822 -1.0726
    6MOL   H177 1487   2.634   0.510   6.958 -0.3391 -0.2618  0.3973
    6MOL   H178 1488   2.463   0.387   6.762 -0.3352 -0.1923  0.0396
    6MOL   H179 1489   2.708   0.248   7.018  0.5426 -2.6406  2.5761
    6MOL   H180 1490   2.717   0.099   6.920  0.6737  0.9951 -1.1570
    6MOL   H181 1491   2.590   0.133   7.046 -1.0936  0.5436  0.5997
    6MOL   H182 1492   2.519   0.033   6.789 -0.3515 -0.3524 -0.1918
    6MOL   H183 1493   2.637   0.108   6.683  0.0865  1.4632 -0.4317
    6MOL   C184 1494   2.420   0.138   6.641  1.0897 -0.4460  0.4954
    6MOL   C185 1495   2.362   0.009   6.592 -0.1765 -0.2513 -0.0845
    6MOL   C186 1496   2.278   7.813   6.657 -0.3400 -0.3258  0.1039
    6MOL   C187 1497   2.223   7.834   6.793  0.1830  0.3342  0.1351
    6MOL   C188 1498   2.237   7.683   6.600 -0.0340  0.0108 -0.7008
    6MOL   H189 1499   2.454   0.205   6.563 -1.0204  0.9382  0.7242
    6MOL   H190 1500   2.345   0.189   6.702 -0.7511 -1.6645 -0.7128
    6MOL   H191 1501   2.392   7.875   6.489  0.8919  0.1111  0.1697
    6MOL   H192 1502   2.160   7.756   6.836 -1.1032  0.2984 -1.7523
    6MOL   H193 1503   2.178   0.051   6.798  0.7339  0.5853  0.0813
    6MOL   H194 1504   2.306   7.837   6.863  0.2449 -1.8288  0.1902
    6MOL   H195 1505   2.239   7.601   6.672  2.2464  0.2170 -0.5070
    6MOL   H196 1506   2.300   7.657   6.516  2.2022 -0.6409  1.1309
    6MOL   C197 1507   2.097   7.682   6.531  0.7662 -0.2582 -0.3035
    6MOL   C198 1508   2.057   7.539   6.496  0.1212 -0.1919  0.3318
    6MOL   C199 1509   1.989   7.499   6.385 -0.1412 -0.6465  0.3251
    6MOL   C200 1510   1.953   7.589   6.273  0.4553 -0.2259  0.0891
    6MOL   C201 1511   1.956   7.353   6.363 -0.4346 -0.0720  0.2505
    6MOL   H202 1512   2.091   7.756   6.452 -1.1966 -0.2720 -0.1729
    6MOL   H203 1513   2.030   7.711   6.612 -0.5069 -0.8752 -1.1233
    6MOL   H204 1514   2.075   7.464   6.572 -1.4011 -0.0646  0.8420
    6MOL   H205 1515   1.879   7.656   6.318  2.4020  1.6913  0.4879
    6MOL   H206 1516   1.894   7.540   6.195  0.6408  1.2317 -0.9903
    6MOL   H207 1517   2.036   7.638   6.223 -0.5383  0.3492 -1.0225
    6MOL   H208 1518   2.010   7.295   6.438 -2.9108 -0.6339  1.6303
    6MOL   H209 1519   2.003   7.323   6.269 -0.3966 -0.4033  0.3736
    6MOL   C210 1520   1.817   7.315   6.394  1.0840  0.0787  0.3870
    6MOL   C211 1521   1.783   7.177   6.339  0.2751  0.7781  0.6564
    6MOL   C212 1522   1.714   7.073   6.407 -0.5879 -0.4080 -0.3229
    6MOL   C213 1523   1.685   7.085   6.555  0.2443 -0.0739 -0.2005
    6MOL   C214 1524   1.694   6.937   6.343 -0.4369 -0.4223  0.4948
    6MOL   H215 1525   1.754   7.386   6.342  0.3130 -0.1786  0.9548
    6MOL   H216 1526   1.785   7.333   6.497 -3.4447 -0.4975 -0.8083
    6MOL   H217 1527   1.807   7.165   6.234 -0.4113  0.9537  0.4740
    6MOL   H218 1528   1.665   7.188   6.584 -0.6602 -0.4976  0.6802
    6MOL   H219 1529   1.755   7.038   6.624 -0.4636  1.5525  1.6706
    6MOL   H220 1530   1.588   7.039   6.574 -0.1099  1.6929  2.4830
    6MOL   H221 1531   1.720   6.944   6.238 -1.4468  2.6456  0.3872
    6MOL   H222 1532   1.587   6.918   6.336 -0.1348 -0.8681 -4.9550
    6MOL   C223 1533   1.756   6.824   6.423 -0.0399 -0.0879  0.4851
    6MOL   C224 1534   1.907   6.844   6.453 -0.4310 -0.2564  0.0684
    6MOL   C225 1535   2.003   6.777   6.385  0.0738 -0.2956  0.3782
    6MOL   C226 1536   1.984   6.673   6.283  0.1092  0.3702  0.0809
    6MOL   C227 1537   2.150   6.783   6.429  0.4690  0.0718  0.0735
    6MOL   H228 1538   1.741   6.734   6.363 -1.6889  0.5699 -0.1275
    6MOL   H229 1539   1.710   6.806   6.521  1.3481  1.8810  1.5397
    6MOL   H230 1540   1.929   6.915   6.531 -2.0304  1.0485 -0.6283
    6MOL   H231 1541   2.064   6.670   6.209 -0.2428 -1.7337 -0.2515
    6MOL   H232 1542   1.898   6.693   6.219 -0.2799  0.6453  0.6857
    6MOL   H233 1543   1.971   6.575   6.328 -0.4802  0.4990  0.1974
    6MOL   H234 1544   2.169   6.873   6.488 -0.9108 -0.6278  1.6068
    6MOL   H235 1545   2.199   6.801   6.333 -0.0512 -1.3689 -0.4843
    6MOL   C236 1546   2.202   6.658   6.503  0.6051 -0.2306  0.1534
    6MOL   C237 1547   2.343   6.678   6.558  0.3978  0.1128 -0.5030
    6MOL   C238 1548   2.391   6.648   6.681  0.3704  0.1570 -0.5187
    6MOL   C239 1549   2.317   6.601   6.802 -0.7436  0.4943 -0.2918
    6MOL   C240 1550   2.539   6.666   6.721  0.4843  0.0950 -1.1077
    6MOL   H241 1551   2.209   6.583   6.424  2.3280 -1.2882  1.2937
    6MOL   H242 1552   2.129   6.606   6.565 -0.4930 -1.9403 -2.4605
    6MOL   H243 1553   2.414   6.718   6.487  1.5520  1.8060  1.5529
    6MOL   H244 1554   2.326   6.671   6.886 -0.2421  1.3081 -1.0156
    6MOL   H245 1555   2.356   6.507   6.840  1.2345  1.5450  0.3705
    6MOL   H246 1556   2.216   6.581   6.770 -1.1547 -2.1835  2.4415
    6MOL   H247 1557   2.607   6.690   6.640  0.2201  1.2982 -0.9792
    6MOL   H248 1558   2.577   6.568   6.752 -1.9447 -0.8436 -1.0123
    6MOL   C249 1559   2.560   6.772   6.831  0.0473 -0.7363 -0.4799
    6MOL   C250 1560   2.706   6.812   6.837 -0.0355  0.3385  0.5779
    6MOL   C251 1561   2.764   6.940   6.832  0.4324  0.3740  0.2467
    6MOL   C252 1562   2.684   7.070   6.835 -0.6586 -0.1169  0.1033
    6MOL   C253 1563   2.916   6.954   6.832 -0.6171 -0.6244 -0.0117
    6MOL   H254 1564   2.535   6.726   6.927  1.2832  0.3004  0.3553
    6MOL   H255 1565   2.495   6.859   6.820  0.4116 -0.6762 -2.2610
    6MOL   H256 1566   2.766   6.723   6.828  0.0008  0.3205  0.9856
    6MOL   H257 1567   2.691   7.123   6.930 -0.0573 -0.2370  0.1314
    6MOL   H258 1568   2.576   7.056   6.830 -0.5309 -1.5352  0.9421
    6MOL   H259 1569   2.731   7.140   6.766 -0.2160 -0.1521  0.3642
    6MOL   H260 1570   2.951   6.941   6.730 -0.8509  1.1762 -0.3316
    6MOL   H261 1571   2.960   6.875   6.893 -0.4736  0.6236  1.5155
    6MOL   H262 1572   2.941   7.054   6.866 -0.2432 -1.0016  0.8366
    7MOL     C1 1573   4.478   4.223   1.468 -0.0318 -0.4853 -0.0558
    7MOL     C2 1574   4.366   4.128   1.488 -0.0459 -0.1989 -0.7970
    7MOL     C3 1575   4.245   4.164   1.539 -0.1160  0.3738  0.3352
    7MOL     C4 1576   4.211   4.302   1.586  0.5396  0.2869  0.1518
    7MOL     C5 1577   4.132   4.065   1.535 -0.6307 -0.4370  0.1075
    7MOL     H6 1578   4.450   4.322   1.502  0.2094 -0.6573  0.6729
    7MOL     H7 1579   4.561   4.192   1.532 -0.5192 -2.1207 -0.1934
    7MOL     H8 1580   4.375   4.029   1.445  0.6527 -1.8416  2.9281
    7MOL     H9 1581   4.156   4.357   1.510  1.0703 -0.5525 -0.8523
    7MOL    H10 1582   4.297   4.358   1.622  3.0817 -2.9347 -0.6835
    7MOL    H11 1583   4.142   4.290   1.670  0.0846  1.6551 -0.0254
    7MOL    H12 1584   4.162   3.987   1.465 -1.0451  0.4715 -1.0965
    7MOL    H13 1585   4.049   4.108   1.479 -0.9842 -0.5681  0.5269
    7MOL    H14 1586   4.504   4.207   1.363  0.4158 -2.7357  0.3556
    7MOL    C15 1587   4.092   4.003   1.671  0.2548  0.3984  0.6958
    7MOL    C16 1588   4.214   3.943   1.729  0.0914  0.3808 -0.2984
    7MOL    C17 1589   4.227   3.823   1.789 -0.4044  0.6946  0.0197
    7MOL    C18 1590   4.117   3.728   1.815  0.1575 -0.1446 -0.4259
    7MOL    C19 1591   4.364   3.767   1.828  0.1726  0.0502  0.2730
    7MOL    H20 1592   4.006   3.937   1.675 -0.4761  1.3303  0.5902
    7MOL    H21 1593   4.068   4.085   1.738 -0.9918 -0.8216  1.7650
    7MOL    H22 1594   4.307   3.999   1.726  0.2428  0.1982  0.7764
    7MOL    H23 1595   4.026   3.788   1.825 -0.3182 -0.7041 -1.3333
    7MOL    H24 1596   4.137   3.692   1.915  0.0536  0.9053 -0.0164
    7MOL    H25 1597   4.097   3.639   1.755 -1.7645 -0.9320  1.3363
    7MOL    H26 1598   4.432   3.845   1.795  1.8535 -1.2909  0.5164
    7MOL    H27 1599   4.381   3.676   1.771  0.1953  1.0867 -1.3895
    7MOL    C28 1600   4.392   3.725   1.975 -0.0117  0.2432  0.6436
    7MOL    C29 1601   4.533   3.760   2.019 -0.1876 -0.9089  0.5596
    7MOL    C30 1602   4.620   3.664   2.065 -0.3279 -0.1697  0.5940
    7MOL    C31 1603   4.598   3.514   2.061  0.3855 -0.2770  0.2738
    7MOL    C32 1604   4.749   3.715   2.129  0.9468  0.3515 -1.4208
    7MOL    H33 1605   4.360   3.622   1.991  1.6135 -0.3139  0.3194
    7MOL    H34 1606   4.330   3.784   2.043 -2.0527 -1.2236  0.1283
    7MOL    H35 1607   4.559   3.864   2.003  0.9168 -1.4439 -1.2026
    7MOL    H36 1608   4.688   3.481   2.008  0.6192  0.4560  0.2058
    7MOL    H37 1609   4.504   3.487   2.013  1.3388  1.4738 -2.7717
    7MOL    H38 1610   4.599   3.462   2.156 -1.2111 -0.9207 -0.0579
    7MOL    H39 1611   4.747   3.819   2.097 -2.3358  1.4206  1.9208
    7MOL    H40 1612   4.841   3.677   2.085  0.4768  0.9188 -2.9275
    7MOL    C41 1613   4.767   3.698   2.278 -0.0345 -0.1239  0.4765
    7MOL    C42 1614   4.886   3.782   2.319 -0.1526  0.2516  0.2333
    7MOL    C43 1615   4.888   3.863   2.424 -0.1024  0.1000 -0.5683
    7MOL    C44 1616   4.758   3.890   2.502 -0.1814 -0.4606 -0.5845
    7MOL    C45 1617   5.009   3.938   2.475 -0.2430 -0.6265 -0.0753
    7MOL    H46 1618   4.788   3.594   2.302  2.1783  0.2159  0.1523
    7MOL    H47 1619   4.668   3.720   2.319 -0.1972  1.0599 -0.5011
    7MOL    H48 1620   4.980   3.781   2.266 -0.0387  0.2540  0.4351
    7MOL    H49 1621   4.779   3.928   2.602 -2.8272  1.9244 -0.8453
    7MOL    H50 1622   4.679   3.815   2.510 -0.6859  0.0001 -1.1134
    7MOL    H51 1623   4.714   3.977   2.453  0.8753  1.1961  1.3400
    7MOL    H52 1624   4.970   4.031   2.517 -1.4351 -1.4171  0.6137
    7MOL    H53 1625   5.055   3.972   2.382 -1.7708  0.8222 -0.3283
    7MOL    C54 1626   5.102   3.859   2.566 -0.7384 -0.2221 -0.0697
    7MOL    C55 1627   5.210   3.946   2.623 -0.4261  0.6177 -0.2807
    7MOL    C56 1628   5.344   3.919   2.623 -0.1842 -0.0650  0.4759
    7MOL    C57 1629   5.405   3.798   2.548  0.1879  0.4765 -0.6860
    7MOL    C58 1630   5.430   4.014   2.695 -0.3041 -0.1408  0.1094
    7MOL    H59 1631   5.139   3.768   2.519 -0.2014  1.1581 -2.3828
    7MOL    H60 1632   5.047   3.827   2.654 -1.8667  0.7561 -0.4057
    7MOL    H61 1633   5.164   4.039   2.654 -1.9742 -0.5101  0.9497
    7MOL    H62 1634   5.505   3.833   2.520  1.6991 -0.2860  3.3738
    7MOL    H63 1635   5.359   3.763   2.456 -0.2219 -3.1823  0.8252
    7MOL    H64 1636   5.431   3.712   2.610 -0.2486  1.9434  1.5622
    7MOL    H65 1637   5.475   3.968   2.783  0.0816 -1.0318 -0.5472
    7MOL    H66 1638   5.375   4.096   2.741 -1.2965 -2.9868  4.3303
    7MOL    C67 1639   5.552   4.083   2.616  0.1758  0.8596 -0.9642
    7MOL    C68 1640   5.596   4.209   2.692  0.4444 -0.4312 -0.2993
    7MOL    C69 1641   5.555   4.337   2.674 -0.4905 -0.5595 -0.5062
    7MOL    C70 1642   5.453   4.383   2.576  0.1615  0.1422  0.3848
    7MOL    C71 1643   5.608   4.458   2.758 -0.2476  0.0325  0.1910
    7MOL    H72 1644   5.521   4.104   2.514 -1.6021  0.6399 -0.5047
    7MOL    H73 1645   5.641   4.021   2.616 -0.9755 -0.8442 -0.4199
    7MOL    H74 1646   5.658   4.190   2.779 -1.0512  1.5372  1.2390
    7MOL    H75 1647   5.495   4.461   2.512 -1.3868  1.3738  0.8172
    7MOL    H76 1648   5.371   4.427   2.633  0.0228 -0.5550  0.7196
    7MOL    H77 1649   5.420   4.298   2.517 -2.8237  0.2478  1.8123
    7MOL    H78 1650   5.528   4.478   2.829  0.1800  0.3742  0.5784
    7MOL    H79 1651   5.623   4.550   2.701 -2.3486  0.4486  0.2688
    7MOL    C80 1652   5.732   4.429   2.851 -0.1635  0.1336 -0.3166
    7MOL    C81 1653   5.862   4.408   2.766  0.2280 -1.0658  0.0869
    7MOL    C82 1654   5.943   4.301   2.771  0.9073  0.2834  1.2903
    7MOL    C83 1655   5.928   4.188   2.865  0.1180 -0.1751  0.0259
    7MOL    C84 1656   6.060   4.292   2.682 -0.0917 -0.6641 -0.1740
    7MOL    H85 1657   5.713   4.345   2.918 -0.2591  0.9209  0.6515
    7MOL    H86 1658   5.748   4.503   2.928  0.4019  0.3496 -0.6365
    7MOL    H87 1659   5.878   4.493   2.700  1.9084 -0.9277  0.6687
    7MOL    H88 1660   5.913   4.093   2.813 -1.7927 -0.5337  1.1753
    7MOL    H89 1661   5.850   4.198   2.940 -0.7380  1.8724 -1.1236
    7MOL    H90 1662   6.017   4.172   2.926  0.7420  2.0948 -0.2605
    7MOL    H91 1663   6.155   4.273   2.731  0.5877  2.0237 -0.3881
    7MOL    H92 1664   6.070   4.388   2.631 -0.9758 -1.8792 -2.7085
    7MOL    C93 1665   6.035   4.208   2.562  0.3308  1.1534  0.3629
    7MOL    C94 1666   5.900   4.240   2.492  0.0748  0.2095  0.4483
    7MOL    C95 1667   5.877   4.274   2.362 -0.0902 -0.5418 -0.2602
    7MOL    C96 1668   5.980   4.282   2.250  0.4836  0.4145  0.3545
    7MOL    C97 1669   5.739   4.321   2.312 -0.0324 -0.1016 -0.1356
    7MOL    H98 1670   6.031   4.105   2.597  0.6001  0.9569 -0.1818
    7MOL    H99 1671   6.117   4.209   2.490  0.3672 -1.2931  0.3180
    7MOL   H100 1672   5.810   4.260   2.548 -0.4581  2.5552 -1.1715
    7MOL   H101 1673   6.080   4.244   2.271  1.5562  2.7015 -0.4778
    7MOL   H102 1674   5.989   4.382   2.210  1.0231  0.6193  0.9682
    7MOL   H103 1675   5.948   4.219   2.167 -1.1977  0.9597  0.5679
    7MOL   H104 1676   5.751   4.414   2.257  0.1250 -0.0690 -0.0451
    7MOL   H105 1677   5.675   4.350   2.396 -2.7663 -1.9367 -1.4934
    7MOL   C106 1678   5.673   4.201   2.243  0.2556  0.5675  0.1114
    7MOL   C107 1679   5.584   4.245   2.140  0.7554  0.2566  0.1748
    7MOL   C108 1680   5.448   4.251   2.146  0.6303  0.0510 -0.0041
    7MOL   C109 1681   5.364   4.199   2.256 -0.0255 -0.2159  0.3914
    7MOL   C110 1682   5.374   4.334   2.035  0.1718  0.7232 -0.6568
    7MOL   H111 1683   5.623   4.144   2.322  1.2780 -0.5212 -0.0043
    7MOL   H112 1684   5.741   4.133   2.192  1.3745  1.5001  0.3483
    7MOL   H113 1685   5.635   4.291   2.057 -2.7344  0.5774 -1.8774
    7MOL   H114 1686   5.268   4.165   2.217  0.2619  1.1806 -1.6055
    7MOL   H115 1687   5.338   4.279   2.325  0.6670  0.7281 -0.4299
    7MOL   H116 1688   5.410   4.117   2.312 -1.7303 -1.6295 -0.2192
    7MOL   H117 1689   5.443   4.405   1.991  0.8317  0.4864 -0.0089
    7MOL   H118 1690   5.297   4.392   2.085 -0.7689  0.3270 -1.6137
    7MOL   C119 1691   5.319   4.246   1.927 -0.8673 -0.2184  0.9761
    7MOL   C120 1692   5.276   4.315   1.795 -0.1680 -0.2578  0.1371
    7MOL   C121 1693   5.329   4.297   1.679  0.5873 -0.0725  0.1850
    7MOL   C122 1694   5.444   4.194   1.647  0.0665 -0.1230  0.6699
    7MOL   C123 1695   5.286   4.376   1.563 -0.0798 -0.0615  0.3605
    7MOL   H124 1696   5.234   4.188   1.962 -0.9416 -0.6299  0.1317
    7MOL   H125 1697   5.391   4.166   1.906  1.5028  1.7964  1.1561
    7MOL   H126 1698   5.210   4.400   1.807  0.1595  0.2475 -1.5835
    7MOL   H127 1699   5.542   4.231   1.678  0.7133 -0.2234 -1.1950
    7MOL   H128 1700   5.446   4.190   1.538  2.4815  0.6358  0.6324
    7MOL   H129 1701   5.420   4.098   1.692 -1.5574  1.2342  2.7834
    7MOL   H130 1702   5.193   4.430   1.583 -0.4790 -0.2506 -0.9430
    7MOL   H131 1703   5.259   4.306   1.484  0.3239 -0.1779  0.3226
    7MOL   C132 1704   5.388   4.481   1.516  0.2044  0.7968  0.7211
    7MOL   C133 1705   5.401   4.594   1.616 -0.1088 -0.4088  0.3864
    7MOL   C134 1706   5.381   4.723   1.587 -0.1047  0.6000  0.0695
    7MOL   C135 1707   5.363   4.784   1.448 -0.7230  0.1567 -0.6995
    7MOL   C136 1708   5.401   4.827   1.698 -0.1354  0.3761  0.3571
    7MOL   H137 1709   5.351   4.521   1.422  0.7753  1.7736  0.8970
    7MOL   H138 1710   5.479   4.430   1.486 -0.3360  0.2997 -0.0955
    7MOL   H139 1711   5.422   4.565   1.718 -1.8191  0.0176  0.8757
    7MOL   H140 1712   5.344   4.719   1.363 -2.5483  0.7103 -0.7324
    7MOL   H141 1713   5.454   4.837   1.417  0.9657 -1.6018  1.0939
    7MOL   H142 1714   5.293   4.866   1.462  0.2207  0.8748 -0.0982
    7MOL   H143 1715   5.443   4.923   1.667 -0.4928  0.2031 -0.6716
    7MOL   H144 1716   5.467   4.782   1.772  1.6041 -1.9812 -2.5204
    7MOL   C145 1717   5.266   4.855   1.764 -0.2086  0.7100  0.6736
    7MOL   C146 1718   5.277   4.915   1.898 -0.2611 -0.0772 -0.2422
    7MOL   C147 1719   5.299   4.847   2.017  0.3319  0.2952 -0.3453
    7MOL   C148 1720   5.316   4.698   2.009  0.2632 -0.3461  0.5835
    7MOL   C149 1721   5.330   4.897   2.162  0.4619  0.0238 -0.5409
    7MOL   H150 1722   5.189   4.779   1.757  1.6915 -1.3730  1.4972
    7MOL   H151 1723   5.217   4.932   1.705 -3.4801 -1.6980  0.1075
    7MOL   H152 1724   5.287   5.022   1.894  1.6872 -0.3289 -3.5514
    7MOL   H153 1725   5.424   4.685   1.998  0.3767  1.3399 -0.4527
    7MOL   H154 1726   5.280   4.658   1.915  0.6326  0.7436 -0.0291
    7MOL   H155 1727   5.276   4.644   2.095 -1.3397 -0.1177 -0.0170
    7MOL   H156 1728   5.264   4.844   2.231 -0.8871  0.1305 -1.7242
    7MOL   H157 1729   5.322   5.005   2.178  2.1650  0.1907 -0.7539
    7MOL   C158 1730   5.473   4.862   2.213 -0.3407  0.5195  0.5685
    7MOL   C159 1731   5.505   4.923   2.348  0.1497  0.5575 -0.3741
    7MOL   C160 1732   5.461   4.869   2.460 -0.0952 -0.1526 -0.7173
    7MOL   C161 1733   5.367   4.746   2.466 -0.6097  0.9854 -0.1095
    7MOL   C162 1734   5.473   4.958   2.587  0.1604  1.2047  0.1421
    7MOL   H163 1735   5.538   4.913   2.142  1.3179 -0.8896  1.0135
    7MOL   H164 1736   5.482   4.753   2.217  0.4581  0.5962  0.8969
    7MOL   H165 1737   5.557   5.018   2.355  1.1319  0.1464 -1.7891
    7MOL   H166 1738   5.370   4.677   2.383  0.6625  0.6068  0.2419
    7MOL   H167 1739   5.266   4.787   2.479 -0.4036  1.9466 -1.4554
    7MOL   H168 1740   5.377   4.694   2.561 -0.4930  0.1536 -0.5826
    7MOL   H169 1741   5.379   5.006   2.616 -0.1110  0.0393  1.2391
    7MOL   H170 1742   5.540   5.042   2.570 -1.2082  1.4477 -4.7891
    7MOL   C171 1743   5.526   4.876   2.706 -0.1254  0.4946  0.2834
    7MOL   C172 1744   5.599   4.949   2.819  0.7513  0.6569  0.1813
    7MOL   C173 1745   5.584   4.936   2.955  0.2403  0.7057  0.5075
    7MOL   C174 1746   5.485   4.838   3.016 -0.0380  0.1769  0.2749
    7MOL   C175 1747   5.664   5.019   3.056 -0.2294 -0.0805  0.3665
    7MOL   H176 1748   5.593   4.807   2.654  1.7841  1.5141  1.3285
    7MOL   H177 1749   5.443   4.812   2.737 -1.6211  2.6015  0.7675
    7MOL   H178 1750   5.674   5.022   2.792  0.2430  0.4871 -1.7470
    7MOL   H179 1751   5.458   4.758   2.947  1.7490  0.3697 -0.6756
    7MOL   H180 1752   5.398   4.895   3.048 -0.3301  0.0158 -0.2156
    7MOL   H181 1753   5.541   4.797   3.100  2.4976 -0.8390 -1.8269
    7MOL   H182 1754   5.768   4.992   3.038 -0.1216  1.6331 -1.6284
    7MOL   H183 1755   5.636   4.986   3.156  0.7722  2.2028  1.4450
    7MOL   C184 1756   5.634   5.168   3.046 -0.3191 -0.6545  0.3868
    7MOL   C185 1757   5.711   5.235   3.157  0.3715 -0.6565 -0.1375
    7MOL   C186 1758   5.768   5.354   3.157 -0.2131  0.3707  0.2756
    7MOL   C187 1759   5.791   5.442   3.026  0.3364  0.1263 -0.4096
    7MOL   C188 1760   5.833   5.412   3.287  0.5907  0.4018  0.1089
    7MOL   H189 1761   5.527   5.174   3.065  0.2939  4.0053  2.9592
    7MOL   H190 1762   5.662   5.213   2.950 -0.0934 -1.7930 -0.0875
    7MOL   H191 1763   5.702   5.196   3.257 -1.1822  1.4193  0.5685
    7MOL   H192 1764   5.897   5.465   3.013  0.0929  1.3478 -0.2370
    7MOL   H193 1765   5.733   5.532   3.045 -0.8557 -0.4842 -1.1271
    7MOL   H194 1766   5.763   5.404   2.928  1.8257  4.8611 -2.8217
    7MOL   H195 1767   5.917   5.476   3.258  0.2942  1.1509  0.8798
    7MOL   H196 1768   5.886   5.344   3.355  1.7972 -0.0034 -1.2007
    7MOL   C197 1769   5.734   5.499   3.363  0.4707 -0.3216 -0.4066
    7MOL   C198 1770   5.784   5.566   3.485  0.5919 -0.1341 -0.2739
    7MOL   C199 1771   5.788   5.514   3.610 -0.4738 -0.2808  0.1300
    7MOL   C200 1772   5.744   5.375   3.646  0.1779  0.1703  0.3116
    7MOL   C201 1773   5.842   5.591   3.723  0.2651 -0.3153 -0.0588
    7MOL   H202 1774   5.651   5.436   3.395 -0.1215  0.5429 -0.2316
    7MOL   H203 1775   5.695   5.586   3.311 -1.5670 -1.6529 -1.1636
    7MOL   H204 1776   5.814   5.668   3.466 -2.8164  0.8935 -0.5060
    7MOL   H205 1777   5.663   5.377   3.720 -0.2860  1.0717 -0.2115
    7MOL   H206 1778   5.814   5.310   3.699 -0.9564 -0.3158  1.2422
    7MOL   H207 1779   5.700   5.332   3.557  0.5641 -0.3311  0.3613
    7MOL   H208 1780   5.787   5.581   3.817  0.6480  1.6144  0.4051
    7MOL   H209 1781   5.836   5.698   3.702 -3.1203 -0.7094 -1.3918
    7MOL   C210 1782   5.991   5.555   3.735 -0.1360  0.2731 -0.0742
    7MOL   C211 1783   6.057   5.628   3.845 -0.1968  0.0208  0.0522
    7MOL   C212 1784   6.115   5.577   3.954  0.1120 -0.3286 -0.5202
    7MOL   C213 1785   6.106   5.429   4.003  0.5760 -0.2875 -0.0655
    7MOL   C214 1786   6.182   5.672   4.053 -0.0921 -0.6171  0.0431
    7MOL   H215 1787   6.040   5.575   3.639 -0.5830  0.0413 -0.3514
    7MOL   H216 1788   5.996   5.449   3.759 -1.7877  0.0534 -0.6235
    7MOL   H217 1789   6.075   5.734   3.835  2.4328 -0.4611 -0.7307
    7MOL   H218 1790   6.016   5.413   4.062  0.1627  0.0046 -0.6170
    7MOL   H219 1791   6.196   5.394   4.053  0.3560  0.2248  0.7060
    7MOL   H220 1792   6.102   5.369   3.913  1.7129 -0.2070 -0.1801
    7MOL   H221 1793   6.212   5.767   4.010  0.8225 -0.0974  1.7569
    7MOL   H222 1794   6.274   5.623   4.085  0.2633  0.8580  1.3215
    7MOL   C223 1795   6.096   5.693   4.178  0.2385  0.5554  0.1814
    7MOL   C224 1796   5.974   5.790   4.154 -0.1343  0.4124  0.1278
    7MOL   C225 1797   5.947   5.907   4.223 -0.3349 -0.0884  0.9107
    7MOL   C226 1798   6.037   5.962   4.330 -0.7445 -0.3981  0.2245
    7MOL   C227 1799   5.817   5.984   4.195 -0.5238  0.0507  0.0539
    7MOL   H228 1800   6.161   5.752   4.242  0.0515  2.1851 -1.1169
    7MOL   H229 1801   6.056   5.599   4.216  0.9534  0.6134  1.1147
    7MOL   H230 1802   5.900   5.741   4.091 -0.7405 -0.3692  1.4159
    7MOL   H231 1803   6.002   6.063   4.351 -1.1221 -1.0076  2.6473
    7MOL   H232 1804   6.141   5.972   4.297 -0.8293 -1.9912 -0.5930
    7MOL   H233 1805   6.030   5.901   4.420  0.8439 -3.7962 -1.8393
    7MOL   H234 1806   5.755   6.011   4.281  1.8713  2.5039  1.0918
    7MOL   H235 1807   5.746   5.927   4.137 -0.3162  1.0569 -1.2101
    7MOL   C236 1808   5.853   6.113   4.122 -0.4238  0.2424  0.2497
    7MOL   C237 1809   5.741   6.199   4.084 -0.2941 -0.9880 -0.9223
    7MOL   C238 1810   5.667   6.199   3.970 -0.0605 -0.7172  0.0141
    7MOL   C239 1811   5.694   6.109   3.854 -0.1959  0.4339  0.4174
    7MOL   C240 1812   5.554   6.297   3.932 -0.4535  0.2977 -0.0786
    7MOL   H241 1813   5.917   6.095   4.036  0.4459  0.5018  0.8286
    7MOL   H242 1814   5.922   6.171   4.184 -0.1085 -0.6914  0.7891
    7MOL   H243 1815   5.710   6.256   4.170  0.7315  0.6760 -1.6296
    7MOL   H244 1816   5.774   6.038   3.876  0.2498  0.6079 -0.5875
    7MOL   H245 1817   5.716   6.171   3.767  1.3715  0.5637  0.8787
    7MOL   H246 1818   5.610   6.047   3.824  2.6510 -2.1094 -2.8514
    7MOL   H247 1819   5.518   6.330   4.029  0.5303  1.3407 -0.0693
    7MOL   H248 1820   5.475   6.250   3.873  0.1375 -0.8910  0.0613
    7MOL   C249 1821   5.602   6.418   3.848  0.7120 -0.1910 -0.5670
    7MOL   C250 1822   5.510   6.536   3.873 -0.3688 -0.6255 -0.2309
    7MOL   C251 1823   5.403   6.573   3.800  0.4864  0.6998  0.0916
    7MOL   C252 1824   5.371   6.512   3.664  0.7934  0.3312  0.4562
    7MOL   C253 1825   5.304   6.680   3.846  0.1181  0.6022  0.1254
    7MOL   H254 1826   5.601   6.393   3.742  0.9199 -1.3336 -0.3068
    7MOL   H255 1827   5.703   6.447   3.874  0.1783  1.6797 -0.5067
    7MOL   H256 1828   5.523   6.573   3.973 -2.0770 -1.2386  0.2320
    7MOL   H257 1829   5.273   6.465   3.672  0.4699  1.1879  1.5999
    7MOL   H258 1830   5.440   6.434   3.631  0.2818  0.5034 -1.0488
    7MOL   H259 1831   5.359   6.588   3.588  2.1364 -0.6530 -0.7684
    7MOL   H260 1832   5.297   6.747   3.761 -0.1702  0.0394 -0.2962
    7MOL   H261 1833   5.345   6.737   3.930  1.5820  1.3097 -1.0354
    7MOL   H262 1834   5.205   6.639   3.864 -0.1716 -0.0541 -2.7460
    8MOL     C1 1835   4.203   7.525   2.666  0.3355  0.9274  0.7821
    8MOL     C2 1836   4.082   7.428   2.648  0.3173 -0.0824  0.7860
    8MOL     C3 1837   4.080   7.296   2.635 -0.1874  0.5075 -0.4580
    8MOL     C4 1838   4.200   7.213   2.635 -0.0439 -0.1375 -0.3054
    8MOL     C5 1839   3.954   7.221   2.599  0.0234  0.2577  0.0749
    8MOL     H6 1840   4.176   7.622   2.707  0.0588  0.7863  0.9378
    8MOL     H7 1841   4.287   7.491   2.727  0.9366  1.0689  0.0421
    8MOL     H8 1842   3.990   7.483   2.630  0.4517 -0.7224 -2.1116
    8MOL     H9 1843   4.193   7.124   2.697  0.6111  0.3099  0.4357
    8MOL    H10 1844   4.278   7.268   2.688 -0.4696 -0.2860  0.4861
    8MOL    H11 1845   4.233   7.193   2.533  1.0940 -2.5691  0.5134
    8MOL    H12 1846   3.873   7.258   2.662 -1.2199 -0.7702 -0.8894
    8MOL    H13 1847   3.965   7.114   2.617 -0.1791  0.2730  0.2850
    8MOL    H14 1848   4.238   7.548   2.565  1.4786 -0.0324  0.9379
    8MOL    C15 1849   3.913   7.238   2.454 -0.4539 -0.0836  0.3675
    8MOL    C16 1850   3.766   7.223   2.424  0.2486 -0.6376 -0.2829
    8MOL    C17 1851   3.694   7.118   2.388  0.5306  0.0775  0.1968
    8MOL    C18 1852   3.763   6.983   2.362 -0.6491  0.1545  0.1131
    8MOL    C19 1853   3.545   7.103   2.377 -0.1178  0.0384 -0.1805
    8MOL    H20 1854   3.988   7.186   2.396  0.5075  1.9253 -0.2345
    8MOL    H21 1855   3.939   7.342   2.435  0.3706 -0.9223 -3.6142
    8MOL    H22 1856   3.706   7.307   2.453  0.6079 -0.0968 -1.0919
    8MOL    H23 1857   3.720   6.913   2.291  2.4230  0.1159 -1.7923
    8MOL    H24 1858   3.776   6.935   2.459 -0.6534 -1.2285 -0.5730
    8MOL    H25 1859   3.867   6.998   2.333 -0.7748  2.0190  0.5614
    8MOL    H26 1860   3.519   7.009   2.425  1.5141 -0.5618 -0.4405
    8MOL    H27 1861   3.519   7.075   2.275  0.4856 -1.8847  0.1652
    8MOL    C28 1862   3.452   7.208   2.432 -0.7059 -0.1964 -0.0548
    8MOL    C29 1863   3.305   7.180   2.436 -0.0935 -0.0956  0.0186
    8MOL    C30 1864   3.214   7.243   2.516  0.5016 -0.1422  0.3526
    8MOL    C31 1865   3.261   7.328   2.636  0.0435  0.6697 -0.1186
    8MOL    C32 1866   3.064   7.223   2.501  0.0072  0.4092  0.2209
    8MOL    H33 1867   3.472   7.304   2.383 -2.6224 -0.5706 -1.6092
    8MOL    H34 1868   3.487   7.227   2.534  1.7807 -0.0372 -0.8884
    8MOL    H35 1869   3.261   7.116   2.361 -1.3854  1.7585 -0.8427
    8MOL    H36 1870   3.363   7.366   2.642  0.7832 -1.2082 -0.6296
    8MOL    H37 1871   3.233   7.279   2.730  0.5358  0.1001 -0.2696
    8MOL    H38 1872   3.202   7.420   2.638  0.3840  0.9357 -1.8204
    8MOL    H39 1873   3.058   7.171   2.405  1.9495  1.9491 -0.7833
    8MOL    H40 1874   3.023   7.324   2.500  0.9819  0.8086 -0.2900
    8MOL    C41 1875   3.006   7.136   2.612  0.0643  0.5087 -0.1708
    8MOL    C42 1876   2.858   7.172   2.643 -0.8075  0.8902  0.5003
    8MOL    C43 1877   2.780   7.130   2.739 -0.0865  0.5574  0.3731
    8MOL    C44 1878   2.813   7.042   2.856  0.3465  0.2511  0.5128
    8MOL    C45 1879   2.626   7.169   2.745  0.2918  0.1325  0.5583
    8MOL    H46 1880   3.055   7.144   2.709 -0.6171  0.3761  0.1932
    8MOL    H47 1881   3.012   7.031   2.583 -0.5556  0.5777 -0.5510
    8MOL    H48 1882   2.811   7.243   2.576 -3.1231 -0.6812  0.3824
    8MOL    H49 1883   2.740   6.961   2.845  1.2126 -0.3306 -1.0192
    8MOL    H50 1884   2.796   7.102   2.946  0.9540  0.6099  0.3845
    8MOL    H51 1885   2.914   7.002   2.857  0.4614  0.5191 -0.2667
    8MOL    H52 1886   2.572   7.075   2.738 -0.1545  0.5378 -1.8018
    8MOL    H53 1887   2.620   7.226   2.652  1.2946 -0.7024 -0.0308
    8MOL    C54 1888   2.579   7.257   2.868  0.0619 -0.4694  1.1726
    8MOL    C55 1889   2.670   7.376   2.897 -0.0614 -0.5617  0.0963
    8MOL    C56 1890   2.715   7.420   3.019  0.8386 -0.5196 -0.1851
    8MOL    C57 1891   2.674   7.351   3.147  0.0460  0.6748  0.0060
    8MOL    C58 1892   2.810   7.537   3.038 -0.9304  0.0694  0.4455
    8MOL    H59 1893   2.576   7.188   2.952  1.2734 -0.3124  1.3611
    8MOL    H60 1894   2.480   7.290   2.839  2.0676  3.5091 -1.6440
    8MOL    H61 1895   2.705   7.432   2.811 -1.6506  0.1819 -0.0867
    8MOL    H62 1896   2.578   7.300   3.149  0.1777  0.3212 -1.6970
    8MOL    H63 1897   2.675   7.419   3.232  1.1127  1.5013 -0.6400
    8MOL    H64 1898   2.731   7.259   3.155  0.2127  0.9804  2.8244
    8MOL    H65 1899   2.862   7.568   2.947 -0.6961 -0.6620  0.3251
    8MOL    H66 1900   2.882   7.503   3.112  0.0482  1.9334  0.3862
    8MOL    C67 1901   2.735   7.662   3.084  0.5848 -0.5124 -0.1510
    8MOL    C68 1902   2.822   7.781   3.131 -0.3483  0.0995 -0.3433
    8MOL    C69 1903   2.847   0.015   3.068 -0.1818  0.4402 -0.3620
    8MOL    C70 1904   2.784   0.042   2.935 -0.5910 -0.3598 -0.5083
    8MOL    C71 1905   2.900   0.136   3.140 -0.5000  0.3647 -0.5331
    8MOL    H72 1906   2.659   7.639   3.158 -2.5779  2.7891 -2.2046
    8MOL    H73 1907   2.675   7.688   2.996  1.0939  0.3329 -0.2476
    8MOL    H74 1908   2.857   7.775   3.234 -0.6907 -1.8186 -0.3290
    8MOL    H75 1909   2.690   0.097   2.930 -1.2897 -1.5367 -0.2788
    8MOL    H76 1910   2.774   7.836   2.873 -0.3832 -0.2006 -0.7682
    8MOL    H77 1911   2.840   0.110   2.871 -1.5983 -0.2788 -1.3091
    8MOL    H78 1912   2.980   0.178   3.078  0.2628  0.8046  0.7277
    8MOL    H79 1913   2.948   0.099   3.231  1.1579 -2.4048 -2.4495
    8MOL    C80 1914   2.793   0.237   3.172  0.3595 -0.1630  0.3705
    8MOL    C81 1915   2.777   0.343   3.058 -0.5441 -0.3877 -0.1383
    8MOL    C82 1916   2.873   0.431   3.010  0.1387  0.3280 -0.2458
    8MOL    C83 1917   3.008   0.460   3.077 -0.1601 -0.1709 -0.2482
    8MOL    C84 1918   2.843   0.505   2.881  0.0947 -0.2682  0.3154
    8MOL    H85 1919   2.824   0.286   3.265  1.5994  1.7556 -1.0008
    8MOL    H86 1920   2.696   0.188   3.179 -1.2333  2.3425 -2.9906
    8MOL    H87 1921   2.682   0.337   3.008  0.1243 -0.6037 -1.4026
    8MOL    H88 1922   3.023   0.405   3.170 -0.5260  0.3483  0.1206
    8MOL    H89 1923   3.014   0.568   3.093 -0.0481 -0.6119  3.0016
    8MOL    H90 1924   3.093   0.444   3.011  0.2695 -0.3615  0.3472
    8MOL    H91 1925   2.936   0.558   2.859 -0.0133 -0.1726  0.0800
    8MOL    H92 1926   2.758   0.571   2.900  0.4010 -0.0816  1.0557
    8MOL    C93 1927   2.814   0.421   2.755 -0.1469 -0.1935  0.2283
    8MOL    C94 1928   2.939   0.342   2.709 -0.2668  0.3078  0.1035
    8MOL    C95 1929   2.962   0.281   2.593  0.7417 -0.1136  0.5173
    8MOL    C96 1930   2.858   0.275   2.475 -0.2745 -0.0761  0.4200
    8MOL    C97 1931   3.091   0.206   2.564 -0.0020 -0.0126 -0.0980
    8MOL    H98 1932   2.773   0.470   2.667  0.4723 -0.1492 -0.0402
    8MOL    H99 1933   2.740   0.344   2.779 -1.0520  1.0709  1.5275
    8MOL   H100 1934   3.022   0.332   2.777 -0.8761 -0.5421  0.7360
    8MOL   H101 1935   2.811   0.179   2.451 -0.4804  0.0766  0.2082
    8MOL   H102 1936   2.902   0.304   2.379 -1.5333 -1.9226 -0.7561
    8MOL   H103 1937   2.780   0.347   2.499 -1.0289 -0.3197 -1.2019
    8MOL   H104 1938   3.060   0.124   2.498 -1.4060 -0.9380  1.6499
    8MOL   H105 1939   3.139   0.174   2.657 -2.0891 -1.9028  0.3617
    8MOL   C106 1940   3.188   0.294   2.489 -0.0964  0.2260  0.2278
    8MOL   C107 1941   3.240   0.401   2.577 -0.0050 -0.7374  0.2287
    8MOL   C108 1942   3.214   0.535   2.576 -0.1938  0.0994  0.1267
    8MOL   C109 1943   3.106   0.592   2.482  0.0557  0.8089 -0.5146
    8MOL   C110 1944   3.270   0.629   2.683  0.1651  0.8500 -0.4358
    8MOL   H111 1945   3.145   0.330   2.396  0.2131  0.2218  0.0801
    8MOL   H112 1946   3.274   0.230   2.466 -1.3466 -0.9620 -1.2818
    8MOL   H113 1947   3.313   0.374   2.652  0.5538  1.4384  0.5183
    8MOL   H114 1948   3.103   0.540   2.387  0.1596 -0.1473 -0.0078
    8MOL   H115 1949   3.118   0.699   2.462 -1.6330  0.7955 -1.7567
    8MOL   H116 1950   3.005   0.588   2.524  0.3073  6.5742  1.1361
    8MOL   H117 1951   3.341   0.571   2.742  1.7333  0.6183 -2.4605
    8MOL   H118 1952   3.198   0.655   2.760 -0.8135 -1.1903 -0.6228
    8MOL   C119 1953   3.340   0.757   2.630  0.0200 -0.5000 -0.0843
    8MOL   C120 1954   3.445   0.803   2.731  1.0220 -0.4360 -0.3427
    8MOL   C121 1955   3.430   0.911   2.809 -0.0501  0.2518 -0.4521
    8MOL   C122 1956   3.305   0.996   2.806 -0.5029  0.1444  0.5416
    8MOL   C123 1957   3.538   0.957   2.906  0.6851 -0.5334  0.3075
    8MOL   H124 1958   3.285   0.844   2.595 -0.9773 -1.2502 -0.4086
    8MOL   H125 1959   3.393   0.727   2.539 -0.4478 -0.7047 -0.2915
    8MOL   H126 1960   3.540   0.756   2.709 -0.1015 -3.3861  0.8812
    8MOL   H127 1961   3.283   1.041   2.903  0.4390 -1.8175  1.6940
    8MOL   H128 1962   3.219   0.937   2.777 -0.7546  1.0910 -0.7108
    8MOL   H129 1963   3.313   1.079   2.735  1.2879  1.0963  1.8059
    8MOL   H130 1964   3.542   1.066   2.910 -0.8560 -0.3768 -1.6429
    8MOL   H131 1965   3.634   0.926   2.864  0.2733 -1.0258 -0.2863
    8MOL   C132 1966   3.521   0.904   3.048  0.4147  0.0943 -0.3302
    8MOL   C133 1967   3.540   0.748   3.054 -0.0941  0.5237  0.4139
    8MOL   C134 1968   3.446   0.650   3.048  1.1396  0.2298 -1.7296
    8MOL   C135 1969   3.296   0.676   3.032  0.0385  0.0507 -0.3102
    8MOL   C136 1970   3.469   0.499   3.048  0.1812  0.2055  0.3132
    8MOL   H137 1971   3.421   0.921   3.088  0.9123  0.7289  0.6663
    8MOL   H138 1972   3.588   0.966   3.107 -0.3423 -0.0771  0.7247
    8MOL   H139 1973   3.638   0.704   3.046 -1.0389 -1.7881  1.2399
    8MOL   H140 1974   3.251   0.611   2.957  0.1640  0.8170 -1.0458
    8MOL   H141 1975   3.284   0.780   3.003 -0.5740 -0.8318 -3.4066
    8MOL   H142 1976   3.266   0.658   3.136  2.4802  2.6514  0.9069
    8MOL   H143 1977   3.573   0.475   3.070  0.8677  2.2934 -0.5022
    8MOL   H144 1978   3.444   0.455   2.951 -2.2681  0.9957  0.5548
    8MOL   C145 1979   3.390   0.423   3.163 -0.1569 -0.3266 -0.1037
    8MOL   C146 1980   3.424   0.280   3.178  0.6647  0.4617 -0.4402
    8MOL   C147 1981   3.403   0.203   3.287  0.3926  0.4385 -0.1179
    8MOL   C148 1982   3.320   0.248   3.408 -1.1141 -0.0293  0.0087
    8MOL   C149 1983   3.456   0.061   3.294 -0.3875  0.0304  0.0059
    8MOL   H150 1984   3.282   0.429   3.147  0.1487  2.2935 -1.4209
    8MOL   H151 1985   3.400   0.478   3.256  0.8093 -0.6715 -0.0011
    8MOL   H152 1986   3.481   0.243   3.094  2.2733  0.6615  0.5454
    8MOL   H153 1987   3.215   0.219   3.396 -1.2196 -0.0901  1.0203
    8MOL   H154 1988   3.329   0.355   3.425 -2.4947  0.6882 -3.4528
    8MOL   H155 1989   3.359   0.201   3.498  1.8850  2.2650 -0.0422
    8MOL   H156 1990   3.476   0.031   3.192  0.8299  1.8193 -0.3045
    8MOL   H157 1991   3.372   7.882   3.329 -1.1289  0.8610 -0.2962
    8MOL   C158 1992   3.588   0.054   3.378  0.3262  0.3761 -0.0419
    8MOL   C159 1993   3.639   7.794   3.378 -0.3696 -0.8009  0.4664
    8MOL   C160 1994   3.735   7.746   3.454 -0.2293 -0.5072 -0.0829
    8MOL   C161 1995   3.829   7.832   3.542  0.0484 -0.0557 -0.0328
    8MOL   C162 1996   3.769   7.596   3.463 -0.4776  0.6812 -0.0274
    8MOL   H163 1997   3.563   0.087   3.479  1.2175 -2.7673  1.2577
    8MOL   H164 1998   3.661   0.120   3.332  0.4820 -1.9350 -3.2252
    8MOL   H165 1999   3.590   7.724   3.313  3.0349 -2.0785 -0.8368
    8MOL   H166 2000   3.829   7.804   3.647 -1.7374  0.1829  0.0359
    8MOL   H167 2001   3.785   0.049   3.533  1.4846  0.4017 -2.4732
    8MOL   H168 2002   3.930   7.840   3.500  0.2624  0.6247  0.6008
    8MOL   H169 2003   3.872   7.591   3.428  0.0617  1.7204  1.3546
    8MOL   H170 2004   3.719   7.549   3.379  0.2157  0.3413 -0.2508
    8MOL   C171 2005   3.733   7.527   3.598  0.0732  0.4268  0.4837
    8MOL   C172 2006   3.584   7.511   3.624  0.2752  0.1330 -0.3687
    8MOL   C173 2007   3.510   7.563   3.725 -0.4754 -0.2039  0.1508
    8MOL   C174 2008   3.569   7.660   3.828  0.3168 -0.2020  1.2867
    8MOL   C175 2009   3.360   7.539   3.740 -1.0632 -0.7770 -0.4867
    8MOL   H176 2010   3.776   7.593   3.673 -2.2651  0.2891  2.0115
    8MOL   H177 2011   3.768   7.425   3.615  1.9542  1.4128  2.8162
    8MOL   H178 2012   3.535   7.457   3.544 -0.1541  1.5416 -1.0770
    8MOL   H179 2013   3.612   7.745   3.775 -2.4607  0.6609  0.3143
    8MOL   H180 2014   3.645   7.603   3.881  0.2764  0.5369  2.1588
    8MOL   H181 2015   3.497   7.694   3.903 -0.0154 -2.1049  1.8550
    8MOL   H182 2016   3.356   7.518   3.846  1.1087 -0.8118 -0.3808
    8MOL   H183 2017   3.335   7.450   3.682  1.9207 -1.8205 -0.2597
    8MOL   C184 2018   3.267   7.660   3.714  0.3741  0.3248 -0.2023
    8MOL   C185 2019   3.123   7.619   3.675 -0.1004  0.6387  0.3898
    8MOL   C186 2020   3.063   7.621   3.556 -0.3170 -0.1123 -0.0444
    8MOL   C187 2021   3.127   7.663   3.431 -0.4306 -0.1471 -0.3178
    8MOL   C188 2022   2.924   7.568   3.539 -0.1702 -0.0786  0.0284
    8MOL   H189 2023   3.315   7.726   3.641  0.0486  0.0001 -0.7086
    8MOL   H190 2024   3.251   7.717   3.806 -3.2295 -1.0547  0.1102
    8MOL   H191 2025   3.056   7.594   3.756 -0.8032  0.6928 -0.1683
    8MOL   H192 2026   3.107   7.770   3.423 -0.6384 -0.0748  1.1523
    8MOL   H193 2027   3.084   7.612   3.345  0.5704 -1.0588 -0.2791
    8MOL   H194 2028   3.235   7.660   3.429 -0.4261  0.2475 -1.4297
    8MOL   H195 2029   2.907   7.506   3.628  1.2986  0.5413  0.7617
    8MOL   H196 2030   2.927   7.507   3.449 -0.2858 -2.6590  1.6932
    8MOL   C197 2031   2.812   7.669   3.525 -0.3519  0.0128 -0.8001
    8MOL   C198 2032   2.686   7.598   3.490 -0.1841  0.5350  0.4215
    8MOL   C199 2033   2.566   7.655   3.481 -0.1261 -0.5047  0.0907
    8MOL   C200 2034   2.538   7.800   3.519 -0.4068  0.4669 -0.0697
    8MOL   C201 2035   2.445   7.568   3.446 -0.0848 -0.1433 -0.2840
    8MOL   H202 2036   2.828   7.739   3.443  1.6198  0.9108  0.3301
    8MOL   H203 2037   2.801   7.726   3.618 -1.0010 -1.3949  0.0081
    8MOL   H204 2038   2.697   7.492   3.470  4.1876  1.0915 -0.6967
    8MOL   H205 2039   2.443   7.810   3.570 -0.7472  0.6262 -0.7235
    8MOL   H206 2040   2.520   7.838   3.418  1.4503 -0.9020 -0.9418
    8MOL   H207 2041   2.617   7.865   3.558 -0.0730 -1.1473  2.0231
    8MOL   H208 2042   2.386   7.569   3.537 -1.8862  0.2677 -1.4187
    8MOL   H209 2043   2.488   7.470   3.428 -1.4910 -0.7782 -0.2222
    8MOL   C210 2044   2.366   7.602   3.320  0.3252  0.2773  0.0314
    8MOL   C211 2045   2.280   7.480   3.266  0.0562 -0.0738 -0.1899
    8MOL   C212 2046   2.266   7.443   3.134  0.4554 -0.3910 -0.6583
    8MOL   C213 2047   2.321   7.528   3.019 -0.1169 -0.2048  0.0935
    8MOL   C214 2048   2.188   7.321   3.098 -0.0288 -0.2158  0.0564
    8MOL   H215 2049   2.439   7.610   3.239 -2.4335 -2.5942 -2.9079
    8MOL   H216 2050   2.316   7.699   3.323  1.8489  1.0174  2.4593
    8MOL   H217 2051   2.230   7.418   3.339  0.1233  0.0232 -0.0621
    8MOL   H218 2052   2.407   7.592   3.043 -0.7397  0.5010  0.4800
    8MOL   H219 2053   2.249   7.602   2.984  0.3833 -0.0550 -0.6390
    8MOL   H220 2054   2.341   7.455   2.941 -0.0905  0.3559 -0.4360
    8MOL   H221 2055   2.145   7.274   3.186 -1.7537  2.2440  0.6095
    8MOL   H222 2056   2.254   7.252   3.046  1.0747  1.6743 -1.1210
    8MOL   C223 2057   2.081   7.343   2.989 -0.3736 -0.2683  0.8635
    8MOL   C224 2058   2.014   7.219   2.941 -0.3610  0.2501 -0.2016
    8MOL   C225 2059   1.884   7.208   2.931  0.1048 -0.0932  0.0988
    8MOL   C226 2060   1.783   7.318   2.970 -0.4665  0.4705  0.5386
    8MOL   C227 2061   1.810   7.080   2.904  0.2867 -0.6013  0.2299
    8MOL   H228 2062   2.138   7.372   2.901  0.7458 -1.0247  1.3409
    8MOL   H229 2063   2.014   7.421   3.027  0.8378  0.5923  1.2551
    8MOL   H230 2064   2.079   7.138   2.911 -1.2076 -1.0073  1.2424
    8MOL   H231 2065   1.697   7.279   3.025 -0.1101  0.1956  0.8976
    8MOL   H232 2066   1.750   7.358   2.874  1.6850  0.5136 -0.1959
    8MOL   H233 2067   1.822   7.403   3.027 -1.7953  0.9117  0.8337
    8MOL   H234 2068   1.729   7.065   2.974  0.2839  1.8309  0.7924
    8MOL   H235 2069   1.884   7.002   2.922  1.7220  0.1817 -1.9949
    8MOL   C236 2070   1.749   7.079   2.765  0.1938 -0.5596  0.0071
    8MOL   C237 2071   1.656   6.967   2.746  0.3433  0.0730 -0.1308
    8MOL   C238 2072   1.664   6.868   2.649  0.1672 -0.8006  0.5955
    8MOL   C239 2073   1.786   6.842   2.559 -0.7256 -0.1393 -0.2728
    8MOL   C240 2074   1.550   6.777   2.636  0.0386 -0.3632  0.3765
    8MOL   H241 2075   1.829   7.066   2.693  1.4865 -0.4701  1.4072
    8MOL   H242 2076   1.693   7.173   2.754 -1.1208 -1.3319 -0.0152
    8MOL   H243 2077   1.572   6.973   2.814 -0.5886 -0.9609 -1.1619
    8MOL   H244 2078   1.756   6.798   2.464 -1.3552 -1.1925  0.4080
    8MOL   H245 2079   1.860   6.776   2.604  0.0909  1.2872  0.5120
    8MOL   H246 2080   1.850   6.922   2.521  0.0665 -1.1378 -1.0545
    8MOL   H247 2081   1.532   6.743   2.534 -1.3819  1.2688  0.0551
    8MOL   H248 2082   1.469   6.831   2.685 -0.4638 -0.3124 -0.4931
    8MOL   C249 2083   1.562   6.630   2.703 -0.3603 -0.4177  0.1959
    8MOL   C250 2084   1.639   6.546   2.607 -0.0319  0.0242  0.1444
    8MOL   C251 2085   1.627   6.411   2.594 -0.0964  0.1997  0.4573
    8MOL   C252 2086   1.520   6.327   2.662  0.7086 -0.2167 -0.0823
    8MOL   C253 2087   1.733   6.333   2.513 -0.0478 -1.1398 -0.6699
    8MOL   H254 2088   1.460   6.596   2.718 -0.5518  0.3932  0.7719
    8MOL   H255 2089   1.618   6.629   2.797  1.2712 -3.4267 -0.7529
    8MOL   H256 2090   1.733   6.593   2.581  0.2529 -1.2986 -1.2926
    8MOL   H257 2091   1.558   6.225   2.675 -0.0827 -0.6422 -1.0065
    8MOL   H258 2092   1.431   6.319   2.600  1.4683 -2.3942 -0.9564
    8MOL   H259 2093   1.494   6.361   2.762  1.8076  2.7431 -0.7435
    8MOL   H260 2094   1.763   6.244   2.568  1.3940  0.7872  1.7670
    8MOL   H261 2095   1.828   6.385   2.497 -0.3669 -0.6021 -0.8131
    8MOL   H262 2096   1.684   6.312   2.418 -1.4642 -0.3610 -0.1155
    9MOL     C1 2097   4.063   2.709   4.940 -0.2857  0.4366  0.0786
    9MOL     C2 2098   4.052   2.854   4.928 -0.3422  0.0932  0.2580
    9MOL     C3 2099   4.069   2.923   4.815  0.2995 -0.0380 -0.4528
    9MOL     C4 2100   4.113   2.858   4.678 -0.2657  0.0930 -0.1462
    9MOL     C5 2101   4.029   3.067   4.826  0.4833 -0.0098  0.2089
    9MOL     H6 2102   4.159   2.659   4.929 -0.0470  0.0737  3.3400
    9MOL     H7 2103   4.028   2.676   5.038  2.0016  2.3002  1.5658
    9MOL     H8 2104   4.015   2.900   5.019 -1.2142  0.6746 -0.3742
    9MOL     H9 2105   4.169   2.927   4.615  2.4330 -1.1141  0.8088
    9MOL    H10 2106   4.025   2.835   4.618  0.9498 -1.2638 -1.4726
    9MOL    H11 2107   4.168   2.764   4.687 -0.0541  0.0961 -1.3017
    9MOL    H12 2108   4.100   3.137   4.781 -0.0267  1.2290  1.2790
    9MOL    H13 2109   4.028   3.104   4.929 -2.8357  0.6676 -0.0090
    9MOL    H14 2110   4.001   2.662   4.863  0.9163 -0.7041 -0.2053
    9MOL    C15 2111   3.890   3.087   4.765 -0.6763  0.1919 -0.2430
    9MOL    C16 2112   3.869   3.231   4.716 -0.9844  0.4666 -0.1312
    9MOL    C17 2113   3.806   3.333   4.779  0.3786 -0.3447  0.1646
    9MOL    C18 2114   3.733   3.323   4.902  0.0972  0.0495 -0.1923
    9MOL    C19 2115   3.787   3.462   4.703  0.3239 -0.4989  0.1146
    9MOL    H20 2116   3.810   3.061   4.834  0.2880 -1.7008  0.2013
    9MOL    H21 2117   3.880   3.024   4.677 -0.8414  0.0287 -0.1087
    9MOL    H22 2118   3.928   3.254   4.629 -0.0003  0.3310  0.4905
    9MOL    H23 2119   3.746   3.227   4.952  1.4354 -0.2568 -1.0895
    9MOL    H24 2120   3.625   3.334   4.891 -0.1026 -0.4808  1.2396
    9MOL    H25 2121   3.779   3.382   4.981 -0.1084 -0.8152  0.5712
    9MOL    H26 2122   3.682   3.490   4.694  0.5682  0.0929 -1.0532
    9MOL    H27 2123   3.819   3.447   4.599 -1.6537 -0.9606 -0.4526
    9MOL    C28 2124   3.851   3.591   4.770  0.4797  0.4775  0.1292
    9MOL    C29 2125   3.828   3.722   4.699 -0.4056 -0.0116  0.1142
    9MOL    C30 2126   3.915   3.788   4.616  0.2560 -0.6174 -0.1950
    9MOL    C31 2127   4.047   3.724   4.567  0.2564  0.3694  0.4208
    9MOL    C32 2128   3.892   3.927   4.560 -0.4883  0.2530 -0.6116
    9MOL    H33 2129   3.957   3.587   4.793  0.8974 -2.0129 -2.0212
    9MOL    H34 2130   3.801   3.609   4.865 -1.0236 -1.7617 -0.1911
    9MOL    H35 2131   3.740   3.773   4.734  0.7491  1.9676  0.1885
    9MOL    H36 2132   4.049   3.619   4.596 -0.9909 -0.0384 -0.9334
    9MOL    H37 2133   4.126   3.784   4.613 -0.1917 -0.1299  1.8601
    9MOL    H38 2134   4.061   3.723   4.459 -0.7515 -0.0609  0.2906
    9MOL    H39 2135   3.791   3.958   4.532 -0.1139 -0.4834 -2.8740
    9MOL    H40 2136   3.946   3.947   4.468  0.9716  3.0298  0.8039
    9MOL    C41 2137   3.955   4.033   4.647  0.8676  0.2574  0.3656
    9MOL    C42 2138   3.902   4.167   4.619 -0.1339  0.1210  0.1865
    9MOL    C43 2139   3.912   4.270   4.701  0.6760 -0.2875  0.0203
    9MOL    C44 2140   3.989   4.270   4.831 -0.3052 -0.4663  0.5161
    9MOL    C45 2141   3.843   4.404   4.668 -0.2484  0.4849  0.1197
    9MOL    H46 2142   4.063   4.033   4.633  1.0048 -2.9445  1.0540
    9MOL    H47 2143   3.928   4.010   4.751 -0.9915 -3.0919 -0.7881
    9MOL    H48 2144   3.850   4.186   4.527 -1.9279  0.4183  1.2520
    9MOL    H49 2145   3.964   4.182   4.890  1.0483 -1.0766  0.2170
    9MOL    H50 2146   3.959   4.355   4.892  1.5429 -0.2409  1.1657
    9MOL    H51 2147   4.097   4.280   4.820 -0.6201 -0.1311 -2.8985
    9MOL    H52 2148   3.762   4.414   4.741 -0.0727  0.4930  0.3145
    9MOL    H53 2149   3.797   4.386   4.571  1.2204  0.8894 -0.6628
    9MOL    C54 2150   3.943   4.523   4.658  0.4032 -0.0496 -0.1622
    9MOL    C55 2151   3.877   4.658   4.638  0.0648  0.4683 -0.4717
    9MOL    C56 2152   3.876   4.764   4.726  0.3283  0.2911  0.2153
    9MOL    C57 2153   3.944   4.772   4.863 -0.0922  0.0780  0.0087
    9MOL    C58 2154   3.801   4.892   4.687 -0.3009  0.8728 -0.2136
    9MOL    H59 2155   4.003   4.494   4.572  0.8093 -1.6751  0.6269
    9MOL    H60 2156   4.004   4.523   4.748 -0.6069 -1.8915  0.5661
    9MOL    H61 2157   3.814   4.657   4.551  2.3298  0.7351 -2.1483
    9MOL    H62 2158   3.994   4.869   4.872  1.0358 -0.3538 -1.4138
    9MOL    H63 2159   4.021   4.697   4.876 -0.4150 -0.0830  0.9974
    9MOL    H64 2160   3.884   4.752   4.952  0.6081  1.2514  0.7624
    9MOL    H65 2161   3.771   4.896   4.582 -2.1188 -0.8031  0.1909
    9MOL    H66 2162   3.867   4.977   4.701  1.9579 -0.2923 -3.1451
    9MOL    C67 2163   3.675   4.910   4.782  0.4118  0.0249 -0.4381
    9MOL    C68 2164   3.599   5.033   4.747 -0.4407  0.1859  0.5266
    9MOL    C69 2165   3.563   5.133   4.831 -0.1785  0.3637  0.7187
    9MOL    C70 2166   3.588   5.131   4.982 -0.5011 -0.5015  0.5719
    9MOL    C71 2167   3.468   5.243   4.792 -0.2690  0.1143 -0.1281
    9MOL    H72 2168   3.712   4.920   4.884 -0.1258 -0.2488 -0.2146
    9MOL    H73 2169   3.615   4.820   4.765  1.1143 -0.3249 -1.1160
    9MOL    H74 2170   3.564   5.027   4.645  2.0913 -0.8812 -0.3221
    9MOL    H75 2171   3.684   5.091   5.016 -0.1734  1.2632  1.8029
    9MOL    H76 2172   3.513   5.083   5.044 -2.1418  1.3330  0.0610
    9MOL    H77 2173   3.602   5.233   5.019  0.5947  0.1750 -1.6383
    9MOL    H78 2174   3.519   5.336   4.821  0.0666 -0.3048  0.6323
    9MOL    H79 2175   3.376   5.232   4.848 -0.4464 -0.1486 -0.4695
    9MOL    C80 2176   3.438   5.260   4.641  0.3403 -0.1531  0.0970
    9MOL    C81 2177   3.364   5.390   4.620  0.7280 -0.1414 -0.0200
    9MOL    C82 2178   3.399   5.501   4.550 -0.2190 -0.1560  0.0436
    9MOL    C83 2179   3.528   5.530   4.476  0.5307  0.0984 -0.0371
    9MOL    C84 2180   3.305   5.623   4.542  0.2263 -1.2792  0.1968
    9MOL    H85 2181   3.377   5.175   4.608  1.7524 -0.8459 -0.7822
    9MOL    H86 2182   3.528   5.268   4.580 -0.1113  0.1841 -0.5324
    9MOL    H87 2183   3.273   5.387   4.678  2.0081  2.0421  2.2194
    9MOL    H88 2184   3.514   5.566   4.374  1.6341 -0.4299 -0.3881
    9MOL    H89 2185   3.590   5.442   4.463 -1.4220 -1.4993  1.1897
    9MOL    H90 2186   3.584   5.611   4.525  1.1783 -0.7597  0.6583
    9MOL    H91 2187   3.289   5.648   4.438  0.2638 -3.3283 -0.3171
    9MOL    H92 2188   3.363   5.697   4.599 -0.6110 -0.5499  0.1156
    9MOL    C93 2189   3.163   5.606   4.604  0.3047 -0.8038 -0.0329
    9MOL    C94 2190   3.069   5.725   4.578 -0.6939  0.2554  0.0880
    9MOL    C95 2191   2.935   5.723   4.550 -0.4287 -0.0140  0.3406
    9MOL    C96 2192   2.854   5.596   4.530  0.6878 -0.0669 -0.0981
    9MOL    C97 2193   2.868   5.860   4.537  0.0865  0.2297  0.1060
    9MOL    H98 2194   3.175   5.593   4.712  1.5476  3.8567  0.5136
    9MOL    H99 2195   3.115   5.515   4.569  1.7632 -1.8052  0.5045
    9MOL   H100 2196   3.109   5.823   4.597  1.0826 -0.5525  0.5562
    9MOL   H101 2197   2.787   5.614   4.445 -0.5916 -0.6575  0.7768
    9MOL   H102 2198   2.805   5.569   4.623 -2.5470 -0.5614 -1.8643
    9MOL   H103 2199   2.928   5.522   4.500  2.0019  1.7501 -1.4698
    9MOL   H104 2200   2.783   5.837   4.473  0.7195  0.3693 -0.7951
    9MOL   H105 2201   2.933   5.931   4.485 -1.6135  0.2778 -2.0217
    9MOL   C106 2202   2.801   5.927   4.662 -0.0941 -0.6594 -0.1297
    9MOL   C107 2203   2.895   5.949   4.773  0.1185  0.1649 -0.2275
    9MOL   C108 2204   2.896   5.890   4.895 -0.0066 -0.9426 -0.0152
    9MOL   C109 2205   2.798   5.776   4.928 -0.3606  0.1500  0.4910
    9MOL   C110 2206   3.008   5.919   4.993 -0.0659 -0.8105  0.4694
    9MOL   H111 2207   2.715   5.869   4.696  0.1239 -1.1220 -0.3565
    9MOL   H112 2208   2.760   6.026   4.643  1.3448 -0.3157 -1.6424
    9MOL   H113 2209   2.971   6.023   4.751 -0.6442  1.2054  0.5749
    9MOL   H114 2210   2.762   5.718   4.843 -0.9095  0.2052  0.6866
    9MOL   H115 2211   2.720   5.818   4.991  0.3422  1.7640  0.3201
    9MOL   H116 2212   2.852   5.706   4.991  2.2125  1.8521  0.2853
    9MOL   H117 2213   2.953   5.936   5.085 -0.8038 -0.8405  0.0379
    9MOL   H118 2214   3.050   6.016   4.969 -0.9717 -0.7442 -0.8746
    9MOL   C119 2215   3.118   5.815   5.007  0.3353 -0.0604  0.2006
    9MOL   C120 2216   3.179   5.813   5.147  0.4869  0.2763 -0.0316
    9MOL   C121 2217   3.312   5.818   5.176  0.3641  0.2272  0.2386
    9MOL   C122 2218   3.420   5.804   5.068 -0.1262 -0.2436 -0.5829
    9MOL   C123 2219   3.358   5.812   5.318  0.6413 -0.1097  0.4461
    9MOL   H124 2220   3.187   5.817   4.922 -0.1633 -0.7571 -0.2238
    9MOL   H125 2221   3.070   5.720   4.984 -0.3676  0.1569  0.7703
    9MOL   H126 2222   3.107   5.813   5.227  1.2480  2.1574  0.6801
    9MOL   H127 2223   3.465   5.705   5.080  0.0405 -0.1890 -0.7543
    9MOL   H128 2224   3.500   5.876   5.086 -0.1953 -0.7612  2.0504
    9MOL   H129 2225   3.373   5.815   4.971 -1.2456  0.2431  0.0115
    9MOL   H130 2226   3.418   5.902   5.330  1.6834 -0.7660  0.1830
    9MOL   H131 2227   3.409   5.718   5.339  0.5509 -0.1475  0.5021
    9MOL   C132 2228   3.254   5.826   5.439  0.3319 -0.8529 -0.4061
    9MOL   C133 2229   3.190   5.966   5.438  0.0499 -0.1982  0.3592
    9MOL   C134 2230   3.142   6.049   5.531 -0.3962  0.0737  0.1151
    9MOL   C135 2231   3.123   6.000   5.673 -0.9393  0.8573 -0.0134
    9MOL   C136 2232   3.102   6.196   5.500 -0.6554  0.3561 -0.0677
    9MOL   H137 2233   3.293   5.805   5.539  2.2145  0.0336 -0.9437
    9MOL   H138 2234   3.170   5.760   5.416 -0.6650 -0.5596  2.2035
    9MOL   H139 2235   3.198   6.018   5.344  1.7405  2.4187  1.8869
    9MOL   H140 2236   3.189   5.919   5.704  0.0979  1.4695 -0.5987
    9MOL   H141 2237   3.018   5.977   5.693 -0.8900 -0.5675 -1.3104
    9MOL   H142 2238   3.148   6.086   5.736 -0.4195  0.8492 -0.2044
    9MOL   H143 2239   3.001   6.228   5.525 -0.0584  2.2720  0.0439
    9MOL   H144 2240   3.111   6.199   5.391 -2.9128 -2.7621 -0.4049
    9MOL   C145 2241   3.198   6.303   5.558 -0.4700  0.1805 -0.1989
    9MOL   C146 2242   3.196   6.441   5.500 -0.1602 -0.1709  0.2017
    9MOL   C147 2243   3.197   6.564   5.555 -0.1732  0.1864  0.1603
    9MOL   C148 2244   3.217   6.575   5.703 -0.7426  0.2485  0.3242
    9MOL   C149 2245   3.194   6.690   5.478 -0.6608 -0.2529 -0.6234
    9MOL   H150 2246   3.302   6.270   5.553  0.4346  2.8933 -0.0484
    9MOL   H151 2247   3.166   6.314   5.661 -2.6072  0.8624 -0.9102
    9MOL   H152 2248   3.202   6.442   5.392  0.1352 -0.6843  0.2102
    9MOL   H153 2249   3.124   6.582   5.759 -1.0500 -0.5043 -0.0771
    9MOL   H154 2250   3.287   6.654   5.731 -1.2494  1.7504 -2.4553
    9MOL   H155 2251   3.266   6.486   5.741 -0.5926 -0.8396 -2.2879
    9MOL   H156 2252   3.148   6.767   5.540  0.1490 -0.0750 -0.2328
    9MOL   H157 2253   3.131   6.690   5.389 -0.9192  0.3784 -0.4393
    9MOL   C158 2254   3.342   6.717   5.437 -0.1961  0.0130  0.2329
    9MOL   C159 2255   3.356   6.857   5.375 -0.0003 -0.1983  0.1638
    9MOL   C160 2256   3.435   6.962   5.411  0.5273  0.0217 -0.0270
    9MOL   C161 2257   3.544   6.964   5.515 -0.7813  0.0061 -0.0361
    9MOL   C162 2258   3.413   7.096   5.334 -0.0859 -0.3139  0.2314
    9MOL   H163 2259   3.365   6.644   5.359  0.2757  2.0901 -1.6118
    9MOL   H164 2260   3.402   6.711   5.527 -1.4184 -0.3670  1.0238
    9MOL   H165 2261   3.280   6.870   5.300 -0.3183 -1.6990  0.2180
    9MOL   H166 2262   3.636   6.977   5.458 -0.5462 -0.3832  0.2519
    9MOL   H167 2263   3.550   6.873   5.575  3.2317  1.3778  1.8096
    9MOL   H168 2264   3.548   7.052   5.579 -1.7562 -0.6841  0.9722
    9MOL   H169 2265   3.355   7.085   5.242  0.2212  0.4448 -0.0612
    9MOL   H170 2266   3.502   7.155   5.313  1.1856 -1.7847  1.3926
    9MOL   C171 2267   3.338   7.191   5.429  0.3501 -0.7750 -0.0936
    9MOL   C172 2268   3.324   7.330   5.370 -0.1538  0.2470  0.1904
    9MOL   C173 2269   3.412   7.434   5.369  0.6964  0.0640 -0.6747
    9MOL   C174 2270   3.541   7.428   5.448 -0.0487  0.1340 -0.5482
    9MOL   C175 2271   3.367   7.557   5.307  0.0180  0.4067 -0.0676
    9MOL   H176 2272   3.382   7.208   5.527  1.8523  0.7104 -1.0133
    9MOL   H177 2273   3.235   7.156   5.441 -0.4164  1.4546  0.2061
    9MOL   H178 2274   3.232   7.327   5.314 -0.0656  1.8885 -0.0747
    9MOL   H179 2275   3.584   7.328   5.455 -0.6374 -0.2945 -2.6447
    9MOL   H180 2276   3.525   7.471   5.546  3.4173 -0.0948  0.1876
    9MOL   H181 2277   3.614   7.483   5.388  0.7275 -0.0896  0.1824
    9MOL   H182 2278   3.397   7.636   5.376  0.1227 -0.5347  0.9887
    9MOL   H183 2279   3.258   7.564   5.307  0.0145  0.4161 -1.0071
    9MOL   C184 2280   3.428   7.571   5.169 -0.2060  0.3347 -0.1606
    9MOL   C185 2281   3.335   7.672   5.093  0.3021 -0.3538  0.4423
    9MOL   C186 2282   3.375   7.779   5.021  0.4455 -0.2083  0.0018
    9MOL   C187 2283   3.521   7.808   5.006  1.0412  0.5880 -0.2961
    9MOL   C188 2284   3.280   7.875   4.958  0.2741  0.1649  0.3219
    9MOL   H189 2285   3.428   7.482   5.106 -0.6041  1.3451 -1.6084
    9MOL   H190 2286   3.534   7.596   5.166 -0.3296  0.7542 -1.0896
    9MOL   H191 2287   3.229   7.656   5.103  0.0427  0.9349 -0.1800
    9MOL   H192 2288   3.549   0.008   5.071 -2.0117  1.9669 -0.6243
    9MOL   H193 2289   3.534   7.851   4.907 -0.9675  1.3212 -0.2675
    9MOL   H194 2290   3.585   7.720   5.011  0.3597  0.1085  0.0716
    9MOL   H195 2291   3.288   0.093   4.999 -0.8267  0.3674  0.0562
    9MOL   H196 2292   3.182   7.850   4.997  0.0983  1.3813  0.6709
    9MOL   C197 2293   3.282   7.865   4.798  0.0748 -0.4497  0.8932
    9MOL   C198 2294   3.171   0.058   4.725 -0.1733 -0.4434  0.4756
    9MOL   C199 2295   3.094   0.014   4.626  0.9994  0.3437  0.2087
    9MOL   C200 2296   3.104   7.771   4.543 -0.9070 -0.3823  0.3065
    9MOL   C201 2297   2.969   0.099   4.590  0.6836 -0.1093 -0.4198
    9MOL   H202 2298   3.276   7.762   4.764  2.2200 -0.1917 -0.3844
    9MOL   H203 2299   3.379   0.015   4.759 -0.9435  0.2697 -1.0997
    9MOL   H204 2300   3.141   0.153   4.767 -3.2128 -0.0406 -2.4518
    9MOL   H205 2301   3.023   7.737   4.478  0.2007 -0.8779 -0.8420
    9MOL   H206 2302   3.119   7.681   4.603 -2.6068 -1.6656 -1.1519
    9MOL   H207 2303   3.189   7.779   4.475 -1.3393  2.2608  0.0088
    9MOL   H208 2304   2.960   0.102   4.481  0.1772 -0.9096 -0.4093
    9MOL   H209 2305   2.991   0.200   4.624 -0.6143  0.2292 -0.5488
    9MOL   C210 2306   2.848   0.052   4.670 -0.0288 -0.7974  1.1600
    9MOL   C211 2307   2.716   0.124   4.643 -0.1037 -0.5428 -0.7612
    9MOL   C212 2308   2.641   0.109   4.533 -0.9770 -0.1859 -0.3919
    9MOL   C213 2309   2.662   0.018   4.410 -0.1125  0.0411 -0.2173
    9MOL   C214 2310   2.519   0.211   4.524  0.5442  0.4477  0.6383
    9MOL   H215 2311   2.869   0.048   4.777  0.2322 -0.1942  1.1318
    9MOL   H216 2312   2.830   7.829   4.650 -1.6811 -0.0866 -1.2740
    9MOL   H217 2313   2.688   0.205   4.708  0.4331 -0.8228 -0.1610
    9MOL   H218 2314   2.751   7.838   4.420 -0.8800 -1.2760 -1.5118
    9MOL   H219 2315   2.685   0.089   4.331 -1.5728  2.6970  1.6616
    9MOL   H220 2316   2.580   7.832   4.387  1.0517 -1.4444 -0.0800
    9MOL   H221 2317   2.495   0.244   4.423  1.0412 -1.5998 -0.2001
    9MOL   H222 2318   2.540   0.306   4.572 -1.0086  0.7534  0.7337
    9MOL   C223 2319   2.400   0.149   4.595  0.4757  0.1051 -0.3890
    9MOL   C224 2320   2.276   0.232   4.614  0.7835 -0.5658  0.0848
    9MOL   C225 2321   2.160   0.198   4.553  0.1456 -0.2670  0.4267
    9MOL   C226 2322   2.141   0.092   4.445 -0.5345 -0.0231 -0.6445
    9MOL   C227 2323   2.035   0.289   4.569  0.1088 -0.1394 -0.1059
    9MOL   H228 2324   2.434   0.118   4.694 -0.6468  0.6903  0.1932
    9MOL   H229 2325   2.373   0.056   4.545 -2.0224 -0.1114  1.2942
    9MOL   H230 2326   2.285   0.319   4.676 -1.6266 -1.0946  1.2091
    9MOL   H231 2327   2.061   0.026   4.480 -0.7388 -0.1377 -1.3039
    9MOL   H232 2328   2.224   0.022   4.438 -0.5402 -0.2272  1.1032
    9MOL   H233 2329   2.111   0.140   4.352  1.7592 -0.4831 -1.6594
    9MOL   H234 2330   1.996   0.332   4.476 -1.4406  0.9499  1.0265
    9MOL   H235 2331   2.067   0.369   4.635 -0.8291 -0.9894  1.4105
    9MOL   C236 2332   1.920   0.215   4.648 -0.4009  0.0224  0.4893
    9MOL   C237 2333   1.802   0.313   4.667  0.1670  0.0815  0.1369
    9MOL   C238 2334   1.741   0.356   4.779 -0.1136  0.8687 -0.3752
    9MOL   C239 2335   1.793   0.317   4.905  0.3537 -0.0580 -0.3377
    9MOL   C240 2336   1.610   0.433   4.774 -0.6009  0.1133  0.0088
    9MOL   H241 2337   1.963   0.166   4.736  0.8455 -0.2003 -0.2299
    9MOL   H242 2338   1.875   0.145   4.577 -1.3447  1.7422 -0.6512
    9MOL   H243 2339   1.755   0.348   4.577  0.2068  0.7572  0.3693
    9MOL   H244 2340   1.748   0.223   4.938  2.7960 -1.5602 -1.0812
    9MOL   H245 2341   1.767   0.388   4.983 -1.6253 -1.5273  0.3933
    9MOL   H246 2342   1.900   0.296   4.906 -0.0600 -2.2560  1.5254
    9MOL   H247 2343   1.587   0.451   4.669 -1.6120  1.5886  0.4852
    9MOL   H248 2344   1.635   0.533   4.810  0.9490 -0.0038 -0.7061
    9MOL   C249 2345   1.491   0.370   4.845  0.6586  0.7143  0.1686
    9MOL   C250 2346   1.358   0.426   4.812 -0.2103  0.2438 -0.1029
    9MOL   C251 2347   1.241   0.358   4.797 -0.0926 -0.0152  0.3343
    9MOL   C252 2348   1.227   0.209   4.793 -0.2347 -0.4533 -0.3975
    9MOL   C253 2349   1.114   0.435   4.750 -0.2712  0.5635  0.6931
    9MOL   H254 2350   1.513   0.376   4.952 -1.8713 -1.8877  0.8951
    9MOL   H255 2351   1.488   0.263   4.824 -0.3895  0.4950  1.3432
    9MOL   H256 2352   1.348   0.532   4.794 -0.8196  0.5325  1.7872
    9MOL   H257 2353   1.211   0.168   4.693  1.1306 -0.4506 -0.6345
    9MOL   H258 2354   1.151   0.172   4.862 -0.9571 -1.3776 -1.6632
    9MOL   H259 2355   1.319   0.161   4.826  0.0158  1.0962  1.2162
    9MOL   H260 2356   1.132   0.542   4.746  0.6789  0.3766 -0.2651
    9MOL   H261 2357   1.032   0.411   4.817  0.6211  0.6217  1.8154
    9MOL   H262 2358   1.084   0.396   4.652 -0.5910  2.1296  0.1577
   10MOL     C1 2359   5.369   1.520   4.666  0.4480 -0.1913  0.1740
   10MOL     C2 2360   5.289   1.538   4.530  0.1154 -0.1469 -0.3278
   10MOL     C3 2361   5.208   1.451   4.468  0.0358 -0.3184  0.5364
   10MOL     C4 2362   5.166   1.319   4.531 -0.1692  0.7350  0.0019
   10MOL     C5 2363   5.150   1.484   4.326  0.1536 -0.1019  0.3646
   10MOL     H6 2364   5.342   1.608   4.726 -1.8646 -0.7355  0.0074
   10MOL     H7 2365   5.355   1.429   4.724 -1.8903 -0.6085 -0.9750
   10MOL     H8 2366   5.306   1.630   4.477 -0.7255 -0.4323 -1.1254
   10MOL     H9 2367   5.192   1.325   4.637 -3.6162 -0.4190  0.9754
   10MOL    H10 2368   5.219   1.236   4.485 -3.0552 -1.6028  0.6977
   10MOL    H11 2369   5.057   1.310   4.528 -0.1839  0.8815  0.0719
   10MOL    H12 2370   5.188   1.582   4.298 -1.0551 -0.1061 -1.3948
   10MOL    H13 2371   5.042   1.495   4.338  0.2886  1.2819  0.3631
   10MOL    H14 2372   5.473   1.519   4.633  0.4895 -0.1063  0.3012
   10MOL    C15 2373   5.183   1.379   4.215 -0.6387 -0.3036 -0.4422
   10MOL    C16 2374   5.156   1.443   4.080  0.0654  0.1772  0.5534
   10MOL    C17 2375   5.223   1.426   3.963  0.2401 -0.3035 -0.1270
   10MOL    C18 2376   5.333   1.331   3.940 -0.2221 -0.2121  0.3578
   10MOL    C19 2377   5.184   1.506   3.843 -0.2449  0.3162  0.2293
   10MOL    H20 2378   5.124   1.289   4.231  0.1637 -0.7777 -0.1036
   10MOL    H21 2379   5.287   1.348   4.228 -0.2593  1.1074 -0.0039
   10MOL    H22 2380   5.077   1.517   4.079 -0.9603 -0.9069 -1.5824
   10MOL    H23 2381   5.374   1.278   4.026 -0.5958 -0.1681  0.5631
   10MOL    H24 2382   5.414   1.369   3.877 -1.7819  0.3197 -1.3659
   10MOL    H25 2383   5.290   1.248   3.885 -0.8396  0.1153  0.3432
   10MOL    H26 2384   5.282   1.539   3.809  0.9125 -2.1890  1.0041
   10MOL    H27 2385   5.130   1.591   3.885  0.2656  0.2790  0.9657
   10MOL    C28 2386   5.096   1.430   3.740  0.0021 -0.0764  0.4573
   10MOL    C29 2387   4.956   1.406   3.796 -0.2013 -0.1327  0.4975
   10MOL    C30 2388   4.887   1.292   3.811 -0.4501 -0.6246 -0.8745
   10MOL    C31 2389   4.944   1.156   3.779  0.2732  0.1613  0.5883
   10MOL    C32 2390   4.746   1.286   3.863 -0.1839  0.4755  0.2226
   10MOL    H33 2391   5.155   1.340   3.725 -0.3665 -0.9273  3.8687
   10MOL    H34 2392   5.091   1.473   3.639 -1.2321 -0.2348  0.4457
   10MOL    H35 2393   4.911   1.496   3.834  0.3348  1.0409 -1.6124
   10MOL    H36 2394   5.048   1.159   3.745  0.0557  0.3662 -0.0695
   10MOL    H37 2395   4.891   1.125   3.689  0.8628 -0.3655  0.4197
   10MOL    H38 2396   4.936   1.082   3.858 -1.3453  1.9649  2.1730
   10MOL    H39 2397   4.721   1.390   3.885  0.6789  0.3808  1.7109
   10MOL    H40 2398   4.761   1.222   3.949  1.4827 -1.1333 -1.2237
   10MOL    C41 2399   4.640   1.229   3.766 -0.2152  0.4102 -0.1434
   10MOL    C42 2400   4.499   1.243   3.823 -0.9069  0.2516  0.3942
   10MOL    C43 2401   4.455   1.164   3.924  0.6428 -0.3398  0.1116
   10MOL    C44 2402   4.529   1.039   3.980  0.2020  0.0366 -0.3200
   10MOL    C45 2403   4.323   1.186   3.996 -0.0338 -0.0188  0.3190
   10MOL    H46 2404   4.647   1.121   3.752  1.0260  0.6010 -1.0525
   10MOL    H47 2405   4.639   1.290   3.676  2.3268 -0.6122 -0.8985
   10MOL    H48 2406   4.429   1.317   3.787 -1.3491  0.3702  1.4799
   10MOL    H49 2407   4.563   1.074   4.078  0.3128 -0.8568 -0.0335
   10MOL    H50 2408   4.621   1.005   3.933  0.0481 -0.7807 -0.0370
   10MOL    H51 2409   4.459   0.958   3.999  0.0356  0.3856  0.6206
   10MOL    H52 2410   4.255   1.101   3.985 -0.2619  0.2803 -0.6664
   10MOL    H53 2411   4.275   1.269   3.944 -0.9204 -0.1623  0.8843
   10MOL    C54 2412   4.348   1.221   4.146  0.7365 -0.0228 -0.3293
   10MOL    C55 2413   4.217   1.259   4.214  0.5453  0.2697 -0.0508
   10MOL    C56 2414   4.200   1.350   4.307 -0.8492  0.1595 -0.0847
   10MOL    C57 2415   4.320   1.432   4.352 -0.0154  0.8590 -0.0076
   10MOL    C58 2416   4.073   1.357   4.392  0.8149  0.0569  0.1881
   10MOL    H59 2417   4.431   1.292   4.146  0.9246 -0.1587 -3.4110
   10MOL    H60 2418   4.379   1.138   4.210 -1.6915 -0.5760  0.1899
   10MOL    H61 2419   4.131   1.197   4.194 -0.0265  1.4790 -1.4590
   10MOL    H62 2420   4.404   1.367   4.374 -0.5726  0.4148  0.8060
   10MOL    H63 2421   4.301   1.485   4.446 -0.1520  3.3198 -1.3820
   10MOL    H64 2422   4.349   1.504   4.275  0.9294 -1.8014 -2.2031
   10MOL    H65 2423   4.105   1.328   4.493 -0.7946 -1.1518  0.3673
   10MOL    H66 2424   4.016   1.272   4.355  2.6014  0.2115 -3.0945
   10MOL    C67 2425   4.006   1.496   4.366 -0.0442 -0.0619 -0.2911
   10MOL    C68 2426   3.876   1.515   4.441  0.4327 -0.2775 -0.4713
   10MOL    C69 2427   3.758   1.544   4.397  0.3447 -0.5182 -0.3262
   10MOL    C70 2428   3.729   1.579   4.252  0.4064  0.2728 -0.7488
   10MOL    C71 2429   3.632   1.554   4.482 -0.1141 -0.0951  0.0150
   10MOL    H72 2430   3.988   1.507   4.259 -1.4403 -0.2429 -0.0862
   10MOL    H73 2431   4.069   1.580   4.395  0.5736 -0.5399 -0.2506
   10MOL    H74 2432   3.895   1.490   4.545  1.5469 -0.5322 -0.7259
   10MOL    H75 2433   3.823   1.612   4.208  1.8239 -2.7344 -0.1762
   10MOL    H76 2434   3.650   1.651   4.231 -0.6490 -0.0913  1.8207
   10MOL    H77 2435   3.692   1.493   4.196 -0.9805 -0.5066  1.3107
   10MOL    H78 2436   3.585   1.647   4.447  0.5647  1.3578  2.8104
   10MOL    H79 2437   3.668   1.574   4.583  0.4035 -1.2281  0.0551
   10MOL    C80 2438   3.535   1.432   4.478 -0.1211  0.4248  0.4068
   10MOL    C81 2439   3.409   1.441   4.561  0.1317 -0.1865  0.2887
   10MOL    C82 2440   3.356   1.354   4.638 -0.7222  0.4194  0.2066
   10MOL    C83 2441   3.423   1.221   4.685  0.4870 -0.4307  0.0976
   10MOL    C84 2442   3.225   1.392   4.707  0.8327  0.2136  0.2148
   10MOL    H85 2443   3.595   1.347   4.510 -0.3710 -0.6734 -1.9416
   10MOL    H86 2444   3.512   1.408   4.374  1.5778 -1.6876  0.4901
   10MOL    H87 2445   3.358   1.531   4.531  1.5281  0.3432 -0.5118
   10MOL    H88 2446   3.524   1.200   4.650  0.5101  1.0082 -0.7039
   10MOL    H89 2447   3.354   1.145   4.648  2.7874 -1.4612 -2.2141
   10MOL    H90 2448   3.426   1.216   4.794 -0.2720  1.3257  0.2109
   10MOL    H91 2449   3.166   1.302   4.725  1.1086 -0.3099 -1.4504
   10MOL    H92 2450   3.164   1.447   4.636  0.9575  2.4413  1.8058
   10MOL    C93 2451   3.243   1.455   4.845 -0.2215 -0.5643 -0.7980
   10MOL    C94 2452   3.338   1.581   4.850 -0.1218 -0.4184 -0.2638
   10MOL    C95 2453   3.355   1.661   4.958  0.3036 -0.1540 -0.7105
   10MOL    C96 2454   3.284   1.647   5.086 -0.2444 -0.1581 -0.1771
   10MOL    C97 2455   3.454   1.768   4.939 -0.1695 -0.5920 -0.0994
   10MOL    H98 2456   3.299   1.380   4.900 -0.0363 -0.4604 -0.8436
   10MOL    H99 2457   3.142   1.474   4.883  1.1545 -0.1120  2.9210
   10MOL   H100 2458   3.407   1.590   4.768  0.5068  1.4003  0.4480
   10MOL   H101 2459   3.222   1.558   5.093  1.8544 -1.8049 -2.0063
   10MOL   H102 2460   3.221   1.734   5.104  1.9305  1.4800 -0.2132
   10MOL   H103 2461   3.361   1.631   5.162 -0.8461 -0.6779  0.3257
   10MOL   H104 2462   3.501   1.769   4.841 -2.6980  2.8619 -1.4028
   10MOL   H105 2463   3.534   1.747   5.010  0.7508 -1.1209 -1.2884
   10MOL   C106 2464   3.386   1.908   4.962 -0.4624 -0.5674 -0.1658
   10MOL   C107 2465   3.486   2.021   4.946 -0.2438 -0.1024  0.0683
   10MOL   C108 2466   3.482   2.107   4.842 -0.2736 -0.3570 -0.3080
   10MOL   C109 2467   3.379   2.094   4.734  0.1782 -0.4765  0.5477
   10MOL   C110 2468   3.587   2.208   4.812 -0.7230  0.6936 -0.3163
   10MOL   H111 2469   3.356   1.917   5.066 -1.1368 -2.1036 -0.2241
   10MOL   H112 2470   3.294   1.919   4.906 -0.4550  0.0529 -0.0597
   10MOL   H113 2471   3.567   2.023   5.017  0.4151  0.2783 -0.6871
   10MOL   H114 2472   3.377   1.993   4.694 -0.3793 -0.1777 -0.1929
   10MOL   H115 2473   3.390   2.161   4.649  0.0847  1.2358  1.8454
   10MOL   H116 2474   3.283   2.115   4.782 -0.2594 -0.4818 -0.3165
   10MOL   H117 2475   3.615   2.263   4.902 -2.4381 -0.0878  0.7396
   10MOL   H118 2476   3.556   2.287   4.745  3.8709  1.2471 -1.8816
   10MOL   C119 2477   3.714   2.138   4.749  0.0431 -0.0926  0.1365
   10MOL   C120 2478   3.819   2.245   4.717  0.3822 -0.3810  0.5042
   10MOL   C121 2479   3.942   2.263   4.764 -0.1387  0.3952 -0.6464
   10MOL   C122 2480   3.998   2.179   4.878  0.4860  0.2747 -0.3942
   10MOL   C123 2481   4.038   2.364   4.710 -0.2232  0.3989 -0.0531
   10MOL   H124 2482   3.677   2.099   4.654 -1.5833 -1.3372  1.2374
   10MOL   H125 2483   3.757   2.064   4.817 -1.3860 -3.1571 -2.1464
   10MOL   H126 2484   3.798   2.308   4.632  0.1617 -1.7460 -0.4712
   10MOL   H127 2485   4.054   2.093   4.843  2.5533  1.3387  0.2406
   10MOL   H128 2486   3.928   2.143   4.953 -1.5878  4.4295 -0.2020
   10MOL   H129 2487   4.068   2.246   4.928 -1.5546  1.7279  0.5617
   10MOL   H130 2488   4.086   2.429   4.783 -0.3603  1.8146 -1.2130
   10MOL   H131 2489   3.978   2.424   4.642 -2.7834 -0.7199  1.1354
   10MOL   C132 2490   4.145   2.305   4.622 -0.5065  0.7379 -0.1504
   10MOL   C133 2491   4.251   2.405   4.575 -0.0458 -0.1054  1.0365
   10MOL   C134 2492   4.355   2.377   4.491 -0.3817  0.6812  0.2727
   10MOL   C135 2493   4.381   2.240   4.429  0.8079 -0.1162  0.2586
   10MOL   C136 2494   4.457   2.478   4.456  0.0589 -0.6691  0.2968
   10MOL   H137 2495   4.091   2.264   4.536 -0.2241 -0.8918  0.4446
   10MOL   H138 2496   4.195   2.216   4.659  0.1603  0.6636 -1.1930
   10MOL   H139 2497   4.248   2.495   4.634 -2.7197 -0.4184  1.4371
   10MOL   H140 2498   4.452   2.187   4.493  0.6967  0.3105  0.7411
   10MOL   H141 2499   4.422   2.238   4.328  0.1472 -2.0787  0.0121
   10MOL   H142 2500   4.289   2.182   4.434 -0.8192  2.1369 -1.9725
   10MOL   H143 2501   4.445   2.557   4.530 -2.7846 -2.2588  1.6115
   10MOL   H144 2502   4.437   2.513   4.355  0.2619 -0.4674  0.3252
   10MOL   C145 2503   4.603   2.431   4.481  0.0716 -0.4722 -0.2001
   10MOL   C146 2504   4.710   2.541   4.502 -0.3546  0.0686 -0.4237
   10MOL   C147 2505   4.735   2.631   4.601  0.6586  0.0554  0.5072
   10MOL   C148 2506   4.656   2.634   4.732  0.0423 -0.0907 -0.0625
   10MOL   C149 2507   4.843   2.739   4.587 -0.5312  0.2302 -0.9774
   10MOL   H150 2508   4.633   2.362   4.403  0.1119 -0.4728 -0.1843
   10MOL   H151 2509   4.604   2.373   4.573  0.8057 -1.0776 -0.5804
   10MOL   H152 2510   4.781   2.560   4.423 -0.4911 -0.6035 -0.7089
   10MOL   H153 2511   4.627   2.736   4.755  1.3115  0.1545  0.5165
   10MOL   H154 2512   4.719   2.606   4.816  1.4569 -1.0948 -1.4370
   10MOL   H155 2513   4.575   2.560   4.728  0.9273 -1.2271  2.1080
   10MOL   H156 2514   4.805   2.840   4.599  1.3319  0.8023  0.4462
   10MOL   H157 2515   4.876   2.736   4.483  0.3455 -2.0010 -0.6807
   10MOL   C158 2516   4.959   2.711   4.685 -0.3182  0.2327  0.2486
   10MOL   C159 2517   5.085   2.793   4.670  0.0558  0.2693  0.3034
   10MOL   C160 2518   5.095   2.921   4.707  0.1187  0.3150  0.1828
   10MOL   C161 2519   4.984   2.995   4.776 -0.2063 -0.0051 -0.1860
   10MOL   C162 2520   5.226   2.990   4.702 -0.7850 -0.3034 -0.9815
   10MOL   H163 2521   4.995   2.610   4.666 -1.4023 -1.0723  4.4849
   10MOL   H164 2522   4.929   2.717   4.790  1.8838  0.8930  0.8764
   10MOL   H165 2523   5.169   2.743   4.625 -0.0538 -0.3758  0.8038
   10MOL   H166 2524   4.897   2.935   4.803  0.2738 -1.1859 -1.2179
   10MOL   H167 2525   4.947   3.068   4.705  1.4725  0.3969 -0.6653
   10MOL   H168 2526   5.019   3.036   4.871  0.6450 -1.5678  0.2035
   10MOL   H169 2527   5.216   3.097   4.679 -0.6772 -1.0373 -4.8182
   10MOL   H170 2528   5.286   2.963   4.615 -0.6765  0.6668 -1.2206
   10MOL   C171 2529   5.312   2.971   4.831 -0.3836  1.4003  0.1635
   10MOL   C172 2530   5.421   3.068   4.842 -0.3172  0.4067  0.4835
   10MOL   C173 2531   5.554   3.037   4.858  1.1509 -0.4086  0.6536
   10MOL   C174 2532   5.608   2.895   4.873  0.2345 -0.3600  0.2648
   10MOL   C175 2533   5.667   3.141   4.868  0.2751  0.4233  0.2687
   10MOL   H176 2534   5.342   2.866   4.829 -1.5444  0.9976  1.9191
   10MOL   H177 2535   5.244   2.980   4.916 -1.0168  2.4826 -0.4565
   10MOL   H178 2536   5.388   3.169   4.823 -0.5800  0.2146 -0.0942
   10MOL   H179 2537   5.713   2.904   4.846  0.0655 -0.4350 -0.4416
   10MOL   H180 2538   5.574   2.827   4.794  1.3881 -0.2911 -0.3078
   10MOL   H181 2539   5.609   2.852   4.973  0.2209 -1.2857 -0.1278
   10MOL   H182 2540   5.751   3.113   4.804  0.4150  1.1104  0.1491
   10MOL   H183 2541   5.703   3.121   4.970  1.4631  0.1742 -0.1897
   10MOL   C184 2542   5.625   3.288   4.851  0.3963  0.0930 -0.4911
   10MOL   C185 2543   5.749   3.373   4.842  0.4668 -0.2435 -0.3250
   10MOL   C186 2544   5.769   3.498   4.897  0.2022 -1.2450 -0.3103
   10MOL   C187 2545   5.673   3.574   4.989  0.7382  0.4240 -0.5110
   10MOL   C188 2546   5.901   3.575   4.864  0.6786 -0.7576 -0.2447
   10MOL   H189 2547   5.563   3.324   4.933  0.7976  0.6007 -0.4092
   10MOL   H190 2548   5.570   3.311   4.760  3.3476 -0.0394 -2.3727
   10MOL   H191 2549   5.823   3.328   4.778 -0.1427 -3.2206  0.9858
   10MOL   H192 2550   5.676   3.680   4.962 -1.7416  0.7070  0.2311
   10MOL   H193 2551   5.711   3.584   5.091  1.3987 -2.7258 -0.4084
   10MOL   H194 2552   5.570   3.540   4.979  1.0661 -1.1494  1.1696
   10MOL   H195 2553   5.982   3.504   4.848  0.6899 -1.9442  4.2282
   10MOL   H196 2554   5.930   3.633   4.952  1.5518  1.2728 -1.8320
   10MOL   C197 2555   5.890   3.675   4.746  0.6932 -0.1854 -0.2179
   10MOL   C198 2556   6.016   3.751   4.715  0.4759  0.5739 -0.3763
   10MOL   C199 2557   6.070   3.776   4.592  0.3388 -0.2603 -0.1313
   10MOL   C200 2558   5.998   3.740   4.466  0.5309 -0.3432 -0.1844
   10MOL   C201 2559   6.215   3.831   4.587  0.8851  0.0955  1.4245
   10MOL   H202 2560   5.813   3.742   4.784  0.6050  0.3463 -1.3136
   10MOL   H203 2561   5.860   3.614   4.660 -0.2217 -1.8984  1.2885
   10MOL   H204 2562   6.068   3.787   4.803 -2.9610 -2.6179  3.1842
   10MOL   H205 2563   6.027   3.643   4.425  0.6827 -0.5622  0.4391
   10MOL   H206 2564   5.990   3.822   4.395  1.7647 -1.5146 -1.7420
   10MOL   H207 2565   5.894   3.713   4.481 -0.6283  3.3714 -1.1471
   10MOL   H208 2566   6.236   3.873   4.685  0.7817 -1.2584  2.0393
   10MOL   H209 2567   6.212   3.906   4.507  0.9856 -1.6893 -0.2917
   10MOL   C210 2568   6.319   3.720   4.546  0.0548  0.3771 -0.1637
   10MOL   C211 2569   6.455   3.754   4.561  0.7393 -0.7438  0.3259
   10MOL   C212 2570   6.540   3.793   4.461  0.2116 -0.1600  0.4595
   10MOL   C213 2571   6.501   3.815   4.317  0.6497 -0.3278  0.6468
   10MOL   C214 2572   6.689   3.830   4.489  0.5006  0.1974 -0.1884
   10MOL   H215 2573   6.280   3.704   4.446 -1.0397  0.8606  0.1777
   10MOL   H216 2574   6.301   3.628   4.602  0.3465  2.5606  3.6847
   10MOL   H217 2575   6.499   3.766   4.659  1.1338  1.7259 -0.1069
   10MOL   H218 2576   6.394   3.797   4.305  0.7650 -1.0571  0.6734
   10MOL   H219 2577   6.565   3.747   4.261 -0.3523 -0.9460  0.2572
   10MOL   H220 2578   6.528   3.913   4.277 -0.4344 -0.7436 -1.1272
   10MOL   H221 2579   6.746   3.769   4.419 -2.1858 -0.5166 -1.8428
   10MOL   H222 2580   6.725   3.794   4.585  1.3815  1.9279  0.1601
   10MOL   C223 2581   6.728   3.971   4.464  0.0796 -0.5025  0.2829
   10MOL   C224 2582   6.870   4.018   4.482 -0.6563  0.8800 -0.0148
   10MOL   C225 2583   6.950   4.075   4.388 -0.2915 -0.1453  0.5026
   10MOL   C226 2584   6.908   4.111   4.245  0.3694 -0.0403 -0.0143
   10MOL   C227 2585   7.099   4.104   4.418  0.3766 -0.0352  0.1229
   10MOL   H228 2586   6.667   4.031   4.532 -0.6412 -0.3360 -0.4935
   10MOL   H229 2587   6.690   4.013   4.370 -1.5633 -0.6037  0.8765
   10MOL   H230 2588   6.914   3.978   4.573 -0.7012  0.5604 -0.1317
   10MOL   H231 2589   6.801   4.132   4.239  0.5005  0.5496 -0.3973
   10MOL   H232 2590   6.936   4.023   4.188  0.8788  0.8258 -1.1318
   10MOL   H233 2591   6.958   4.203   4.214 -0.0988  0.3596  0.3856
   10MOL   H234 2592   7.143   4.134   4.323  3.6971 -2.5401  0.7607
   10MOL   H235 2593   7.156   4.017   4.451  0.1444 -0.0736  0.4153
   10MOL   C236 2594   7.112   4.206   4.528  0.0206 -0.0614 -0.1045
   10MOL   C237 2595   7.065   4.338   4.481 -0.3114  0.2775 -0.1270
   10MOL   C238 2596   6.970   4.413   4.537 -0.1464 -0.5585  0.6630
   10MOL   C239 2597   6.911   4.386   4.670  0.3175  0.0765  0.7192
   10MOL   C240 2598   6.928   4.549   4.479  0.5297 -0.4000  0.6674
   10MOL   H241 2599   7.213   4.231   4.559 -0.1410  1.2514 -0.6267
   10MOL   H242 2600   7.063   4.168   4.618  0.7640  0.4052  0.4990
   10MOL   H243 2601   7.104   4.362   4.383  0.6195 -3.1392 -0.6542
   10MOL   H244 2602   6.884   4.471   4.732  1.2865  0.7037  0.2821
   10MOL   H245 2603   6.974   4.324   4.733  0.6852  1.6954  1.9659
   10MOL   H246 2604   6.816   4.333   4.659  0.8994 -0.8545  0.1092
   10MOL   H247 2605   6.979   4.559   4.383  0.4767 -1.3785  0.5349
   10MOL   H248 2606   6.962   4.632   4.540 -1.2947  1.7237 -1.1059
   10MOL   C249 2607   6.776   4.577   4.459  0.1513  0.3885  0.6933
   10MOL   C250 2608   6.715   4.482   4.361 -0.1827  0.7084 -0.4300
   10MOL   C251 2609   6.635   4.519   4.256  0.5074 -0.1369  0.0586
   10MOL   C252 2610   6.603   4.660   4.219 -0.2121 -1.3798  0.0325
   10MOL   C253 2611   6.574   4.426   4.158 -0.0963 -0.5354 -1.2268
   10MOL   H254 2612   6.774   4.678   4.419  2.0298 -0.7252 -2.4200
   10MOL   H255 2613   6.723   4.566   4.553 -0.6812  0.0047  0.1821
   10MOL   H256 2614   6.733   4.376   4.365 -1.2242  0.5080 -0.8190
   10MOL   H257 2615   6.570   4.708   4.311  3.1673  2.3793 -0.5680
   10MOL   H258 2616   6.515   4.660   4.154 -0.2938 -3.8039  0.0900
   10MOL   H259 2617   6.695   4.713   4.194 -0.1253 -1.2633  0.5850
   10MOL   H260 2618   6.596   4.323   4.185  2.0400 -0.0574 -1.0515
   10MOL   H261 2619   6.605   4.452   4.057 -1.9802  2.7902 -1.0202
   10MOL   H262 2620   6.468   4.446   4.142  0.3470  1.1078 -2.2609
   11MOL     C1 2621   0.001   1.365   6.563 -0.2079 -0.6006 -0.4127
   11MOL     C2 2622   0.110   1.276   6.494 -0.0929  0.4853 -0.2075
   11MOL     C3 2623   0.218   1.311   6.418  0.0878 -0.0673 -0.3723
   11MOL     C4 2624   0.234   1.458   6.398  0.7092 -0.0512  0.4836
   11MOL     C5 2625   0.318   1.215   6.362  0.8663 -0.1337  0.1368
   11MOL     H6 2626   0.034   1.421   6.650 -1.6832 -0.1243 -0.1496
   11MOL     H7 2627   7.842   1.446   6.503 -0.7987 -0.2207  0.5129
   11MOL     H8 2628   0.095   1.170   6.508  1.4421  0.1744 -0.8681
   11MOL     H9 2629   0.311   1.463   6.320  0.5114  0.6198  0.3273
   11MOL    H10 2630   0.286   1.501   6.484  0.5195  1.2070 -0.0143
   11MOL    H11 2631   0.155   1.517   6.352  0.7616  0.8943  1.5831
   11MOL    H12 2632   0.321   1.246   6.257  0.9800  0.8429  0.4181
   11MOL    H13 2633   0.269   1.118   6.364 -0.3163  0.4532 -0.1505
   11MOL    H14 2634   7.791   1.310   6.581  0.9140 -1.4953  2.9361
   11MOL    C15 2635   0.453   1.222   6.419  0.1097 -0.4173  0.3038
   11MOL    C16 2636   0.538   1.108   6.378  0.1518  0.4100  0.5417
   11MOL    C17 2637   0.629   1.109   6.280 -0.3660  0.2393  0.3979
   11MOL    C18 2638   0.661   1.235   6.200  0.2067  0.2945  0.2426
   11MOL    C19 2639   0.718   0.989   6.250 -0.1007 -1.1034 -0.1067
   11MOL    H20 2640   0.437   1.218   6.527 -1.7051  0.2309  0.0879
   11MOL    H21 2641   0.495   1.321   6.400 -1.7845  0.6351  1.4040
   11MOL    H22 2642   0.528   1.018   6.438  1.1232  0.7394  1.2218
   11MOL    H23 2643   0.731   1.293   6.261 -2.3503  1.7543  1.9324
   11MOL    H24 2644   0.569   1.292   6.188 -2.1153 -3.1928  0.5118
   11MOL    H25 2645   0.692   1.196   6.104  1.7470  0.4428  0.6625
   11MOL    H26 2646   0.778   0.974   6.340  1.0922  1.7268 -0.3933
   11MOL    H27 2647   0.787   1.007   6.168 -1.4167 -0.2213 -1.0423
   11MOL    C28 2648   0.632   0.850   6.236 -0.5848  0.1488 -0.1423
   11MOL    C29 2649   0.720   0.737   6.187  1.3926  0.8436  0.4337
   11MOL    C30 2650   0.722   0.668   6.070  0.1961 -0.2102  0.0737
   11MOL    C31 2651   0.625   0.703   5.955 -0.2552 -0.0964 -0.1623
   11MOL    C32 2652   0.812   0.553   6.039 -0.9420 -0.6415 -0.5652
   11MOL    H33 2653   0.547   0.869   6.170  0.6008 -1.7552 -2.3179
   11MOL    H34 2654   0.587   0.811   6.327  0.2256 -2.6673 -0.8909
   11MOL    H35 2655   0.793   0.703   6.259 -2.7865 -1.9947  3.5311
   11MOL    H36 2656   0.597   0.808   5.956 -0.4567 -0.1485  1.7488
   11MOL    H37 2657   0.539   0.636   5.943 -0.4962  0.3562 -0.9176
   11MOL    H38 2658   0.690   0.687   5.869  1.2950  0.4889  0.8771
   11MOL    H39 2659   0.896   0.543   6.108 -1.2040 -0.8554 -0.2743
   11MOL    H40 2660   0.868   0.576   5.948 -1.4590  0.1256 -0.6948
   11MOL    C41 2661   0.740   0.424   6.021 -0.2020  0.3319 -0.3192
   11MOL    C42 2662   0.839   0.312   5.986 -0.5564  0.3156  0.4663
   11MOL    C43 2663   0.815   0.195   5.924 -1.0646  0.2786  0.0112
   11MOL    C44 2664   0.685   0.157   5.870  0.1636  0.0976 -0.3898
   11MOL    C45 2665   0.935   0.102   5.889  0.2655 -0.0531  0.1067
   11MOL    H46 2666   0.667   0.441   5.942  0.3143 -0.7256 -1.0395
   11MOL    H47 2667   0.687   0.403   6.115 -1.7095  1.6483 -0.8508
   11MOL    H48 2668   0.944   0.333   6.006  0.2733 -3.2206  0.1175
   11MOL    H49 2669   0.626   0.088   5.929  2.0044 -0.0224  1.3984
   11MOL    H50 2670   0.703   0.114   5.771 -1.5071 -0.4883 -0.4415
   11MOL    H51 2671   0.625   0.247   5.854  0.4495 -0.2088 -3.6210
   11MOL    H52 2672   1.025   0.147   5.932  0.7484  0.4986 -1.4506
   11MOL    H53 2673   0.957   0.113   5.783 -0.3750  0.6608  0.0421
   11MOL    C54 2674   0.905   7.839   5.928 -0.3089 -0.4303 -0.1530
   11MOL    C55 2675   1.002   7.744   5.868 -0.2383  0.8811 -0.0956
   11MOL    C56 2676   0.973   7.632   5.798 -0.1189  0.2158 -0.3378
   11MOL    C57 2677   0.844   7.569   5.784 -0.1026  0.3429  0.3955
   11MOL    C58 2678   1.091   7.543   5.743  0.5303  0.3843  0.1078
   11MOL    H59 2679   0.805   7.811   5.895  0.0370 -0.2709 -1.3672
   11MOL    H60 2680   0.913   7.834   6.037  1.4451  0.6100 -0.2050
   11MOL    H61 2681   1.106   7.773   5.878 -0.2663  1.0832 -0.3873
   11MOL    H62 2682   0.832   7.509   5.693 -1.6335  1.9769 -0.5153
   11MOL    H63 2683   0.767   7.642   5.759  0.1506  0.3082 -0.5115
   11MOL    H64 2684   0.821   7.514   5.875  0.5763 -0.4327  0.1083
   11MOL    H65 2685   1.069   7.436   5.747 -0.3017  0.6140  2.4559
   11MOL    H66 2686   1.182   7.561   5.799  1.1893 -0.8976 -0.5256
   11MOL    C67 2687   1.138   7.595   5.602 -0.0222 -0.4856  0.6068
   11MOL    C68 2688   1.054   7.539   5.488  0.1661 -0.2324  0.1068
   11MOL    C69 2689   1.086   7.531   5.363  0.1676 -0.1385  0.5126
   11MOL    C70 2690   1.223   7.566   5.302  0.0568  0.1660  0.6535
   11MOL    C71 2691   0.984   7.470   5.266 -0.0466 -0.2252  0.0413
   11MOL    H72 2692   1.241   7.559   5.603 -0.6987 -2.5397  3.6455
   11MOL    H73 2693   1.143   7.704   5.602  0.2730 -0.4994  0.5392
   11MOL    H74 2694   0.956   7.514   5.526 -0.0616 -0.3534 -0.5480
   11MOL    H75 2695   1.196   7.623   5.213 -2.7324  0.4055  1.5813
   11MOL    H76 2696   1.268   7.475   5.263 -3.0798 -1.3255  0.2926
   11MOL    H77 2697   1.296   7.629   5.352  2.5925 -1.0589 -1.4319
   11MOL    H78 2698   0.982   7.528   5.174 -2.0493  0.0551  0.2408
   11MOL    H79 2699   0.890   7.476   5.320 -0.2094 -0.3401 -0.2316
   11MOL    C80 2700   1.024   7.328   5.236 -0.8598  0.1654 -0.3703
   11MOL    C81 2701   0.925   7.271   5.134  0.1883  0.0543 -0.4196
   11MOL    C82 2702   0.846   7.164   5.146 -0.9272 -0.1766 -0.3369
   11MOL    C83 2703   0.830   7.081   5.269  0.5207  0.2420  0.4414
   11MOL    C84 2704   0.775   7.110   5.028 -0.1070 -0.3726  0.2860
   11MOL    H85 2705   1.020   7.264   5.324  0.7803 -0.4992 -0.7557
   11MOL    H86 2706   1.120   7.323   5.185 -0.6671  1.2572 -0.1266
   11MOL    H87 2707   0.923   7.332   5.044 -0.8164  1.8030  0.7503
   11MOL    H88 2708   0.726   7.093   5.298  0.2275 -1.0021 -0.0456
   11MOL    H89 2709   0.879   7.120   5.359  1.2515  1.2563 -0.3780
   11MOL    H90 2710   0.855   6.976   5.250 -0.5391  0.3688 -1.8511
   11MOL    H91 2711   0.693   7.044   5.058  0.5101 -1.5115 -0.4581
   11MOL    H92 2712   0.840   7.057   4.958 -0.2535  1.5738 -1.3510
   11MOL    C93 2713   0.693   7.224   4.954 -0.5293 -0.2506 -0.5386
   11MOL    C94 2714   0.571   7.173   4.875 -0.1139  0.1355  0.7538
   11MOL    C95 2715   0.551   7.165   4.739 -0.2401 -0.1167  0.0482
   11MOL    C96 2716   0.661   7.210   4.645  0.6644 -0.4126 -0.7194
   11MOL    C97 2717   0.420   7.129   4.670 -0.8850  0.5873 -0.1934
   11MOL    H98 2718   0.763   7.285   4.897  0.2504 -1.4835 -0.9129
   11MOL    H99 2719   0.655   7.294   5.028 -0.1521 -2.7018  2.0736
   11MOL   H100 2720   0.494   7.141   4.943  0.3477 -0.8611  0.8197
   11MOL   H101 2721   0.650   7.162   4.548  0.0893 -0.6434 -0.5435
   11MOL   H102 2722   0.761   7.188   4.681 -0.8167 -1.9764  2.7070
   11MOL   H103 2723   0.646   7.313   4.612 -2.4358  0.9947  4.4296
   11MOL   H104 2724   0.435   7.029   4.629  0.0248  0.6257  0.0264
   11MOL   H105 2725   0.390   7.202   4.595 -0.0233 -0.8270 -1.9432
   11MOL   C106 2726   0.306   7.118   4.769 -0.0050  0.8107 -0.3529
   11MOL   C107 2727   0.177   7.086   4.686  0.1626  0.2314 -0.1123
   11MOL   C108 2728   0.092   6.978   4.685 -0.0572  0.0905  0.2478
   11MOL   C109 2729   0.108   6.855   4.774  0.6338  0.2445 -0.8452
   11MOL   C110 2730   7.865   6.970   4.576  0.0652 -0.5690 -0.1000
   11MOL   H111 2731   0.288   7.204   4.833 -1.9981 -0.3099  0.6497
   11MOL   H112 2732   0.328   7.031   4.830  1.4881  1.2668 -0.2249
   11MOL   H113 2733   0.158   7.164   4.615  1.5235  0.1643 -0.5506
   11MOL   H114 2734   0.169   6.784   4.718  2.8204  1.5477 -0.2048
   11MOL   H115 2735   0.011   6.814   4.803 -0.1866  1.3111 -1.9953
   11MOL   H116 2736   0.173   6.893   4.853  1.7258 -0.8625 -1.1924
   11MOL   H117 2737   0.001   6.872   4.531 -0.0044 -1.5036  1.8427
   11MOL   H118 2738   0.001   7.038   4.492  2.4951 -0.1250  0.7424
   11MOL   C119 2739   7.729   6.988   4.629  0.0356 -0.1317  0.3150
   11MOL   C120 2740   7.619   6.973   4.532  0.8550  0.5055 -0.3945
   11MOL   C121 2741   7.562   7.067   4.453 -0.3836 -0.1642 -0.5357
   11MOL   C122 2742   7.600   7.213   4.447  0.4456  0.5046 -0.5111
   11MOL   C123 2743   7.459   7.018   4.345 -0.0100 -0.4698  0.1673
   11MOL   H124 2744   7.718   7.091   4.664 -2.6959  0.8302 -3.1597
   11MOL   H125 2745   7.704   6.918   4.709  1.9154  0.6397  1.6085
   11MOL   H126 2746   7.583   6.871   4.529 -0.8522  0.9744  2.0276
   11MOL   H127 2747   7.652   7.241   4.356  1.1651  2.1924  0.4100
   11MOL   H128 2748   7.672   7.234   4.525  2.6180 -0.0076 -2.3431
   11MOL   H129 2749   7.506   7.265   4.467  0.0329 -1.0530  1.8108
   11MOL   H130 2750   7.496   6.923   4.307 -0.4667 -0.9972  1.0272
   11MOL   H131 2751   7.472   7.091   4.265  1.1434  0.3895  1.1251
   11MOL   C132 2752   7.316   7.003   4.389  0.0658 -0.0288  0.8324
   11MOL   C133 2753   7.298   6.881   4.487 -0.0223 -0.0014 -0.4584
   11MOL   C134 2754   7.282   6.884   4.619  0.2860  0.1045  0.7394
   11MOL   C135 2755   7.252   7.014   4.691  0.3138  0.5577  0.1521
   11MOL   C136 2756   7.268   6.758   4.699 -0.6146  0.4071  0.2207
   11MOL   H137 2757   7.255   6.986   4.300  0.4818  0.5879  0.4179
   11MOL   H138 2758   7.293   7.101   4.432  2.6691  1.2787 -0.5627
   11MOL   H139 2759   7.310   6.788   4.435  0.2535  0.0649 -0.5109
   11MOL   H140 2760   7.216   7.091   4.623 -0.4682  0.0496 -0.0207
   11MOL   H141 2761   7.338   7.056   4.742 -0.5474  2.6332 -0.0448
   11MOL   H142 2762   7.179   7.002   4.771  1.7366  0.8165  1.5112
   11MOL   H143 2763   7.206   6.689   4.643  1.6856 -1.3071 -0.3171
   11MOL   H144 2764   7.212   6.796   4.784 -1.5807 -0.0116 -0.2283
   11MOL   C145 2765   7.407   6.711   4.746  0.3579 -0.1264 -0.0274
   11MOL   C146 2766   7.408   6.563   4.795 -0.0815  0.5900 -0.4001
   11MOL   C147 2767   7.502   6.511   4.876 -0.0609  0.4787  0.0407
   11MOL   C148 2768   7.620   6.588   4.924 -0.0712  0.0836  0.1503
   11MOL   C149 2769   7.491   6.364   4.914  0.0927  0.3770 -0.3234
   11MOL   H150 2770   7.439   6.771   4.831  1.6216  0.6560 -1.0464
   11MOL   H151 2771   7.482   6.716   4.667 -0.2666 -1.4990 -0.7204
   11MOL   H152 2772   7.331   6.501   4.752  1.1454 -2.4812  1.6690
   11MOL   H153 2773   7.707   6.541   4.877 -1.1661 -1.8141 -0.0199
   11MOL   H154 2774   7.632   6.564   5.030 -2.1921  0.5483  0.5168
   11MOL   H155 2775   7.626   6.695   4.905  0.0098  0.0479 -0.0182
   11MOL   H156 2776   7.575   6.315   4.864  0.2040  0.8047 -0.5670
   11MOL   H157 2777   7.399   6.326   4.870  0.1869  1.6488 -1.6782
   11MOL   C158 2778   7.486   6.341   5.068 -0.0446 -0.5657 -1.0289
   11MOL   C159 2779   7.435   6.198   5.101 -0.2801 -0.2726  0.3689
   11MOL   C160 2780   7.512   6.088   5.102  1.1212 -0.0930 -0.0986
   11MOL   C161 2781   7.663   6.084   5.078  0.0229 -0.3168 -0.1887
   11MOL   C162 2782   7.451   5.957   5.147  0.1118  0.7844 -0.7326
   11MOL   H163 2783   7.412   6.408   5.112 -0.8376 -1.1756 -1.4055
   11MOL   H164 2784   7.583   6.348   5.117  0.0057 -1.9296 -0.9184
   11MOL   H165 2785   7.328   6.199   5.115 -0.2201  1.2153  0.7986
   11MOL   H166 2786   7.696   6.004   5.012 -0.0770  1.0366 -1.9300
   11MOL   H167 2787   7.713   6.086   5.174 -1.5651  1.5986  0.6347
   11MOL   H168 2788   7.688   6.175   5.023 -0.5027 -1.2768 -2.0613
   11MOL   H169 2789   7.365   5.983   5.208  1.2372  1.6879  0.4812
   11MOL   H170 2790   7.521   5.898   5.208 -0.7222 -0.1828 -0.7007
   11MOL   C171 2791   7.407   5.869   5.020 -0.1948 -0.2872 -0.4460
   11MOL   C172 2792   7.394   5.721   5.058 -0.0562  0.0969  0.1373
   11MOL   C173 2793   7.314   5.629   4.999 -0.1336 -0.4394 -0.9469
   11MOL   C174 2794   7.207   5.647   4.894  1.2102 -0.3698  0.1163
   11MOL   C175 2795   7.315   5.486   5.052  0.2831 -0.2177 -0.4151
   11MOL   H176 2796   7.482   5.889   4.943  1.6391  0.8358  1.5930
   11MOL   H177 2797   7.308   5.907   4.994 -0.1782  0.0360 -0.0497
   11MOL   H178 2798   7.465   5.687   5.131  2.0826 -0.1319 -1.9871
   11MOL   H179 2799   7.116   5.608   4.938 -0.8694  2.2034 -1.7126
   11MOL   H180 2800   7.228   5.588   4.804 -0.1367 -0.5875 -0.0656
   11MOL   H181 2801   7.192   5.749   4.860 -2.0982 -0.7705  0.2744
   11MOL   H182 2802   7.217   5.444   5.076  0.6125 -2.1147 -2.2127
   11MOL   H183 2803   7.373   5.487   5.143 -1.5319  0.5148  0.7672
   11MOL   C184 2804   7.399   5.391   4.965  0.1666  0.3172  0.1225
   11MOL   C185 2805   7.364   5.243   4.977  0.3980 -0.1678  0.1722
   11MOL   C186 2806   7.364   5.160   4.868 -0.4290  0.3008 -1.0029
   11MOL   C187 2807   7.424   5.200   4.741  0.1470  0.3716  0.2372
   11MOL   C188 2808   7.347   5.009   4.892  0.0032 -0.7381 -0.1547
   11MOL   H189 2809   7.505   5.397   4.988  0.1380 -1.2817  0.7284
   11MOL   H190 2810   7.393   5.419   4.860  0.0590 -0.5293 -0.1007
   11MOL   H191 2811   7.370   5.207   5.079  0.1449 -1.8846 -0.4078
   11MOL   H192 2812   7.528   5.169   4.742 -0.0578 -0.3829 -0.8385
   11MOL   H193 2813   7.412   5.297   4.692  1.9030 -0.5202 -2.0424
   11MOL   H194 2814   7.359   5.147   4.671  0.2899  0.4196  0.0689
   11MOL   H195 2815   7.298   4.969   4.803 -1.0933 -1.2180  0.6535
   11MOL   H196 2816   7.272   4.988   4.968  0.3147  0.6225  0.5328
   11MOL   C197 2817   7.481   4.945   4.916  0.6570  0.1134 -0.6641
   11MOL   C198 2818   7.466   4.810   4.973 -0.3916  0.2778 -0.1138
   11MOL   C199 2819   7.552   4.738   5.042  0.4045 -0.8926 -0.5017
   11MOL   C200 2820   7.687   4.801   5.088 -0.0286  0.7887 -0.4812
   11MOL   C201 2821   7.525   4.600   5.091 -0.0164  0.4183 -0.5533
   11MOL   H202 2822   7.543   5.009   4.979  1.2915 -0.1223 -1.0397
   11MOL   H203 2823   7.519   4.929   4.815 -0.6563 -0.2839 -1.0974
   11MOL   H204 2824   7.375   4.758   4.946  0.3349 -1.1775  0.2015
   11MOL   H205 2825   7.727   4.853   5.001 -1.4725  1.9254 -0.4964
   11MOL   H206 2826   7.753   4.725   5.128 -0.1452  1.0564  0.2117
   11MOL   H207 2827   7.670   4.869   5.171 -0.8407 -0.5814  0.4839
   11MOL   H208 2828   7.590   4.537   5.031  2.1529 -0.4999  2.6174
   11MOL   H209 2829   7.421   4.570   5.074  0.5598 -1.0658 -1.6122
   11MOL   C210 2830   7.548   4.579   5.239  0.5218  0.4095  0.0273
   11MOL   C211 2831   7.481   4.450   5.291  0.6157 -0.0224  0.7139
   11MOL   C212 2832   7.370   4.443   5.362  0.4899  0.2757 -0.2873
   11MOL   C213 2833   7.280   4.558   5.400  0.2393  0.0118 -0.1174
   11MOL   C214 2834   7.320   4.311   5.422 -0.2519  0.2286  0.0727
   11MOL   H215 2835   7.521   4.669   5.294 -0.6511  0.4325 -0.5726
   11MOL   H216 2836   7.652   4.555   5.259 -0.0802 -1.6725  0.7787
   11MOL   H217 2837   7.538   4.360   5.276  0.6042  0.4628 -2.5708
   11MOL   H218 2838   7.308   4.599   5.497  1.0485 -1.3459  0.2504
   11MOL   H219 2839   7.176   4.526   5.393 -0.1051  0.2970  3.1799
   11MOL   H220 2840   7.294   4.637   5.327 -0.3734  1.1286  0.9728
   11MOL   H221 2841   7.232   4.280   5.366  1.1132 -0.7667 -1.5842
   11MOL   H222 2842   7.283   4.336   5.521  3.4595  0.4825  1.4726
   11MOL   C223 2843   7.426   4.194   5.424 -0.3313  0.4052 -0.8840
   11MOL   C224 2844   7.374   4.079   5.516  0.4503  0.2739  0.5492
   11MOL   C225 2845   7.361   3.947   5.481 -0.1154 -0.2269 -0.3062
   11MOL   C226 2846   7.393   3.890   5.346 -0.6901  0.1474 -0.1239
   11MOL   C227 2847   7.319   3.851   5.583 -0.3024  0.4563 -0.5567
   11MOL   H228 2848   7.526   4.224   5.453 -0.3056  3.1095 -3.4816
   11MOL   H229 2849   7.440   4.166   5.320  0.6487  1.8005 -1.1354
   11MOL   H230 2850   7.361   4.104   5.621  1.4285 -3.3024  1.6020
   11MOL   H231 2851   7.460   3.947   5.282 -4.1373  2.7369 -1.5656
   11MOL   H232 2852   7.299   3.861   5.299 -0.1609 -1.5227 -0.1862
   11MOL   H233 2853   7.452   3.803   5.374 -0.4686  0.5776  0.7767
   11MOL   H234 2854   7.305   3.890   5.684 -0.7067  0.1671 -0.5015
   11MOL   H235 2855   7.403   3.783   5.595  0.4766  1.6103  0.7919
   11MOL   C236 2856   7.194   3.772   5.557  0.5984  0.2829  0.0077
   11MOL   C237 2857   7.177   3.674   5.666 -0.0195 -0.3725 -0.7662
   11MOL   C238 2858   7.072   3.656   5.747  0.1076  0.2448 -0.3569
   11MOL   C239 2859   6.938   3.725   5.739  0.2579 -0.0170  0.5237
   11MOL   C240 2860   7.075   3.537   5.842  0.3687  0.1130  0.7352
   11MOL   H241 2861   7.201   3.712   5.467  1.4590 -4.4870  3.0721
   11MOL   H242 2862   7.113   3.845   5.556 -0.8738 -1.3149 -2.1209
   11MOL   H243 2863   7.259   3.603   5.676  1.5469  1.4247 -0.4676
   11MOL   H244 2864   6.960   3.821   5.693  2.1061 -0.4308  0.5126
   11MOL   H245 2865   6.884   3.738   5.833  0.4532  0.3249  0.5908
   11MOL   H246 2866   6.881   3.668   5.666  0.6635  0.7137 -0.3639
   11MOL   H247 2867   7.160   3.470   5.834 -1.3956 -1.8863 -1.7958
   11MOL   H248 2868   6.984   3.479   5.827  0.6898 -0.2505  0.1964
   11MOL   C249 2869   7.075   3.585   5.988  0.5089 -0.4519 -0.0378
   11MOL   C250 2870   7.200   3.671   6.024  0.4835 -0.1451 -0.2420
   11MOL   C251 2871   7.311   3.628   6.098  1.2539 -0.0948 -0.1101
   11MOL   C252 2872   7.321   3.490   6.156 -0.4575  0.8065 -0.0420
   11MOL   C253 2873   7.432   3.724   6.105  0.0679  1.0889 -0.0809
   11MOL   H254 2874   7.067   3.492   6.043  0.0062  0.0762  0.7994
   11MOL   H255 2875   6.991   3.649   6.016  0.3812 -0.8481  0.4773
   11MOL   H256 2876   7.203   3.770   5.979 -0.3679 -0.0048 -0.0073
   11MOL   H257 2877   7.373   3.497   6.251  1.7150  1.4435 -1.2435
   11MOL   H258 2878   7.388   3.427   6.096  3.4780  3.5309  1.3042
   11MOL   H259 2879   7.218   3.456   6.168 -0.8336  2.0815  0.4317
   11MOL   H260 2880   7.404   3.824   6.071 -2.4771  1.1190  1.9263
   11MOL   H261 2881   7.506   3.674   6.043 -0.0028 -0.7408  1.2748
   11MOL   H262 2882   7.467   3.740   6.206 -0.2397  0.7255  0.0834
   12MOL     C1 2883   1.116   4.710   1.078 -0.5576 -0.6432 -0.3129
   12MOL     C2 2884   1.041   4.712   0.947  0.3949  0.5007 -0.5062
   12MOL     C3 2885   1.071   4.783   0.840  0.5964 -0.3524 -0.6109
   12MOL     C4 2886   1.194   4.872   0.811 -0.3718  0.2015 -1.0917
   12MOL     C5 2887   0.999   4.751   0.718  0.3214 -0.4283  0.3200
   12MOL     H6 2888   1.063   4.752   1.164  0.2434  2.1967 -1.1577
   12MOL     H7 2889   1.136   4.609   1.113  0.6478 -0.1732  0.4386
   12MOL     H8 2890   0.953   4.651   0.944  0.6176  0.1592 -0.0579
   12MOL     H9 2891   1.173   4.941   0.730  0.6607  1.3867 -0.3732
   12MOL    H10 2892   1.284   4.812   0.801 -0.3910  0.2970 -1.8078
   12MOL    H11 2893   1.211   4.921   0.907 -0.1881 -0.9133 -0.5460
   12MOL    H12 2894   0.995   4.828   0.641 -0.5290 -0.6372  0.1565
   12MOL    H13 2895   0.893   4.732   0.729 -0.0682  1.4315 -0.1165
   12MOL    H14 2896   1.214   4.757   1.067 -0.5606 -0.8231 -1.1388
   12MOL    C15 2897   1.066   4.622   0.663  1.0094  0.2035 -0.0276
   12MOL    C16 2898   0.998   4.561   0.541  0.3930  0.4871  0.1151
   12MOL    C17 2899   0.951   4.439   0.527  0.0062 -0.4037  0.5267
   12MOL    C18 2900   0.976   4.329   0.626 -0.7615 -0.3337 -0.1014
   12MOL    C19 2901   0.918   4.401   0.383 -0.4930 -0.0636  0.6679
   12MOL    H20 2902   1.061   4.547   0.742  3.9523  1.6936  1.6311
   12MOL    H21 2903   1.171   4.637   0.640  1.1640 -0.0985  0.4892
   12MOL    H22 2904   0.967   4.632   0.466 -1.4886  0.9164  1.2766
   12MOL    H23 2905   0.947   4.352   0.728 -2.9466 -2.2372 -0.2440
   12MOL    H24 2906   1.083   4.306   0.625 -0.6685  0.0122  0.9073
   12MOL    H25 2907   0.917   4.240   0.601  1.3174 -1.6354 -0.5285
   12MOL    H26 2908   0.868   4.475   0.321 -1.2706 -1.9351 -0.9994
   12MOL    H27 2909   0.843   4.322   0.386  0.2566 -0.7975  0.4333
   12MOL    C28 2910   1.030   4.325   0.303  0.3472 -0.5403 -0.8186
   12MOL    C29 2911   0.980   4.233   0.196 -0.5325 -0.3539  0.4922
   12MOL    C30 2912   1.004   4.247   0.063 -0.0514  0.1175 -0.1650
   12MOL    C31 2913   1.096   4.352   7.874  0.3953  0.2052 -0.8192
   12MOL    C32 2914   0.935   4.159   7.841 -0.0409  0.5141  0.8368
   12MOL    H33 2915   1.091   4.269   0.373  1.3994  1.0148 -0.4690
   12MOL    H34 2916   1.105   4.396   0.268 -1.4952  0.3117 -3.1636
   12MOL    H35 2917   0.905   4.162   0.228  0.4595 -0.9692  1.4924
   12MOL    H36 2918   1.035   4.389   7.791 -0.2554  2.6558  0.6872
   12MOL    H37 2919   1.180   4.306   7.823 -1.6400 -1.4267 -2.8363
   12MOL    H38 2920   1.124   4.437   0.053  1.7527 -0.0955 -1.0053
   12MOL    H39 2921   0.946   4.055   7.872  1.2472 -0.5043 -2.7809
   12MOL    H40 2922   0.975   4.169   7.740 -0.1127  0.4898  0.8068
   12MOL    C41 2923   0.786   4.189   7.839  0.2571  0.7823 -0.2058
   12MOL    C42 2924   0.722   4.122   7.720 -0.2329 -0.6349  0.1439
   12MOL    C43 2925   0.689   4.184   7.603  0.1750 -0.6784  0.7003
   12MOL    C44 2926   0.684   4.330   7.576 -0.1156 -0.5815  0.4657
   12MOL    C45 2927   0.623   4.099   7.492  0.1162 -0.4704 -0.5285
   12MOL    H46 2928   0.764   4.295   7.844  1.6231  1.0206  1.4289
   12MOL    H47 2929   0.737   4.163   0.050 -1.3304  0.4212 -1.1310
   12MOL    H48 2930   0.704   4.019   7.745  1.0657 -0.6547  0.9931
   12MOL    H49 2931   0.581   4.365   7.573 -0.2389 -1.0620 -1.5719
   12MOL    H50 2932   0.736   4.358   7.485 -0.1908  1.7028  1.1005
   12MOL    H51 2933   0.737   4.378   7.658 -0.3362  0.0386  0.2453
   12MOL    H52 2934   0.657   3.995   7.503 -0.3876 -0.6729 -0.8925
   12MOL    H53 2935   0.669   4.127   7.397 -0.5880  0.4075 -0.6103
   12MOL    C54 2936   0.469   4.103   7.497 -0.1555 -0.0167 -0.1491
   12MOL    C55 2937   0.402   3.996   7.415 -0.0747 -0.3562  0.2448
   12MOL    C56 2938   0.372   4.000   7.281 -0.5266  0.3808  0.2709
   12MOL    C57 2939   0.389   4.127   7.195 -1.1673 -0.0103 -0.5766
   12MOL    C58 2940   0.303   3.885   7.212  0.6408 -0.2023 -0.1092
   12MOL    H59 2941   0.437   4.202   7.465 -0.5918 -0.0847  0.0737
   12MOL    H60 2942   0.441   4.092   7.602  1.5122  0.5125  0.3646
   12MOL    H61 2943   0.383   3.897   7.454  0.0048  0.3084  2.0245
   12MOL    H62 2944   0.296   4.181   7.178 -1.2717 -0.8004 -2.6555
   12MOL    H63 2945   0.419   4.096   7.095  1.1879  0.7374 -0.1300
   12MOL    H64 2946   0.464   4.197   7.232  0.1135 -1.0569 -1.1685
   12MOL    H65 2947   0.203   3.914   7.182  0.5365  0.4273  0.8167
   12MOL    H66 2948   0.287   3.803   7.283 -2.5906  0.4339 -0.0513
   12MOL    C67 2949   0.390   3.834   7.096 -0.7248  0.9120 -0.2635
   12MOL    C68 2950   0.532   3.800   7.138 -0.3325  0.0946 -0.4303
   12MOL    C69 2951   0.645   3.839   7.080  0.0106 -0.8063  0.3228
   12MOL    C70 2952   0.654   3.955   6.974 -0.1734  0.5289 -0.0795
   12MOL    C71 2953   0.780   3.790   7.139  0.5660  0.4115  0.2728
   12MOL    H72 2954   0.395   3.899   7.008 -1.6323  0.1779 -0.8694
   12MOL    H73 2955   0.348   3.737   7.073  0.2206  0.5645 -0.5557
   12MOL    H74 2956   0.528   3.724   7.214  0.6632  2.1389  1.7295
   12MOL    H75 2957   0.568   3.966   6.907 -1.1627  0.5478  1.1826
   12MOL    H76 2958   0.735   3.925   6.907 -1.2261 -2.0170 -0.2945
   12MOL    H77 2959   0.661   4.049   7.028 -1.5980  0.8588 -0.4386
   12MOL    H78 2960   0.757   3.723   7.222 -2.6913 -1.0583 -1.7258
   12MOL    H79 2961   0.827   3.877   7.184 -0.1213  1.0620 -0.2710
   12MOL    C80 2962   0.867   3.712   7.046  0.4932 -0.5367 -0.0302
   12MOL    C81 2963   1.000   3.668   7.107  0.4062 -0.0769  0.3774
   12MOL    C82 2964   1.027   3.537   7.134  0.4069 -0.5958  0.0942
   12MOL    C83 2965   0.929   3.420   7.122 -0.2481 -0.1151 -0.4878
   12MOL    C84 2966   1.164   3.488   7.184  0.1133  0.2314  0.6248
   12MOL    H85 2967   0.899   3.780   6.968  1.0984 -1.3123 -0.4621
   12MOL    H86 2968   0.809   3.635   6.994 -1.5907  1.0662 -0.1869
   12MOL    H87 2969   1.081   3.740   7.106  0.6789 -0.3737 -2.2137
   12MOL    H88 2970   0.828   3.456   7.106 -0.2218  1.6108  2.8267
   12MOL    H89 2971   0.928   3.388   7.226  0.9783  1.2226 -0.0342
   12MOL    H90 2972   0.952   3.328   7.070 -2.4792 -0.4321 -0.9421
   12MOL    H91 2973   1.141   3.441   7.280  0.3836 -0.3947  0.3884
   12MOL    H92 2974   1.228   3.575   7.200  0.4581  0.0960 -0.0116
   12MOL    C93 2975   1.236   3.398   7.085  0.0444  0.1845  0.5243
   12MOL    C94 2976   1.308   3.478   6.982 -0.0903 -0.3305  0.3292
   12MOL    C95 2977   1.440   3.484   6.961 -0.2476  0.0282  0.6470
   12MOL    C96 2978   1.547   3.407   7.042 -0.4597  0.0898  0.3552
   12MOL    C97 2979   1.503   3.568   6.847 -0.0932 -0.4470 -0.3454
   12MOL    H98 2980   1.162   3.324   7.053 -0.6385  0.3861  1.5967
   12MOL    H99 2981   1.308   3.338   7.140  1.2875  0.2707 -0.9999
   12MOL   H100 2982   1.243   3.542   6.923 -2.3162 -1.1014  1.8809
   12MOL   H101 2983   1.511   3.352   7.129 -3.3778  0.6781 -0.4146
   12MOL   H102 2984   1.632   3.464   7.078  0.5550 -1.1458 -0.0350
   12MOL   H103 2985   1.580   3.328   6.973  1.1866  0.0828  1.1239
   12MOL   H104 2986   1.436   3.589   6.764 -0.5179  1.1204  0.3771
   12MOL   H105 2987   1.582   3.523   6.786  0.3270  2.2582 -1.9092
   12MOL   C106 2988   1.545   3.710   6.895 -0.4426 -0.4491 -0.3808
   12MOL   C107 2989   1.573   3.806   6.790 -1.2167 -0.0179 -0.0351
   12MOL   C108 2990   1.517   3.920   6.766 -0.6607  0.2209 -0.2798
   12MOL   C109 2991   1.403   3.973   6.857 -0.0443  0.5158 -0.4007
   12MOL   C110 2992   1.555   3.996   6.639 -0.0790 -0.3221  0.1560
   12MOL   H111 2993   1.628   3.710   6.966 -2.8437  0.8281  2.5477
   12MOL   H112 2994   1.459   3.747   6.951  1.5840  0.2144  2.3522
   12MOL   H113 2995   1.648   3.773   6.719 -1.8142 -1.1980 -0.1381
   12MOL   H114 2996   1.419   3.944   6.960  0.5384 -1.5726 -1.0508
   12MOL   H115 2997   1.314   3.924   6.817  0.0346 -0.1668  0.2677
   12MOL   H116 2998   1.389   4.081   6.843 -0.3857  0.2922 -1.8881
   12MOL   H117 2999   1.458   3.999   6.588 -0.5594  1.0027  1.1121
   12MOL   H118 3000   1.622   3.932   6.581  0.8206  1.1067 -0.4038
   12MOL   C119 3001   1.608   4.140   6.661 -0.3403  0.0868 -0.0616
   12MOL   C120 3002   1.589   4.219   6.539 -0.0139 -1.3394  0.0439
   12MOL   C121 3003   1.510   4.330   6.529  0.8055 -0.0652 -0.4742
   12MOL   C122 3004   1.439   4.392   6.648 -0.0077  0.3532 -0.1868
   12MOL   C123 3005   1.497   4.401   6.397  0.9223  0.2711  0.0927
   12MOL   H124 3006   1.714   4.139   6.684 -0.1678  1.1468 -0.7772
   12MOL   H125 3007   1.563   4.190   6.747  0.3612 -1.1237  1.0293
   12MOL   H126 3008   1.613   4.181   6.442 -2.2655 -3.8705  0.4095
   12MOL   H127 3009   1.486   4.403   6.745  1.4376 -2.0525 -0.5878
   12MOL   H128 3010   1.342   4.342   6.653  0.0530  0.1174 -1.1431
   12MOL   H129 3011   1.420   4.497   6.623 -1.0928  0.2445  0.1655
   12MOL   H130 3012   1.391   4.408   6.374  0.4156 -2.6111  1.2896
   12MOL   H131 3013   1.531   4.336   6.316 -2.7937 -1.2774 -0.3075
   12MOL   C132 3014   1.584   4.522   6.377 -0.6876 -0.5638  0.1965
   12MOL   C133 3015   1.519   4.615   6.272 -0.7296  0.4616  0.0718
   12MOL   C134 3016   1.445   4.719   6.302  0.2944 -0.5071 -0.4064
   12MOL   C135 3017   1.406   4.766   6.448 -0.3682  0.5837 -0.1446
   12MOL   C136 3018   1.383   4.812   6.201  0.1027  0.4204  0.5824
   12MOL   H137 3019   1.688   4.503   6.353 -0.7074  0.1675 -0.4864
   12MOL   H138 3020   1.592   4.580   6.469 -0.7320  2.1225 -1.4550
   12MOL   H139 3021   1.537   4.595   6.168  0.3594  2.0379 -0.0609
   12MOL   H140 3022   1.469   4.853   6.466  1.7279 -0.8934 -0.1636
   12MOL   H141 3023   1.433   4.695   6.526  0.6420  0.7373 -0.3538
   12MOL   H142 3024   1.304   4.803   6.457 -0.6255 -0.5683  2.0635
   12MOL   H143 3025   1.428   4.790   6.104 -1.6613 -1.8301  0.2391
   12MOL   H144 3026   1.421   4.913   6.213 -0.2263  0.5313  0.6930
   12MOL   C145 3027   1.232   4.806   6.194  0.2804 -0.6484 -0.0973
   12MOL   C146 3028   1.171   4.925   6.125 -0.0633 -0.4038  0.9343
   12MOL   C147 3029   1.040   4.943   6.107  0.2819 -0.5622  0.3889
   12MOL   C148 3030   0.940   4.836   6.136 -0.5967  0.6904  0.0210
   12MOL   C149 3031   0.986   5.076   6.054 -0.3923  0.1560  0.2375
   12MOL   H150 3032   1.200   4.792   6.297  1.1209 -0.1709  0.2411
   12MOL   H151 3033   1.212   4.716   6.136  1.8730 -3.1006  2.9670
   12MOL   H152 3034   1.242   4.993   6.082  0.9664 -2.4453 -0.7310
   12MOL   H153 3035   0.920   4.833   6.243 -0.1444 -1.5779  0.0688
   12MOL   H154 3036   0.964   4.732   6.112 -2.7738  0.1790  0.0183
   12MOL   H155 3037   0.845   4.859   6.088  0.3505 -1.5950 -3.1400
   12MOL   H156 3038   0.884   5.060   6.020 -0.1398 -0.6373 -0.1425
   12MOL   H157 3039   1.055   5.109   5.977  0.1299 -0.7844  0.2948
   12MOL   C158 3040   0.976   5.183   6.159 -0.3935 -0.4533  0.0622
   12MOL   C159 3041   1.001   5.326   6.114  0.2653  0.0560 -0.4770
   12MOL   C160 3042   1.116   5.402   6.097 -0.4993 -0.4498 -0.2455
   12MOL   C161 3043   1.255   5.335   6.105  0.5434  0.6791  0.2118
   12MOL   C162 3044   1.118   5.551   6.068 -0.1920 -0.5408 -0.4331
   12MOL   H163 3045   1.056   5.166   6.231 -0.5291 -0.6549  0.1655
   12MOL   H164 3046   0.884   5.185   6.217 -0.3681  1.4613  0.0711
   12MOL   H165 3047   0.904   5.374   6.113  0.4121  0.3635 -1.5511
   12MOL   H166 3048   1.253   5.228   6.125 -3.0682  0.7278  0.4633
   12MOL   H167 3049   1.314   5.386   6.181  2.7825  0.0518 -1.0676
   12MOL   H168 3050   1.310   5.349   6.012  1.2992 -0.5128  0.4707
   12MOL   H169 3051   1.204   5.605   6.107  0.0850 -0.3190 -1.3588
   12MOL   H170 3052   1.022   5.578   6.113 -0.0749 -1.1747  0.2164
   12MOL   C171 3053   1.098   5.564   5.914 -0.2241  0.3127  0.0439
   12MOL   C172 3054   1.230   5.553   5.844 -0.0047 -0.1465  0.2043
   12MOL   C173 3055   1.271   5.450   5.762  0.2662  0.4962 -0.7297
   12MOL   C174 3056   1.205   5.321   5.741 -0.2796  0.1762 -0.2968
   12MOL   C175 3057   1.409   5.450   5.699  0.6891  0.1440 -0.0304
   12MOL   H176 3058   1.053   5.660   5.890  0.5226  0.9237  1.0643
   12MOL   H177 3059   1.020   5.492   5.887 -0.6210  0.2894  1.2090
   12MOL   H178 3060   1.307   5.627   5.862  0.1420 -0.4582  0.8791
   12MOL   H179 3061   1.240   5.252   5.818 -0.0246  1.2121  0.5257
   12MOL   H180 3062   1.219   5.274   5.644 -0.7650 -0.1648 -0.2061
   12MOL   H181 3063   1.096   5.328   5.744 -0.4277 -1.8442  0.2714
   12MOL   H182 3064   1.438   5.345   5.703 -1.4976 -0.4403  1.8221
   12MOL   H183 3065   1.478   5.504   5.764 -0.2615  1.9276 -0.4629
   12MOL   C184 3066   1.409   5.499   5.555 -0.9182  0.1226  1.0476
   12MOL   C185 3067   1.499   5.413   5.464 -0.0823 -0.0077 -0.5798
   12MOL   C186 3068   1.499   5.399   5.329 -0.1356 -0.2453 -0.0879
   12MOL   C187 3069   1.408   5.483   5.241 -0.4238  0.4201 -0.3924
   12MOL   C188 3070   1.590   5.296   5.258 -0.6550 -0.2140 -0.2276
   12MOL   H189 3071   1.443   5.602   5.543 -1.0969 -0.2189 -3.1174
   12MOL   H190 3072   1.309   5.504   5.513  0.1038  0.9043 -1.3676
   12MOL   H191 3073   1.561   5.344   5.519  0.9861  0.4890 -1.1492
   12MOL   H192 3074   1.302   5.488   5.266 -0.0726  0.2870  1.1550
   12MOL   H193 3075   1.393   5.426   5.149 -1.3273 -0.5958  0.3737
   12MOL   H194 3076   1.446   5.585   5.228  1.0488 -0.0453  0.2130
   12MOL   H195 3077   1.608   5.330   5.156 -3.5603  3.5491  0.3884
   12MOL   H196 3078   1.530   5.206   5.269 -0.4988 -0.1675  1.0688
   12MOL   C197 3079   1.724   5.265   5.320  0.3446 -0.2040  0.7953
   12MOL   C198 3080   1.786   5.139   5.268 -0.1464  0.1558 -0.7221
   12MOL   C199 3081   1.797   5.024   5.344 -0.6420  0.5285  0.4164
   12MOL   C200 3082   1.738   4.999   5.484 -0.6518 -0.1133  0.4689
   12MOL   C201 3083   1.854   4.898   5.291  0.3041 -0.2922 -0.5585
   12MOL   H202 3084   1.699   5.259   5.426 -3.9781  0.5975 -0.1068
   12MOL   H203 3085   1.790   5.351   5.304  2.2207 -1.7700 -0.1469
   12MOL   H204 3086   1.836   5.142   5.173  1.2123 -1.7860 -0.1097
   12MOL   H205 3087   1.783   4.911   5.528  0.3379  0.1027 -0.0954
   12MOL   H206 3088   1.630   4.990   5.488 -0.4738 -1.7886  1.9801
   12MOL   H207 3089   1.761   5.078   5.556 -2.2184  0.2664  0.5648
   12MOL   H208 3090   1.848   4.896   5.182 -1.2765 -1.9646 -0.4627
   12MOL   H209 3091   1.790   4.812   5.312 -0.3874 -0.2358 -2.3652
   12MOL   C210 3092   1.990   4.860   5.354  0.1912 -0.0791  0.1138
   12MOL   C211 3093   2.011   4.708   5.374  0.0638  0.0738 -0.3663
   12MOL   C212 3094   2.035   4.617   5.278  0.9747  0.1644  0.1946
   12MOL   C213 3095   2.031   4.637   5.129  0.3199 -0.3318  0.2704
   12MOL   C214 3096   2.055   4.469   5.321 -0.1834 -0.1094 -0.4770
   12MOL   H215 3097   1.996   4.908   5.452  0.3844 -1.5309  0.8309
   12MOL   H216 3098   2.080   4.894   5.303 -1.0459  1.8838 -0.8427
   12MOL   H217 3099   1.999   4.684   5.478  0.8636  0.8481 -0.0849
   12MOL   H218 3100   1.928   4.632   5.092 -0.5531 -3.0193  2.7763
   12MOL   H219 3101   2.104   4.585   5.068  0.7670  0.0414  0.4888
   12MOL   H220 3102   2.063   4.740   5.121 -1.4223  0.5559  3.5031
   12MOL   H221 3103   1.976   4.412   5.272  1.1957 -0.3431 -2.4680
   12MOL   H222 3104   2.057   4.460   5.430 -0.5178  1.4232 -0.3266
   12MOL   C223 3105   2.198   4.414   5.288  0.3201 -0.5317  0.8323
   12MOL   C224 3106   2.216   4.275   5.344 -0.2809 -0.5285  0.3749
   12MOL   C225 3107   2.252   4.164   5.276  0.0627 -0.3041  0.0856
   12MOL   C226 3108   2.279   4.154   5.126  0.5249 -0.0885 -0.3267
   12MOL   C227 3109   2.284   4.041   5.358  0.0683  0.0143  0.1159
   12MOL   H228 3110   2.274   4.485   5.320  2.3025 -1.9511 -0.6620
   12MOL   H229 3111   2.216   4.414   5.181  0.2371 -0.5376  0.8190
   12MOL   H230 3112   2.194   4.273   5.450 -0.2358 -0.8474  0.3765
   12MOL   H231 3113   2.240   4.057   5.097 -0.9681  0.1503  0.8332
   12MOL   H232 3114   2.386   4.161   5.107  0.3485  2.2275 -0.5778
   12MOL   H233 3115   2.223   4.227   5.068  0.3649  0.0874  0.0446
   12MOL   H234 3116   2.280   4.074   5.461 -2.7330 -0.2094  0.1193
   12MOL   H235 3117   2.385   4.006   5.335 -0.2544 -0.7778 -0.1210
   12MOL   C236 3118   2.199   3.921   5.338  0.5674  0.0748  0.4599
   12MOL   C237 3119   2.247   3.806   5.420  0.8660  0.6612  0.4043
   12MOL   C238 3120   2.192   3.748   5.525 -0.1215  0.6133  0.3940
   12MOL   C239 3121   2.058   3.767   5.582 -0.8541 -0.7376  0.3012
   12MOL   C240 3122   2.273   3.641   5.600 -0.4816 -0.4929  0.2995
   12MOL   H241 3123   2.196   3.887   5.234 -0.1894 -0.6953  0.7227
   12MOL   H242 3124   2.098   3.949   5.368  0.5906  0.3617  0.2710
   12MOL   H243 3125   2.346   3.770   5.395 -0.3159 -1.4302 -1.3640
   12MOL   H244 3126   2.011   3.672   5.607 -2.0465 -0.3305 -0.3826
   12MOL   H245 3127   2.000   3.839   5.524  0.4443  0.1646  0.1045
   12MOL   H246 3128   2.071   3.817   5.678 -1.2670 -2.3324  1.2062
   12MOL   H247 3129   2.268   3.673   5.704 -1.5050 -0.8073  0.3566
   12MOL   H248 3130   2.376   3.640   5.565 -1.0057 -0.5913 -1.2572
   12MOL   C249 3131   2.236   3.494   5.595 -0.2981 -0.2371 -0.2776
   12MOL   C250 3132   2.353   3.408   5.652 -0.6255  0.2831 -0.5124
   12MOL   C251 3133   2.352   3.273   5.673  0.1455 -0.4225 -0.5565
   12MOL   C252 3134   2.236   3.190   5.638 -0.1867  0.5054  0.5253
   12MOL   C253 3135   2.472   3.197   5.703 -0.8557 -0.2745  0.9269
   12MOL   H254 3136   2.216   3.475   5.490  3.1448 -0.1882 -0.9915
   12MOL   H255 3137   2.140   3.485   5.647  0.6140 -0.2604  1.4611
   12MOL   H256 3138   2.445   3.464   5.667 -0.8842  0.1687  1.5997
   12MOL   H257 3139   2.214   3.103   5.700 -1.9747 -0.2396 -1.1283
   12MOL   H258 3140   2.251   3.144   5.540  2.0356 -1.3984  1.6940
   12MOL   H259 3141   2.145   3.248   5.637 -0.2454  0.4381  1.2992
   12MOL   H260 3142   2.478   3.113   5.634 -0.8416  1.5199 -1.3440
   12MOL   H261 3143   2.472   3.159   5.805 -1.5508 -0.7402  0.7546
   12MOL   H262 3144   2.560   3.259   5.687 -0.6660 -0.6806  0.3559
   13MOL     C1 3145   2.768   5.103   1.811 -0.4104 -0.2408 -0.0742
   13MOL     C2 3146   2.795   5.238   1.736  0.4231  0.4725  0.1987
   13MOL     C3 3147   2.698   5.312   1.676 -0.4623 -0.3429  0.0781
   13MOL     C4 3148   2.551   5.269   1.674 -0.2555  0.5979 -0.4825
   13MOL     C5 3149   2.729   5.446   1.614  0.4472  0.1059  0.8012
   13MOL     H6 3150   2.713   5.041   1.741  1.7529 -2.4893  0.1546
   13MOL     H7 3151   2.860   5.051   1.837 -0.7370 -0.5066  0.5373
   13MOL     H8 3152   2.896   5.274   1.749  1.6848 -2.1254 -1.9072
   13MOL     H9 3153   2.546   5.161   1.667  0.3586  0.5621 -0.4207
   13MOL    H10 3154   2.493   5.315   1.594 -1.1168  1.4799  0.6338
   13MOL    H11 3155   2.501   5.291   1.769 -1.0015  1.5448 -1.0861
   13MOL    H12 3156   2.683   5.444   1.515  1.9741  0.1995  0.0773
   13MOL    H13 3157   2.837   5.454   1.602  0.4085 -1.0859 -0.4826
   13MOL    H14 3158   2.714   5.124   1.903  0.6296  2.0121  0.0566
   13MOL    C15 3159   2.674   5.556   1.704  0.1283  0.3793  1.2207
   13MOL    C16 3160   2.763   5.564   1.829 -0.1104 -0.8877 -0.6019
   13MOL    C17 3161   2.825   5.680   1.866 -0.4978  0.1307  0.9551
   13MOL    C18 3162   2.816   5.822   1.806 -0.2679 -0.0880  0.1382
   13MOL    C19 3163   2.906   5.675   1.999 -0.3577 -0.4851  0.2721
   13MOL    H20 3164   2.569   5.546   1.730 -0.0251 -0.9271  0.1522
   13MOL    H21 3165   2.690   5.638   1.635  0.2502 -1.4662 -1.0291
   13MOL    H22 3166   2.780   5.471   1.881  0.0667  0.4513  1.8140
   13MOL    H23 3167   2.897   5.851   1.740 -1.5630 -0.0607 -1.4883
   13MOL    H24 3168   2.808   5.892   1.889 -1.6156 -0.1199  0.0533
   13MOL    H25 3169   2.728   5.856   1.751  0.5887  0.5675 -0.8433
   13MOL    H26 3170   2.898   5.577   2.044 -0.7878 -0.1888  0.8462
   13MOL    H27 3171   2.863   5.746   2.070 -2.0583 -0.6657 -0.5490
   13MOL    C28 3172   3.050   5.716   1.976  0.5085  0.5750  0.1038
   13MOL    C29 3173   3.132   5.686   2.098 -0.3763  0.5761  0.3988
   13MOL    C30 3174   3.244   5.755   2.131 -0.5227  0.3357  0.2137
   13MOL    C31 3175   3.302   5.862   2.042 -0.7476  0.2574 -0.3941
   13MOL    C32 3176   3.319   5.730   2.260 -0.3598  0.0684  0.4900
   13MOL    H33 3177   3.066   5.819   1.944  2.3318  0.4939  0.7019
   13MOL    H34 3178   3.096   5.658   1.896 -0.4036  0.3992 -0.3026
   13MOL    H35 3179   3.100   5.605   2.161  1.2699 -0.1797  0.2585
   13MOL    H36 3180   3.267   5.960   2.071 -0.2962  0.8311 -1.7265
   13MOL    H37 3181   3.276   5.840   1.938 -0.2856 -0.8185 -0.2890
   13MOL    H38 3182   3.410   5.869   2.053 -0.8259 -0.2460  0.6968
   13MOL    H39 3183   3.420   5.690   2.259 -0.6191 -0.6068 -2.4967
   13MOL    H40 3184   3.276   5.647   2.315 -1.1146  0.7575  0.9562
   13MOL    C41 3185   3.306   5.851   2.353 -0.0144  0.3834 -0.1856
   13MOL    C42 3186   3.387   5.851   2.481  0.7184 -0.2427  0.2507
   13MOL    C43 3187   3.496   5.926   2.505 -0.0653 -0.3111 -0.0955
   13MOL    C44 3188   3.552   6.035   2.416 -0.4690  0.2892  0.0431
   13MOL    C45 3189   3.570   5.909   2.634  0.4897  0.2323 -0.1926
   13MOL    H46 3190   3.200   5.860   2.378 -0.0612  0.3655 -0.3786
   13MOL    H47 3191   3.327   5.943   2.299 -2.6915  0.5567 -0.9941
   13MOL    H48 3192   3.351   5.789   2.562 -0.1573 -0.5348 -0.3514
   13MOL    H49 3193   3.513   6.011   2.317 -3.1781 -1.1104  1.3870
   13MOL    H50 3194   3.661   6.032   2.415 -0.4063  1.8808 -0.0320
   13MOL    H51 3195   3.535   6.139   2.445  1.9465  0.1062  2.2819
   13MOL    H52 3196   3.672   5.944   2.621  0.3549  0.7909  0.2395
   13MOL    H53 3197   3.573   5.804   2.666 -1.2177  0.2549  0.1006
   13MOL    C54 3198   3.523   6.001   2.753  0.0575  1.0576  0.5035
   13MOL    C55 3199   3.373   6.001   2.776  0.2910 -0.4040  0.0729
   13MOL    C56 3200   3.278   6.091   2.740  0.0101 -0.2522  0.6897
   13MOL    C57 3201   3.313   6.224   2.674 -0.5994 -0.2626  0.4112
   13MOL    C58 3202   3.131   6.057   2.772 -0.2118  0.7537 -0.0455
   13MOL    H59 3203   3.558   6.103   2.738 -0.8766  1.3005 -0.0458
   13MOL    H60 3204   3.573   5.966   2.844 -1.1340 -1.2156  0.3135
   13MOL    H61 3205   3.335   5.908   2.815  0.6144 -0.6658 -0.2305
   13MOL    H62 3206   3.267   6.315   2.712 -1.2364  0.0182 -0.9905
   13MOL    H63 3207   3.292   6.209   2.568  2.3322  0.8363 -0.3916
   13MOL    H64 3208   3.421   6.234   2.684 -0.2464 -1.4592 -1.7641
   13MOL    H65 3209   3.081   6.146   2.810 -0.8072  1.4914 -2.4714
   13MOL    H66 3210   3.125   5.988   2.856 -1.9160 -0.9559 -1.5371
   13MOL    C67 3211   3.054   6.009   2.650  0.3904  0.1932  0.3333
   13MOL    C68 3212   2.929   5.937   2.694 -0.5802 -0.2332  0.6488
   13MOL    C69 3213   2.916   5.803   2.688 -0.2987  0.2090  0.1085
   13MOL    C70 3214   3.024   5.698   2.647  0.1409 -0.6875 -0.6964
   13MOL    C71 3215   2.788   5.731   2.715 -0.6386 -0.2719 -0.1342
   13MOL    H72 3216   3.120   5.951   2.585 -1.7107 -0.1874 -1.4813
   13MOL    H73 3217   3.016   6.092   2.591 -2.0236 -3.2243 -3.1736
   13MOL    H74 3218   2.846   5.994   2.732  0.3163  2.0338 -0.7395
   13MOL    H75 3219   2.976   5.608   2.609  0.2414 -0.7907 -0.5772
   13MOL    H76 3220   3.093   5.681   2.730 -0.0253 -1.5716 -0.7427
   13MOL    H77 3221   3.069   5.746   2.559  1.9368 -1.0457 -0.0034
   13MOL    H78 3222   2.813   5.665   2.798  3.2493  1.3847  0.1201
   13MOL    H79 3223   2.740   5.672   2.638 -0.5130 -0.2927 -0.1964
   13MOL    C80 3224   2.668   5.818   2.777  0.6863  0.2437 -0.0257
   13MOL    C81 3225   2.537   5.757   2.757 -0.3473  0.0517  0.5980
   13MOL    C82 3226   2.449   5.699   2.846 -0.1812 -0.6239 -0.6054
   13MOL    C83 3227   2.477   5.703   2.993 -0.4681  0.2106 -0.1753
   13MOL    C84 3228   2.332   5.615   2.791 -0.2324  1.0068  0.0877
   13MOL    H85 3229   2.652   5.902   2.709  0.8050  0.6169  0.4092
   13MOL    H86 3230   2.684   5.849   2.880  0.4460  0.3103 -0.0073
   13MOL    H87 3231   2.507   5.753   2.654  0.6043  2.8503  0.1559
   13MOL    H88 3232   2.549   5.780   3.021 -1.3103  1.2954 -0.9552
   13MOL    H89 3233   2.502   5.604   3.032 -0.0519 -0.2390 -1.5552
   13MOL    H90 3234   2.389   5.730   3.051 -0.5298 -2.7050  1.2215
   13MOL    H91 3235   2.330   5.528   2.857  1.4493  2.2983  1.8894
   13MOL    H92 3236   2.358   5.596   2.687  1.0809 -0.6226  0.7037
   13MOL    C93 3237   2.206   5.695   2.806  0.2015 -0.2284 -0.2516
   13MOL    C94 3238   2.105   5.643   2.700 -0.0512  0.2017 -0.0878
   13MOL    C95 3239   1.989   5.586   2.717  0.4219  1.0019  0.1452
   13MOL    C96 3240   1.923   5.565   2.852 -0.8811 -0.6518 -0.0891
   13MOL    C97 3241   1.918   5.537   2.596  0.8294 -0.4750  0.4165
   13MOL    H98 3242   2.220   5.800   2.780  0.0843  0.3296  1.8262
   13MOL    H99 3243   2.168   5.694   2.908 -2.2008  0.1583 -1.1027
   13MOL   H100 3244   2.149   5.636   2.601  0.7680  0.2184  0.2700
   13MOL   H101 3245   1.901   5.459   2.860 -2.7147 -0.3943 -1.4887
   13MOL   H102 3246   1.834   5.626   2.867 -0.5439 -0.0848 -0.3706
   13MOL   H103 3247   1.979   5.608   2.935  1.0967 -0.9776 -1.2016
   13MOL   H104 3248   1.901   5.618   2.526 -1.4315 -1.8242 -0.6489
   13MOL   H105 3249   1.815   5.509   2.620 -0.1712  1.9718 -0.8603
   13MOL   C106 3250   1.990   5.416   2.528 -0.3350 -0.9395 -0.4798
   13MOL   C107 3251   1.927   5.372   2.398 -0.3124 -0.1549 -0.0470
   13MOL   C108 3252   1.983   5.370   2.279 -0.1897  0.4472 -0.3741
   13MOL   C109 3253   2.131   5.416   2.256  0.4165  0.2241  0.3986
   13MOL   C110 3254   1.914   5.342   2.142  0.2148 -0.1596  0.2853
   13MOL   H111 3255   1.984   5.342   2.608 -1.8061  2.6374  2.8823
   13MOL   H112 3256   2.095   5.437   2.510 -0.5679  0.6132 -0.1337
   13MOL   H113 3257   1.822   5.350   2.410 -0.4119  1.2451  1.9683
   13MOL   H114 3258   2.175   5.421   2.156  2.4935  0.8964  1.3370
   13MOL   H115 3259   2.214   5.369   2.307  0.3063 -1.8244 -1.2328
   13MOL   H116 3260   2.139   5.510   2.310 -0.6484  0.9773 -0.7027
   13MOL   H117 3261   1.968   5.259   2.097 -0.8294 -0.3217 -0.6724
   13MOL   H118 3262   1.924   5.425   2.072  0.1061 -0.7739 -0.4657
   13MOL   C119 3263   1.767   5.302   2.150  0.3514 -0.0105 -0.1650
   13MOL   C120 3264   1.719   5.246   2.013 -0.3276  0.3732 -0.0445
   13MOL   C121 3265   1.695   5.114   1.989 -0.3939  0.5383  0.0285
   13MOL   C122 3266   1.726   4.986   2.076 -0.5555 -0.2551 -0.4941
   13MOL   C123 3267   1.631   5.092   1.854  0.3057 -0.0825 -0.6143
   13MOL   H124 3268   1.697   5.381   2.175  0.0549 -0.2503 -0.2303
   13MOL   H125 3269   1.750   5.235   2.234 -0.6622 -0.2939 -0.5922
   13MOL   H126 3270   1.698   5.316   1.933  4.9174  1.3197 -0.7726
   13MOL   H127 3271   1.780   5.003   2.169  0.0277 -0.2734 -0.8221
   13MOL   H128 3272   1.783   4.913   2.017  2.3125  0.7548  0.9096
   13MOL   H129 3273   1.637   4.924   2.090  0.7921 -1.8852  1.1270
   13MOL   H130 3274   1.556   5.170   1.840 -0.2792 -0.5119  0.0608
   13MOL   H131 3275   1.564   5.006   1.857  2.0723 -1.4575  2.1465
   13MOL   C132 3276   1.725   5.084   1.733 -0.3483 -0.4658  0.3266
   13MOL   C133 3277   1.809   5.212   1.720 -0.6553 -0.6171 -0.7497
   13MOL   C134 3278   1.812   5.297   1.608  0.6145  0.3112  0.5133
   13MOL   C135 3279   1.731   5.284   1.474 -0.0027  0.2177 -0.4890
   13MOL   C136 3280   1.901   5.415   1.608 -0.4361 -0.2343 -0.6596
   13MOL   H137 3281   1.672   5.044   1.646 -0.1388 -1.6523  0.7239
   13MOL   H138 3282   1.796   5.002   1.748  0.6082  0.4001  0.5564
   13MOL   H139 3283   1.879   5.226   1.802 -1.2472 -1.1858 -0.1389
   13MOL   H140 3284   1.752   5.183   1.438  0.5497 -0.2213  1.0218
   13MOL   H141 3285   1.765   5.347   1.393 -1.9257  1.0957 -0.6276
   13MOL   H142 3286   1.623   5.290   1.483  0.1155 -0.4914  2.0691
   13MOL   H143 3287   1.839   5.500   1.579 -0.9147 -0.5398 -0.5312
   13MOL   H144 3288   1.980   5.397   1.535  0.2897  1.3740 -0.2916
   13MOL   C145 3289   1.968   5.450   1.736 -0.0740 -0.1467  0.7914
   13MOL   C146 3290   2.049   5.571   1.724 -0.0749  0.2761  0.0622
   13MOL   C147 3291   2.177   5.587   1.742 -0.1197 -0.9150  0.2671
   13MOL   C148 3292   2.272   5.479   1.802  0.4088  0.0122 -0.0296
   13MOL   C149 3293   2.246   5.721   1.732 -0.0562  0.1683 -0.0910
   13MOL   H150 3294   2.025   5.367   1.777  1.2022 -0.3938 -1.4044
   13MOL   H151 3295   1.900   5.479   1.816 -2.4787 -1.0980 -0.8376
   13MOL   H152 3296   2.000   5.658   1.683 -0.0294 -1.1689 -3.2389
   13MOL   H153 3297   2.327   5.427   1.725  2.3335  3.2061 -0.9042
   13MOL   H154 3298   2.220   5.404   1.861  1.4743 -0.1389  0.7302
   13MOL   H155 3299   2.340   5.519   1.877 -0.2994  0.9103  0.1491
   13MOL   H156 3300   2.189   5.793   1.673  0.1880  0.6591  0.2649
   13MOL   H157 3301   2.341   5.706   1.680  1.1314  3.1669  1.0922
   13MOL   C158 3302   2.279   5.783   1.873 -0.2377  0.1626  0.6176
   13MOL   C159 3303   2.270   5.937   1.869  0.3753 -0.0867  0.0314
   13MOL   C160 3304   2.341   6.025   1.942 -0.3773 -0.2441 -0.6439
   13MOL   C161 3305   2.414   5.966   2.072 -0.1388  0.3397 -0.0180
   13MOL   C162 3306   2.329   6.175   1.931  0.0186 -0.2094  0.1133
   13MOL   H163 3307   2.377   5.751   1.908 -0.5805  0.7269  2.0909
   13MOL   H164 3308   2.204   5.754   1.946 -0.7999 -0.1349 -0.0681
   13MOL   H165 3309   2.213   5.980   1.788 -1.0071  0.8519  1.4809
   13MOL   H166 3310   2.413   5.858   2.089  0.8228  0.2131 -0.7459
   13MOL   H167 3311   2.371   6.004   2.165 -0.1564  2.1736 -0.7551
   13MOL   H168 3312   2.521   5.984   2.068 -0.1557  0.7847  1.3502
   13MOL   H169 3313   2.290   6.212   2.026  3.1140  2.0751  0.5714
   13MOL   H170 3314   2.260   6.204   1.852  1.6572 -0.4820 -1.4361
   13MOL   C171 3315   2.457   6.252   1.892  0.1707 -0.9993 -0.9634
   13MOL   C172 3316   2.433   6.402   1.886 -0.5919 -0.2714 -0.4976
   13MOL   C173 3317   2.411   6.478   1.781 -0.1266  0.6131  0.2251
   13MOL   C174 3318   2.447   6.434   1.636  0.3324 -0.7183 -0.0483
   13MOL   C175 3319   2.365   6.620   1.801 -0.6302  0.0575 -0.0029
   13MOL   H176 3320   2.480   6.218   1.791 -1.2499 -1.4360 -1.1499
   13MOL   H177 3321   2.538   6.226   1.960  1.4891 -1.1919 -2.5519
   13MOL   H178 3322   2.419   6.457   1.978 -0.2125  0.0293 -0.6178
   13MOL   H179 3323   2.377   6.483   1.568  2.4704  1.4417 -0.7796
   13MOL   H180 3324   2.443   6.331   1.601  0.3265 -0.7828  0.1444
   13MOL   H181 3325   2.545   6.479   1.618 -0.3644  0.7508 -0.2787
   13MOL   H182 3326   2.310   6.639   1.894  3.9482  0.4902  2.7970
   13MOL   H183 3327   2.301   6.646   1.717 -1.1419  0.6843  0.5720
   13MOL   C184 3328   2.478   6.723   1.784 -0.2195  0.0740  0.6322
   13MOL   C185 3329   2.428   6.871   1.770  0.5282 -0.9831 -0.2894
   13MOL   C186 3330   2.443   6.975   1.857  0.2827 -0.1820  0.2514
   13MOL   C187 3331   2.490   6.964   2.002  0.1073  0.1751  0.7637
   13MOL   C188 3332   2.385   7.102   1.819  0.0488  0.3415  0.4954
   13MOL   H189 3333   2.536   6.703   1.693 -0.8635  1.3013 -0.0580
   13MOL   H190 3334   2.550   6.712   1.865 -0.6507  1.3155  1.1907
   13MOL   H191 3335   2.384   6.880   1.671  0.3714  0.8320 -0.0826
   13MOL   H192 3336   2.565   7.037   2.033  0.6586 -0.9904  2.2150
   13MOL   H193 3337   2.526   6.865   2.030  0.7126  0.5529  1.3330
   13MOL   H194 3338   2.408   6.988   2.071 -1.3075  0.8041 -1.0888
   13MOL   H195 3339   2.296   7.109   1.881 -0.3126 -1.0308  0.1532
   13MOL   H196 3340   2.356   7.111   1.714  4.4377 -1.1946 -0.9608
   13MOL   C197 3341   2.485   7.224   1.831  0.4724 -0.1650  0.6882
   13MOL   C198 3342   2.432   7.357   1.786  0.7944 -0.1602 -0.0642
   13MOL   C199 3343   2.322   7.421   1.839 -0.7275 -0.1719 -0.8697
   13MOL   C200 3344   2.262   7.377   1.971 -0.5735  0.3923 -0.3616
   13MOL   C201 3345   2.263   7.547   1.772 -0.1787 -0.1189 -0.1842
   13MOL   H202 3346   2.571   7.197   1.769  0.9615 -0.4523  1.4860
   13MOL   H203 3347   2.519   7.226   1.935 -0.1689  1.5763  0.8842
   13MOL   H204 3348   2.467   7.391   1.689 -0.6336 -1.0991 -0.9328
   13MOL   H205 3349   2.308   7.285   2.008  0.5065 -0.3702 -3.4782
   13MOL   H206 3350   2.157   7.352   1.963 -0.5069  0.0418 -0.1493
   13MOL   H207 3351   2.268   7.458   2.045 -2.3414  0.3992 -0.2017
   13MOL   H208 3352   2.156   7.558   1.784 -0.1179  0.8097 -0.4212
   13MOL   H209 3353   2.284   7.539   1.665 -0.8125  2.5971 -0.5438
   13MOL   C210 3354   2.335   7.679   1.821 -0.0447  0.4221 -0.5086
   13MOL   C211 3355   2.325   7.791   1.729 -0.1622 -0.4923  0.0364
   13MOL   C212 3356   2.327   0.036   1.766  0.2419  0.2573  0.1076
   13MOL   C213 3357   2.334   0.086   1.911 -0.2394  0.5837  0.5622
   13MOL   C214 3358   2.287   0.149   1.671  0.0425  0.0854  0.3424
   13MOL   H215 3359   2.442   7.660   1.824 -0.0974  0.3173  1.5022
   13MOL   H216 3360   2.299   7.718   1.917 -0.8738 -1.3719 -0.0672
   13MOL   H217 3361   2.317   7.769   1.624  0.5609  0.4555 -0.2228
   13MOL   H218 3362   2.259   0.032   1.969  0.3292  0.5152  1.2289
   13MOL   H219 3363   2.321   0.192   1.933 -0.9231  0.3162  1.4943
   13MOL   H220 3364   2.434   0.072   1.950 -0.5103 -1.3962  0.5774
   13MOL   H221 3365   2.192   0.189   1.707  0.0636  1.6663 -1.2473
   13MOL   H222 3366   2.267   0.113   1.569 -0.6298 -1.5419  1.0294
   13MOL   C223 3367   2.394   0.260   1.654 -0.7189 -0.0849  0.6736
   13MOL   C224 3368   2.511   0.223   1.562 -0.4024 -0.6146  0.4312
   13MOL   C225 3369   2.647   0.215   1.583 -0.0396  0.6287  0.1741
   13MOL   C226 3370   2.709   0.262   1.717  0.0300 -0.1206 -0.1995
   13MOL   C227 3371   2.741   0.174   1.471 -0.1530  0.0746  0.1894
   13MOL   H228 3372   2.419   0.296   1.753  0.0978  1.5343 -0.1118
   13MOL   H229 3373   2.348   0.347   1.607  2.3270  0.4369 -1.5159
   13MOL   H230 3374   2.490   0.195   1.460 -0.5767 -0.4560  0.4239
   13MOL   H231 3375   2.776   0.346   1.698 -1.0233  0.9209  0.5795
   13MOL   H232 3376   2.781   0.186   1.746 -0.0505 -1.1949 -2.7569
   13MOL   H233 3377   2.632   0.283   1.792 -0.4156  0.5235 -0.8245
   13MOL   H234 3378   2.679   0.128   1.393 -2.8784 -2.7931  3.8588
   13MOL   H235 3379   2.816   0.105   1.510 -0.7282  0.8819  2.8465
   13MOL   C236 3380   2.824   0.295   1.414 -0.2465 -0.2244 -0.2577
   13MOL   C237 3381   2.746   0.372   1.311 -0.3013  0.5696 -0.6536
   13MOL   C238 3382   2.712   0.504   1.313 -0.3977  0.3311 -0.0464
   13MOL   C239 3383   2.745   0.601   1.431  0.3205  0.1830  0.1456
   13MOL   C240 3384   2.632   0.576   1.213  0.2746  0.4339  0.4502
   13MOL   H241 3385   2.909   0.257   1.357 -1.0468 -1.8951 -0.3908
   13MOL   H242 3386   2.884   0.346   1.490  0.7105 -1.8867  0.1362
   13MOL   H243 3387   2.720   0.326   1.216 -1.2082  1.5382 -0.8818
   13MOL   H244 3388   2.801   0.686   1.391  0.5082  0.9003  1.8907
   13MOL   H245 3389   2.785   0.544   1.515 -1.6443 -1.3235  0.1019
   13MOL   H246 3390   2.652   0.644   1.468  0.4834  0.1073  0.6397
   13MOL   H247 3391   2.622   0.509   1.127 -0.2123  1.2144 -0.1145
   13MOL   H248 3392   2.687   0.667   1.188 -0.1797  1.0706  1.7274
   13MOL   C249 3393   2.499   0.615   1.261 -0.1278  0.3829  0.9372
   13MOL   C250 3394   2.409   0.630   1.134 -1.1081 -0.6367  0.1013
   13MOL   C251 3395   2.377   0.737   1.060 -0.8354 -0.0494 -0.4472
   13MOL   C252 3396   2.454   0.874   1.084  0.1336 -0.2495  0.3024
   13MOL   C253 3397   2.287   0.730   0.930  0.6356  0.0598 -0.5269
   13MOL   H254 3398   2.495   0.711   1.312 -3.7589 -0.6326  2.8043
   13MOL   H255 3399   2.460   0.534   1.323 -0.5273 -0.3504 -0.2568
   13MOL   H256 3400   2.365   0.537   1.103  0.0729 -0.4529 -2.2375
   13MOL   H257 3401   2.513   0.879   1.176 -0.7275  1.2575  0.7881
   13MOL   H258 3402   2.396   0.966   1.085  1.5837  0.7304 -1.2594
   13MOL   H259 3403   2.527   0.882   1.003  1.2760  2.3661  1.5410
   13MOL   H260 3404   2.344   0.753   0.840  4.1994  0.2939  1.6775
   13MOL   H261 3405   2.202   0.798   0.923  2.5803  2.5953 -0.4193
   13MOL   H262 3406   2.252   0.628   0.917  1.1506 -0.3737  1.3370
   14MOL     C1 3407   7.647   0.670   6.953  0.4531 -0.3860  0.1321
   14MOL     C2 3408   7.565   0.791   6.916  0.0980 -0.1776 -0.1244
   14MOL     C3 3409   7.596   0.889   6.826  0.7947  0.1112 -0.4783
   14MOL     C4 3410   7.720   0.888   6.740  0.1100 -0.0593 -0.1558
   14MOL     C5 3411   7.508   1.013   6.798 -0.2720  0.3892 -0.6567
   14MOL     H6 3412   7.750   0.690   6.921 -0.0703  2.4549  0.1665
   14MOL     H7 3413   7.665   0.646   7.058  0.8436 -1.9486 -0.2723
   14MOL     H8 3414   7.461   0.793   6.943  0.2227  2.0210  0.3204
   14MOL     H9 3415   7.802   0.890   6.812 -0.0349 -0.6021  0.0278
   14MOL    H10 3416   7.712   0.973   6.672 -1.8817  0.4411  0.6700
   14MOL    H11 3417   7.714   0.794   6.686  1.3610 -0.3661  0.2323
   14MOL    H12 3418   7.552   1.087   6.732  0.3689  0.3262 -0.3115
   14MOL    H13 3419   7.492   1.054   6.898 -0.3233 -1.5348  0.1566
   14MOL    H14 3420   7.606   0.582   6.902  0.5615  0.4121 -1.3533
   14MOL    C15 3421   7.378   0.956   6.726 -0.4108 -0.6238  0.3377
   14MOL    C16 3422   7.276   1.063   6.691 -0.0926  0.7229 -0.1500
   14MOL    C17 3423   7.185   1.052   6.595  0.0197  0.2329  0.0526
   14MOL    C18 3424   7.146   0.929   6.514 -0.3174  0.0800 -0.1676
   14MOL    C19 3425   7.098   1.174   6.560 -0.1171 -0.5015 -0.3285
   14MOL    H20 3426   7.323   0.891   6.794  0.3738 -1.2904  0.3409
   14MOL    H21 3427   7.405   0.908   6.632 -1.6553 -0.9292  0.1250
   14MOL    H22 3428   7.279   1.149   6.756  1.2028 -0.8044  1.8811
   14MOL    H23 3429   7.124   0.957   6.411  1.8361  0.2409 -0.6084
   14MOL    H24 3430   7.053   0.888   6.555  0.7068 -0.5960  1.5203
   14MOL    H25 3431   7.227   0.855   6.510 -0.9899 -0.6773  0.0214
   14MOL    H26 3432   7.107   1.205   6.456  2.5437 -0.1707 -0.0381
   14MOL    H27 3433   7.143   1.252   6.621  0.9886  0.0980 -1.8970
   14MOL    C28 3434   6.954   1.149   6.612 -0.0696  0.2820  0.1715
   14MOL    C29 3435   6.869   1.280   6.618 -0.0178  0.9768  0.0269
   14MOL    C30 3436   6.763   1.322   6.546  0.2101  0.1143  0.0821
   14MOL    C31 3437   6.712   1.239   6.430 -0.8319  0.7682 -0.0855
   14MOL    C32 3438   6.690   1.450   6.577  0.6239 -0.3389  0.0141
   14MOL    H33 3439   6.957   1.109   6.713  0.8565  1.2676  0.5532
   14MOL    H34 3440   6.902   1.072   6.556  0.2489  1.1861 -1.3811
   14MOL    H35 3441   6.900   1.350   6.694  0.0167 -0.0373  0.9639
   14MOL    H36 3442   6.627   1.177   6.457 -1.0167 -0.6384 -3.6035
   14MOL    H37 3443   6.787   1.174   6.386  0.8460  2.0143  0.8492
   14MOL    H38 3444   6.652   1.307   6.369 -2.2084  1.5206  2.0454
   14MOL    H39 3445   6.679   1.515   6.490  2.2482 -1.1905 -0.8453
   14MOL    H40 3446   6.744   1.504   6.655  1.5913  0.3828 -1.1330
   14MOL    C41 3447   6.552   1.433   6.639 -0.3425 -0.3539 -0.1598
   14MOL    C42 3448   6.512   1.557   6.706 -0.3954 -0.1790  0.6956
   14MOL    C43 3449   6.390   1.613   6.695  0.5277 -0.0863  0.6316
   14MOL    C44 3450   6.260   1.569   6.631  0.6145 -0.0828  0.4993
   14MOL    C45 3451   6.371   1.751   6.757 -0.0874 -0.6233  0.2989
   14MOL    H46 3452   6.563   1.346   6.703  1.0305  0.6530  1.0143
   14MOL    H47 3453   6.474   1.411   6.567  1.9628  2.2225 -3.6423
   14MOL    H48 3454   6.590   1.605   6.764  1.0866 -0.6635 -0.8576
   14MOL    H49 3455   6.252   1.616   6.533 -1.3923 -0.8733  0.2618
   14MOL    H50 3456   6.174   1.584   6.695  0.0375 -1.1634 -0.0147
   14MOL    H51 3457   6.268   1.462   6.608 -2.6410 -0.1072 -0.7075
   14MOL    H52 3458   6.419   1.761   6.854  0.3491  0.7362 -0.0511
   14MOL    H53 3459   6.267   1.774   6.778 -0.0698  0.1595 -0.4213
   14MOL    C54 3460   6.425   1.857   6.659  0.1296  0.1535  0.3632
   14MOL    C55 3461   6.454   1.992   6.726 -0.0076  0.0221  0.3192
   14MOL    C56 3462   6.364   2.085   6.762 -0.2749  0.3965 -0.0658
   14MOL    C57 3463   6.220   2.095   6.709  0.2121  0.0885  0.3789
   14MOL    C58 3464   6.412   2.209   6.850  0.2826  0.4292 -0.0139
   14MOL    H59 3465   6.360   1.875   6.573  0.9096  0.0115 -0.2697
   14MOL    H60 3466   6.519   1.826   6.612  0.8269 -0.5842  2.2177
   14MOL    H61 3467   6.552   1.999   6.770 -0.0995 -1.5778  0.8339
   14MOL    H62 3468   6.147   2.109   6.788  1.7701 -0.6346  2.0016
   14MOL    H63 3469   6.191   2.000   6.664  1.7902  0.6291 -1.8839
   14MOL    H64 3470   6.206   2.162   6.625 -1.9150 -0.3452  0.3765
   14MOL    H65 3471   6.517   2.189   6.869  0.0716 -0.5398  0.1602
   14MOL    H66 3472   6.359   2.215   6.946  0.1851 -0.9882  0.0351
   14MOL    C67 3473   6.426   2.337   6.764  0.6488  0.3243 -0.3218
   14MOL    C68 3474   6.508   2.451   6.830  0.2166  0.8861 -0.0976
   14MOL    C69 3475   6.606   2.518   6.769 -0.0842  0.5879  0.2836
   14MOL    C70 3476   6.664   2.495   6.631  0.1214  0.2984 -0.6563
   14MOL    C71 3477   6.686   2.615   6.856  0.2635  0.0938  0.6740
   14MOL    H72 3478   6.329   2.372   6.728 -0.4381 -0.6128  1.5903
   14MOL    H73 3479   6.473   2.306   6.671  0.1498  0.7209 -0.7074
   14MOL    H74 3480   6.479   2.474   6.932  1.0523 -1.7682  0.7951
   14MOL    H75 3481   6.596   2.444   6.563  0.5393  0.9095 -1.5518
   14MOL    H76 3482   6.752   2.434   6.653 -0.9861  0.1106  3.4535
   14MOL    H77 3483   6.699   2.589   6.588 -1.4430  0.8006 -0.8280
   14MOL    H78 3484   6.635   2.645   6.947  2.7064 -1.4625  2.6523
   14MOL    H79 3485   6.687   2.714   6.811  0.6309  0.4143  1.3633
   14MOL    C80 3486   6.823   2.570   6.893 -0.1112  0.0556 -0.0736
   14MOL    C81 3487   6.907   2.685   6.949 -0.2622  1.0456 -0.3974
   14MOL    C82 3488   7.036   2.707   6.919 -0.6889  0.9439 -0.0072
   14MOL    C83 3489   7.111   2.600   6.841 -0.4342  0.2988  0.0220
   14MOL    C84 3490   7.105   2.829   6.966  0.1971  0.1510 -0.0188
   14MOL    H85 3491   6.870   2.527   6.804 -0.1927  1.0244 -0.5985
   14MOL    H86 3492   6.810   2.499   6.974 -1.7012  1.1097  0.6160
   14MOL    H87 3493   6.860   2.748   7.024 -1.5343 -0.3865  0.0395
   14MOL    H88 3494   7.107   2.504   6.894 -2.3318  0.3772  0.0367
   14MOL    H89 3495   7.217   2.621   6.828 -0.2087 -2.1697 -2.6303
   14MOL    H90 3496   7.067   2.589   6.742  1.8549  0.9609 -1.0962
   14MOL    H91 3497   7.198   2.803   7.017  0.2595  0.0506 -0.1824
   14MOL    H92 3498   7.039   2.877   7.038 -0.4316 -0.3029 -0.2942
   14MOL    C93 3499   7.129   2.922   6.842  0.3929 -0.4439 -0.3680
   14MOL    C94 3500   7.191   3.049   6.885 -0.2319  0.3297  0.1064
   14MOL    C95 3501   7.183   3.170   6.827 -0.5258  0.4676  0.4229
   14MOL    C96 3502   7.094   3.205   6.703 -0.0818  0.3540  0.6466
   14MOL    C97 3503   7.271   3.282   6.889  0.5263  0.0381  0.1231
   14MOL    H98 3504   7.046   2.945   6.776  0.7404  0.2063 -0.5818
   14MOL    H99 3505   7.189   2.865   6.771  0.6567  1.0482 -1.3703
   14MOL   H100 3506   7.252   3.045   6.974  0.7224  1.3814 -0.4850
   14MOL   H101 3507   7.045   3.120   6.657 -0.3730 -0.2525  2.0328
   14MOL   H102 3508   7.145   3.251   6.619 -1.1259  1.2558  0.4978
   14MOL   H103 3509   7.023   3.283   6.729 -1.4772 -0.6268 -0.1911
   14MOL   H104 3510   7.331   3.333   6.813 -1.9589  2.7504 -0.1145
   14MOL   H105 3511   7.340   3.240   6.962 -0.1011 -1.2661 -0.0294
   14MOL   C106 3512   7.188   3.392   6.969  1.4344  0.7558  0.0369
   14MOL   C107 3513   7.274   3.477   7.067  0.5642 -0.3276  0.2360
   14MOL   C108 3514   7.301   3.607   7.059  0.8230 -0.1913  0.1629
   14MOL   C109 3515   7.237   3.713   6.966 -0.8677  0.1232  0.0501
   14MOL   C110 3516   7.390   3.657   7.168  0.4686 -0.1085  0.2947
   14MOL   H111 3517   7.105   3.341   7.017  1.2563  2.0111  1.1012
   14MOL   H112 3518   7.133   3.452   6.896 -0.6866 -1.8267 -0.5588
   14MOL   H113 3519   7.335   3.417   7.133  2.6517 -1.2627 -2.4338
   14MOL   H114 3520   7.152   3.762   7.015 -0.0768  1.2887  0.2665
   14MOL   H115 3521   7.211   3.664   6.873 -0.0326  0.0570 -0.1520
   14MOL   H116 3522   7.311   3.787   6.939 -0.7070 -0.1002 -0.1262
   14MOL   H117 3523   7.471   3.716   7.125 -0.3832  0.3396 -0.7137
   14MOL   H118 3524   7.452   3.583   7.219  1.1479  1.4030  1.7545
   14MOL   C119 3525   7.305   3.750   7.261  0.0441  0.1225  0.6522
   14MOL   C120 3526   7.364   3.764   7.400  0.2237  0.1149  0.2422
   14MOL   C121 3527   7.332   3.688   7.511  0.3003  1.0428  0.2771
   14MOL   C122 3528   7.242   3.570   7.502  0.5868 -0.2898 -0.3977
   14MOL   C123 3529   7.387   3.724   7.650 -0.7221 -0.1385  0.3273
   14MOL   H124 3530   7.201   3.719   7.265 -0.7049  2.3031 -1.3755
   14MOL   H125 3531   7.309   3.847   7.212  1.6518 -0.2173  0.0608
   14MOL   H126 3532   7.456   3.821   7.394 -0.2804  1.1908  2.2128
   14MOL   H127 3533   7.165   3.572   7.580  1.4810  0.1832  0.4822
   14MOL   H128 3534   7.302   3.479   7.504  1.7013  0.4234 -0.8606
   14MOL   H129 3535   7.183   3.564   7.410 -0.0344  0.9685 -0.0918
   14MOL   H130 3536   7.416   3.627   7.690  0.4664  0.4416  0.8796
   14MOL   H131 3537   7.304   3.769   7.705 -1.2789  0.9902 -1.3877
   14MOL   C132 3538   7.499   3.829   7.650  0.0651 -0.1493  0.4334
   14MOL   C133 3539   7.539   3.880   7.789 -0.3984 -0.7050 -0.0284
   14MOL   C134 3540   7.556   4.011   7.824 -0.6170  0.0209 -0.7164
   14MOL   C135 3541   7.539   4.122   7.724 -0.0184  0.5958  0.3484
   14MOL   C136 3542   7.586   4.054   0.082 -0.2810  0.1842 -0.3189
   14MOL   H137 3543   7.455   3.914   7.597  0.1465  0.7519  1.7958
   14MOL   H138 3544   7.583   3.798   7.587 -0.8541 -0.7018 -0.5218
   14MOL   H139 3545   7.535   3.810   7.871 -2.9618 -0.4454  0.1323
   14MOL   H140 3546   7.563   4.098   7.620 -0.9058 -0.7189  0.4208
   14MOL   H141 3547   7.623   4.184   7.752  1.0458 -1.5807  2.1978
   14MOL   H142 3548   7.444   4.172   7.741 -1.1276 -1.6551  0.9525
   14MOL   H143 3549   7.684   4.101   0.088  0.6690 -1.7280 -0.4724
   14MOL   H144 3550   7.600   3.974   0.155 -1.4314  2.8754  2.9560
   14MOL   C145 3551   7.487   4.153   0.145 -0.4476  0.2023 -0.3479
   14MOL   C146 3552   7.540   4.200   0.287 -0.1700 -0.2284  0.8573
   14MOL   C147 3553   7.495   4.178   0.411  0.6431 -0.4745 -0.7722
   14MOL   C148 3554   7.357   4.106   0.432 -0.1883  0.0787 -0.5345
   14MOL   C149 3555   7.557   4.238   0.541 -0.2404 -0.5024  0.0175
   14MOL   H150 3556   7.389   4.108   0.161 -1.6480  3.1103  0.8893
   14MOL   H151 3557   7.471   4.240   0.081 -2.1962  0.8647  0.9238
   14MOL   H152 3558   7.629   4.258   0.269 -0.2217 -0.4059  0.0559
   14MOL   H153 3559   7.279   4.181   0.449  0.2983  0.7649 -1.2882
   14MOL   H154 3560   7.346   4.057   0.529 -0.0684 -0.2811 -0.7033
   14MOL   H155 3561   7.316   4.041   0.356 -0.3187 -0.3269 -0.1178
   14MOL   H156 3562   7.479   4.270   0.610  1.9752 -0.2580  2.4727
   14MOL   H157 3563   7.613   4.326   0.508  0.2447 -0.7862  0.0914
   14MOL   C158 3564   7.655   4.143   0.619  0.8260  0.8362 -0.3788
   14MOL   C159 3565   7.754   4.091   0.516 -0.2762  0.2157  0.1906
   14MOL   C160 3566   7.773   3.968   0.470  0.0411 -0.4152  0.6176
   14MOL   C161 3567   7.704   3.843   0.513 -0.6632  0.0389  0.1756
   14MOL   C162 3568   7.858   3.956   0.348  0.6446  0.5702  0.9112
   14MOL   H163 3569   7.604   4.061   0.669  0.1055  2.8672  2.3570
   14MOL   H164 3570   7.715   4.200   0.689  1.8557  2.3722 -2.4412
   14MOL   H165 3571   7.819   4.164   0.470  1.6125 -0.8432  1.0880
   14MOL   H166 3572   7.634   3.812   0.435 -0.4906 -0.0348  0.0510
   14MOL   H167 3573   7.661   3.840   0.613  1.0665 -1.2565  0.8997
   14MOL   H168 3574   7.776   3.761   0.507  0.6049  1.1339  0.1696
   14MOL   H169 3575   7.833   4.045   0.290  1.8049  0.3790  0.1172
   14MOL   H170 3576   7.835   3.875   0.278 -2.8423 -0.3365  2.9686
   14MOL   C171 3577   0.123   3.932   0.391  0.4949 -0.7731 -0.4350
   14MOL   C172 3578   0.158   3.784   0.402 -0.3513 -0.2173 -0.6221
   14MOL   C173 3579   0.188   3.712   0.512 -0.9035 -0.2418 -0.1804
   14MOL   C174 3580   0.200   3.765   0.655  0.2994 -0.4414  0.1129
   14MOL   C175 3581   0.197   3.563   0.501 -0.1222  0.0605  0.3403
   14MOL   H176 3582   0.142   3.982   0.485 -0.8433 -1.9707  0.5006
   14MOL   H177 3583   0.196   3.964   0.317  0.2575 -1.7247 -1.0950
   14MOL   H178 3584   0.166   3.738   0.304 -1.6042 -0.5666 -0.5657
   14MOL   H179 3585   0.258   3.858   0.657  1.7645 -1.3699  2.2549
   14MOL   H180 3586   0.257   3.691   0.711 -1.3353 -1.7624  0.0851
   14MOL   H181 3587   0.103   3.778   0.703 -0.9730  0.2036 -2.5320
   14MOL   H182 3588   0.170   3.534   0.400 -1.6942  0.3633  0.6577
   14MOL   H183 3589   0.117   3.515   0.557  0.2619  0.7648  1.5163
   14MOL   C184 3590   0.344   3.508   0.527 -0.6482  0.5373 -0.3581
   14MOL   C185 3591   0.373   3.365   0.472 -0.0697 -0.4339 -0.4024
   14MOL   C186 3592   0.446   3.339   0.358 -0.5843 -0.4026  0.5533
   14MOL   C187 3593   0.512   3.446   0.265  0.8135  0.8378 -1.1379
   14MOL   C188 3594   0.478   3.202   0.313 -0.0727  0.8174 -0.0566
   14MOL   H189 3595   0.369   3.502   0.632 -2.2340  1.1593  0.0689
   14MOL   H190 3596   0.417   3.582   0.493  0.0549  1.1725  2.3928
   14MOL   H191 3597   0.328   3.287   0.532  2.6749 -1.2885  0.6570
   14MOL   H192 3598   0.483   3.430   0.161  0.8536  0.5242 -1.1022
   14MOL   H193 3599   0.621   3.453   0.268  0.8027 -0.0449  2.8518
   14MOL   H194 3600   0.470   3.545   0.281 -1.1239 -0.0248 -0.7131
   14MOL   H195 3601   0.467   3.132   0.396  0.8762  0.0368 -0.5720
   14MOL   H196 3602   0.582   3.183   0.287 -0.8371  1.4491 -3.7412
   14MOL   C197 3603   0.403   3.155   0.185 -0.2440  1.1507 -0.1000
   14MOL   C198 3604   0.259   3.118   0.202 -0.1809  0.5733  0.7151
   14MOL   C199 3605   0.155   3.186   0.146  0.3550 -0.6502 -0.3990
   14MOL   C200 3606   0.170   3.325   0.079  0.1342  0.4186 -0.0716
   14MOL   C201 3607   0.014   3.138   0.157  0.3566 -0.6901 -0.2403
   14MOL   H202 3608   0.452   3.063   0.154  0.5611  1.4813  0.1702
   14MOL   H203 3609   0.425   3.211   0.095 -1.0163 -1.8495 -2.2317
   14MOL   H204 3610   0.245   3.025   0.255 -0.6536  0.4610  0.3966
   14MOL   H205 3611   0.123   3.400   0.142  1.3961 -0.1002  1.5158
   14MOL   H206 3612   0.138   3.327   7.857  0.2003 -0.9764 -0.1246
   14MOL   H207 3613   0.274   3.352   0.065 -0.0279  0.6789 -0.7890
   14MOL   H208 3614   0.010   3.032   0.184  0.3692 -0.4507  0.7177
   14MOL   H209 3615   7.849   3.142   0.060  1.8178  0.7726 -0.9211
   14MOL   C210 3616   7.822   3.211   0.277  0.0529  0.0118 -0.0845
   14MOL   C211 3617   7.877   3.187   0.421 -0.6371 -0.3868 -0.1977
   14MOL   C212 3618   7.819   3.129   0.524  0.1944  0.3788 -0.0374
   14MOL   C213 3619   7.678   3.096   0.516 -0.5348 -0.3013  0.1411
   14MOL   C214 3620   7.882   3.112   0.665  0.4462  0.1101  0.0979
   14MOL   H215 3621   7.715   3.192   0.277 -0.1860  1.1702  1.6964
   14MOL   H216 3622   7.821   3.320   0.268 -2.8358 -0.0505 -0.9606
   14MOL   H217 3623   0.095   3.228   0.431 -0.6558 -0.1481 -0.9183
   14MOL   H218 3624   7.654   3.014   0.584 -4.3423  0.7024  0.0967
   14MOL   H219 3625   7.658   3.053   0.418  1.4468 -0.2671 -0.2959
   14MOL   H220 3626   7.609   3.179   0.529  0.9421  0.6562  2.2279
   14MOL   H221 3627   0.105   3.096   0.644 -0.1500 -0.4912 -2.6747
   14MOL   H222 3628   7.825   3.032   0.712  0.9460 -0.6380 -0.5779
   14MOL   C223 3629   7.861   3.238   0.749  0.0898 -0.0956 -0.6438
   14MOL   C224 3630   0.040   3.216   0.882 -0.8432 -0.0106 -0.8395
   14MOL   C225 3631   0.141   3.287   0.939  0.7139 -0.6073  0.3864
   14MOL   C226 3632   0.204   3.404   0.865 -0.3244  0.0721  0.6697
   14MOL   C227 3633   0.191   3.255   1.070 -0.5538  0.2350 -0.2379
   14MOL   H228 3634   7.754   3.254   0.763  0.1744  1.0854 -1.2372
   14MOL   H229 3635   0.005   3.332   0.699  2.5487 -0.2536  0.3023
   14MOL   H230 3636   7.878   3.126   0.924 -1.9087  0.5430 -0.7664
   14MOL   H231 3637   0.125   3.464   0.820  0.6850 -2.1208 -4.2953
   14MOL   H232 3638   0.276   3.368   0.792  0.1328 -1.0072  1.6335
   14MOL   H233 3639   0.237   3.488   0.926  1.7203  1.6335 -2.4389
   14MOL   H234 3640   0.130   3.179   1.120 -1.5962  2.1352  1.4897
   14MOL   H235 3641   0.204   3.340   1.137 -0.5314 -1.0764  1.4782
   14MOL   C236 3642   0.335   3.188   1.078  0.5615  0.8456 -0.0822
   14MOL   C237 3643   0.368   3.162   1.227  0.2279  0.8215  0.1043
   14MOL   C238 3644   0.459   3.220   1.306  0.3961 -0.1919 -0.0160
   14MOL   C239 3645   0.546   3.339   1.267  0.8893  0.7276 -0.5989
   14MOL   C240 3646   0.473   3.181   1.452  0.4801  0.4686  0.6407
   14MOL   H241 3647   0.416   3.242   1.028  0.4699  0.1670 -0.9555
   14MOL   H242 3648   0.330   3.096   1.020 -3.7579  2.3255 -2.2912
   14MOL   H243 3649   0.306   3.082   1.264  1.8306 -0.0676  0.9406
   14MOL   H244 3650   0.653   3.320   1.267  0.8767  0.6423  0.0137
   14MOL   H245 3651   0.513   3.427   1.322 -0.4100 -0.6199  0.8094
   14MOL   H246 3652   0.535   3.369   1.162 -0.4868  0.9394 -0.4075
   14MOL   H247 3653   0.576   3.198   1.485 -0.0889  0.3554  2.5229
   14MOL   H248 3654   0.459   3.074   1.461  0.1069  0.5208  0.6764
   14MOL   C249 3655   0.375   3.247   1.549  0.4920  0.2894 -0.4807
   14MOL   C250 3656   0.348   3.165   1.674 -0.7195  0.2552 -0.0047
   14MOL   C251 3657   0.374   3.202   1.801  0.2490  0.7275  0.2240
   14MOL   C252 3658   0.410   3.339   1.847 -0.1148  0.1283  0.6285
   14MOL   C253 3659   0.368   3.095   1.908 -0.1455 -0.3887 -0.1147
   14MOL   H254 3660   0.274   3.262   1.511  0.4603  1.8172  0.1958
   14MOL   H255 3661   0.414   3.345   1.577  0.7640 -0.1802  0.7995
   14MOL   H256 3662   0.331   3.060   1.656  1.0666 -0.1113  0.3590
   14MOL   H257 3663   0.379   3.353   1.950  1.6097 -0.0633  1.1889
   14MOL   H258 3664   0.354   3.411   1.788 -0.9189 -0.9208  0.0881
   14MOL   H259 3665   0.517   3.361   1.844  0.1974 -0.9397  2.7366
   14MOL   H260 3666   0.305   3.122   1.993 -0.6701  1.3133 -1.0242
   14MOL   H261 3667   0.471   3.078   1.942 -0.6667  0.8907  2.2462
   14MOL   H262 3668   0.336   2.998   1.871  0.7957 -0.3139 -1.1397
   15MOL     C1 3669   2.947   5.649   5.772  0.4725  0.5319  0.3057
   15MOL     C2 3670   2.903   5.504   5.741 -0.6679  0.2244 -0.4286
   15MOL     C3 3671   2.858   5.459   5.626  0.3183  0.4799 -0.2675
   15MOL     C4 3672   2.855   5.540   5.497 -0.6459 -0.0173 -0.7196
   15MOL     C5 3673   2.816   5.316   5.613 -0.0113 -0.0983  0.0165
   15MOL     H6 3674   3.027   5.649   5.846 -0.4935  2.7478  1.3888
   15MOL     H7 3675   2.962   5.705   5.680 -0.0449 -2.3383 -1.5889
   15MOL     H8 3676   2.909   5.436   5.825  0.8640  0.5101 -0.3075
   15MOL     H9 3677   2.952   5.527   5.450 -0.2759 -0.3283  0.1057
   15MOL    H10 3678   2.838   5.646   5.516  3.5198  0.3706  1.3568
   15MOL    H11 3679   2.779   5.501   5.429 -0.9562 -2.2476  0.8627
   15MOL    H12 3680   2.732   5.324   5.544  1.2453  0.9793 -1.4043
   15MOL    H13 3681   2.762   5.287   5.703  1.1844 -0.3220  0.6675
   15MOL    H14 3682   2.868   5.699   5.827  1.7704  0.2343  2.5221
   15MOL    C15 3683   2.921   5.214   5.577  0.3107  0.6249  0.3468
   15MOL    C16 3684   2.879   5.072   5.579 -0.0993  0.5855 -0.3136
   15MOL    C17 3685   2.961   4.967   5.555 -0.2212  0.5853 -0.3294
   15MOL    C18 3686   3.108   4.988   5.527  0.4247  0.0573  0.3060
   15MOL    C19 3687   2.908   4.820   5.570  0.5237 -0.4871  0.2440
   15MOL    H20 3688   3.015   5.226   5.630 -0.4207 -0.4482  1.9109
   15MOL    H21 3689   2.956   5.230   5.474  0.7921  2.1677  0.7298
   15MOL    H22 3690   2.778   5.055   5.614  0.0588 -0.2063 -0.2211
   15MOL    H23 3691   3.178   4.964   5.607  0.8447 -0.9597 -0.3531
   15MOL    H24 3692   3.135   5.089   5.495 -1.9449  0.1034 -1.6920
   15MOL    H25 3693   3.124   4.924   5.441  1.9863  1.7038 -0.6671
   15MOL    H26 3694   2.816   4.819   5.628 -0.5136 -0.9042 -1.4085
   15MOL    H27 3695   2.971   4.762   5.638  0.1222 -1.2195  0.0006
   15MOL    C28 3696   2.874   4.739   5.441  0.3767 -0.7154 -0.6619
   15MOL    C29 3697   2.840   4.596   5.488  0.6919 -0.1527  0.1277
   15MOL    C30 3698   2.903   4.483   5.443  0.6661  0.1234 -0.5174
   15MOL    C31 3699   2.996   4.492   5.325 -0.3006 -0.4727 -0.4491
   15MOL    C32 3700   2.879   4.341   5.500 -0.2092 -0.6267  1.2134
   15MOL    H33 3701   2.957   4.744   5.370  1.0233  0.6320  0.1661
   15MOL    H34 3702   2.784   4.782   5.397 -1.4062 -2.6573  1.0072
   15MOL    H35 3703   2.770   4.599   5.570  1.3183  2.7293  0.6155
   15MOL    H36 3704   3.020   4.393   5.286  1.1123 -0.3001 -0.0704
   15MOL    H37 3705   3.090   4.542   5.348  0.7750 -3.3979  1.7717
   15MOL    H38 3706   2.946   4.540   5.242  1.8449  1.3172 -0.7483
   15MOL    H39 3707   2.811   4.344   5.586 -0.3758  0.3102  1.0572
   15MOL    H40 3708   2.973   4.300   5.537  1.5402  2.7810  0.6718
   15MOL    C41 3709   2.796   4.252   5.405 -0.3168 -0.7005  0.6585
   15MOL    C42 3710   2.795   4.109   5.461  0.4222  0.6039 -1.2391
   15MOL    C43 3711   2.771   3.988   5.401 -0.3780 -0.2264  0.1762
   15MOL    C44 3712   2.738   3.971   5.249 -0.1756  0.1041 -0.2864
   15MOL    C45 3713   2.768   3.857   5.487  0.6714  0.0087  0.7723
   15MOL    H46 3714   2.839   4.250   5.305 -0.2204  0.1909  0.6781
   15MOL    H47 3715   2.694   4.290   5.397  0.5826  1.6414  0.0919
   15MOL    H48 3716   2.812   4.114   5.567  0.9982 -1.4519 -1.2103
   15MOL    H49 3717   2.631   3.982   5.230 -0.8661 -0.0693  3.0919
   15MOL    H50 3718   2.781   3.878   5.213  0.2284 -0.4674  1.6136
   15MOL    H51 3719   2.773   4.054   5.188  1.3523 -0.9139 -0.8167
   15MOL    H52 3720   2.670   3.816   5.467  0.8969 -0.7602  1.2092
   15MOL    H53 3721   2.774   3.880   5.594  0.9324  1.3017  0.4846
   15MOL    C54 3722   2.871   3.758   5.455  0.2925 -0.0216  0.2690
   15MOL    C55 3723   2.827   3.623   5.509 -0.2277 -0.1644 -0.4585
   15MOL    C56 3724   2.885   3.552   5.605  0.1357  0.0508  0.2141
   15MOL    C57 3725   3.007   3.597   5.691 -0.1601 -0.4492  0.8342
   15MOL    C58 3726   2.831   3.412   5.639  0.0478 -0.4303 -0.6332
   15MOL    H59 3727   2.961   3.790   5.509  1.8290 -1.6848 -1.2509
   15MOL    H60 3728   2.899   3.761   5.350  1.4054 -2.2610  0.4705
   15MOL    H61 3729   2.730   3.591   5.472  0.7720 -1.2785 -2.1675
   15MOL    H62 3730   3.101   3.556   5.655 -0.0153  0.4182  0.1976
   15MOL    H63 3731   2.998   3.582   5.799 -1.2397  2.8573  1.2654
   15MOL    H64 3732   3.018   3.705   5.684  0.9827 -0.6124 -0.0276
   15MOL    H65 3733   2.722   3.400   5.640 -0.2362  1.7317 -1.0694
   15MOL    H66 3734   2.862   3.391   5.741 -2.8095 -0.8147  0.2177
   15MOL    C67 3735   2.892   3.313   5.536 -0.2368  0.6097 -0.6700
   15MOL    C68 3736   2.823   3.177   5.544 -0.0449 -0.3255  0.1780
   15MOL    C69 3737   2.863   3.057   5.584 -0.4343 -0.1888  0.4901
   15MOL    C70 3738   3.001   3.029   5.627  0.6548 -0.4288  0.1582
   15MOL    C71 3739   2.767   2.935   5.568  0.0550 -0.6202 -0.4941
   15MOL    H72 3740   3.000   3.301   5.549 -0.2377  1.3911  0.0870
   15MOL    H73 3741   2.877   3.344   5.432  0.1251 -0.4650 -1.0511
   15MOL    H74 3742   2.727   3.184   5.494 -0.3411  0.5396  0.8652
   15MOL    H75 3743   3.071   3.005   5.547 -1.7447  0.1902 -2.1839
   15MOL    H76 3744   2.998   2.950   5.702  1.4564 -0.1823  0.4510
   15MOL    H77 3745   3.043   3.117   5.677 -0.8390 -0.8395  2.1955
   15MOL    H78 3746   2.678   2.964   5.512 -0.5963  0.1820  0.9274
   15MOL    H79 3747   2.723   2.907   5.664 -1.2528 -0.7991 -1.1226
   15MOL    C80 3748   2.821   2.811   5.494 -0.6272 -0.9064  0.0457
   15MOL    C81 3749   2.718   2.704   5.456 -0.4645  0.1611 -0.1987
   15MOL    C82 3750   2.759   2.595   5.388 -0.0319  0.2990 -0.1540
   15MOL    C83 3751   2.899   2.555   5.354  0.4529  0.4383  0.1133
   15MOL    C84 3752   2.666   2.489   5.338  0.0047  0.3050 -0.5688
   15MOL    H85 3753   2.894   2.757   5.554 -1.2312 -0.7227  0.9602
   15MOL    H86 3754   2.868   2.833   5.399 -0.3734  0.6916  0.5303
   15MOL    H87 3755   2.614   2.717   5.483 -0.5600 -0.8177 -0.0681
   15MOL    H88 3756   2.905   2.525   5.249 -2.6350 -3.3443  0.8783
   15MOL    H89 3757   2.918   2.462   5.407  0.7682 -0.7329 -1.9902
   15MOL    H90 3758   2.978   2.626   5.376  1.7204 -1.0835  0.5843
   15MOL    H91 3759   2.678   2.395   5.390 -0.3004  0.2010 -0.6852
   15MOL    H92 3760   2.688   2.465   5.234  2.2624 -0.1662  0.0011
   15MOL    C93 3761   2.517   2.537   5.346 -0.3235 -0.1847 -0.1176
   15MOL    C94 3762   2.421   2.435   5.290 -0.3213  0.5565  0.3244
   15MOL    C95 3763   2.287   2.447   5.308  0.3104 -0.5095 -0.1479
   15MOL    C96 3764   2.210   2.557   5.381 -0.1280  0.6804  0.0001
   15MOL    C97 3765   2.190   2.343   5.258 -0.2902  0.3330 -0.3721
   15MOL    H98 3766   2.508   2.623   5.280  1.2527 -0.6065 -0.9099
   15MOL    H99 3767   2.498   2.552   5.452 -2.2082 -0.6305 -0.3725
   15MOL   H100 3768   2.463   2.354   5.233 -0.8250 -0.2386  1.0718
   15MOL   H101 3769   2.270   2.647   5.387 -1.2952  1.4540  0.3256
   15MOL   H102 3770   2.186   2.535   5.486  0.2569 -0.0151 -0.0584
   15MOL   H103 3771   2.120   2.579   5.324  1.1293  1.5807 -1.6678
   15MOL   H104 3772   2.220   2.310   5.159  0.1574 -0.9795  0.1866
   15MOL   H105 3773   2.094   2.391   5.242 -0.4328 -0.2607 -1.2838
   15MOL   C106 3774   2.181   2.212   5.340 -0.0678 -0.4412  0.2695
   15MOL   C107 3775   2.107   2.228   5.471 -0.0149 -0.4375  0.0951
   15MOL   C108 3776   2.154   2.243   5.595  0.7584 -0.3099 -0.7047
   15MOL   C109 3777   2.302   2.235   5.636  0.6171 -0.0409 -0.2237
   15MOL   C110 3778   2.048   2.276   5.695 -0.0036  0.1853  0.0241
   15MOL   H111 3779   2.285   2.187   5.359  0.7301  1.1883 -1.7919
   15MOL   H112 3780   2.144   2.133   5.275 -1.1974  0.5180 -0.2744
   15MOL   H113 3781   2.002   2.242   5.450  0.4861  0.9116 -1.6067
   15MOL   H114 3782   2.320   2.184   5.731 -1.3637  1.4224  0.9742
   15MOL   H115 3783   2.353   2.331   5.633  0.6252 -0.0758 -1.3769
   15MOL   H116 3784   2.352   2.182   5.555 -2.3117  1.0359 -2.8308
   15MOL   H117 3785   1.957   2.315   5.650 -0.8459  0.7702  2.1655
   15MOL   H118 3786   2.093   2.351   5.761  1.8764 -1.1259  0.2403
   15MOL   C119 3787   2.022   2.153   5.780  0.9214 -0.2096 -0.3121
   15MOL   C120 3788   1.947   2.190   5.912 -0.0317 -1.0610  0.5059
   15MOL   C121 3789   1.999   2.180   6.030  0.2109  0.6276 -0.3501
   15MOL   C122 3790   2.139   2.127   6.068  0.7535 -0.0435 -0.0357
   15MOL   C123 3791   1.922   2.235   6.149  0.5195  0.3930 -0.1017
   15MOL   H124 3792   2.112   2.094   5.797  0.8959  0.1239  1.0563
   15MOL   H125 3793   1.958   2.093   5.716  0.9650 -1.2741  0.6157
   15MOL   H126 3794   1.850   2.236   5.900  1.4563  2.3574  1.2482
   15MOL   H127 3795   2.146   2.065   6.158  1.1192 -1.0204 -0.7244
   15MOL   H128 3796   2.200   2.214   6.092  2.9172 -2.0067  1.8165
   15MOL   H129 3797   2.192   2.066   5.994 -1.3912 -0.4981 -1.2218
   15MOL   H130 3798   1.934   2.158   6.225 -0.3883 -0.3053 -0.6643
   15MOL   H131 3799   1.817   2.236   6.122  0.8844 -3.2494 -1.9489
   15MOL   C132 3800   1.968   2.379   6.182  0.0821 -0.1125  0.0075
   15MOL   C133 3801   1.983   2.479   6.065 -0.8737  0.8299  0.3795
   15MOL   C134 3802   1.964   2.614   6.066 -0.3060  0.5365 -0.2547
   15MOL   C135 3803   1.918   2.680   6.191 -0.0190  0.0705  0.2037
   15MOL   C136 3804   1.973   2.697   5.937  0.4869  0.0737 -0.1892
   15MOL   H137 3805   2.063   2.383   6.236  1.4371  0.8775 -2.3528
   15MOL   H138 3806   1.895   2.416   6.254  0.6288  0.5055  0.2611
   15MOL   H139 3807   2.025   2.439   5.974 -1.6489  1.4928 -0.2736
   15MOL   H140 3808   1.817   2.720   6.176 -0.4834 -0.8197  0.8608
   15MOL   H141 3809   1.989   2.761   6.205  1.6324 -1.5794  1.6338
   15MOL   H142 3810   1.915   2.618   6.280  2.0153 -0.1450  0.1389
   15MOL   H143 3811   1.876   2.742   5.917  0.6606  1.1537  1.2991
   15MOL   H144 3812   1.991   2.630   5.853 -1.1226 -1.4594  0.6603
   15MOL   C145 3813   2.083   2.803   5.956 -0.1779  0.0622  0.7149
   15MOL   C146 3814   2.223   2.748   5.989  0.0474  0.0349  0.0164
   15MOL   C147 3815   2.325   2.729   5.903  0.5836 -0.0756  0.5357
   15MOL   C148 3816   2.317   2.759   5.754  0.2060  0.0436  0.2592
   15MOL   C149 3817   2.456   2.684   5.958  0.3318 -0.2561 -0.4420
   15MOL   H150 3818   2.065   2.862   6.046 -0.2853  0.1352  0.6450
   15MOL   H151 3819   2.071   2.870   5.871  1.3402  0.1127  0.5147
   15MOL   H152 3820   2.253   2.716   6.088 -3.1625 -0.1850  0.9758
   15MOL   H153 3821   2.247   2.842   5.742 -1.5142 -1.4115  0.0266
   15MOL   H154 3822   2.286   2.676   5.692 -0.6538  0.9178 -0.4891
   15MOL   H155 3823   2.413   2.791   5.712 -0.1579  1.6308  0.6018
   15MOL   H156 3824   2.460   2.689   6.067 -1.5440 -1.1490 -0.3059
   15MOL   H157 3825   2.531   2.746   5.910 -0.0470 -0.3412 -1.1411
   15MOL   C158 3826   2.485   2.541   5.916  0.1568  0.5075 -0.3524
   15MOL   C159 3827   2.637   2.504   5.914  0.0333 -0.8085  0.2286
   15MOL   C160 3828   2.701   2.438   5.820 -0.4131 -1.0290  0.5793
   15MOL   C161 3829   2.623   2.379   5.706  0.1612  0.0602 -0.0351
   15MOL   C162 3830   2.849   2.400   5.826 -0.6880  0.0373 -0.1567
   15MOL   H163 3831   2.436   2.524   5.820 -0.7002  0.2106  0.1337
   15MOL   H164 3832   2.445   2.480   5.997  0.1659  1.7350  0.5933
   15MOL   H165 3833   2.693   2.532   6.002  1.5036 -1.5733 -0.4292
   15MOL   H166 3834   2.697   2.333   5.641  0.7773  0.0556  0.6615
   15MOL   H167 3835   2.568   2.453   5.648 -0.1781 -0.8975 -0.9539
   15MOL   H168 3836   2.543   2.312   5.739 -0.7046  2.3076  2.5598
   15MOL   H169 3837   2.871   2.294   5.817 -1.2185  0.0129 -1.1830
   15MOL   H170 3838   2.882   2.425   5.927 -0.4419  0.5083 -0.3528
   15MOL   C171 3839   2.930   2.489   5.733 -0.5077 -0.5974  0.3642
   15MOL   C172 3840   3.070   2.454   5.717  0.0827 -0.5420  0.7660
   15MOL   C173 3841   3.187   2.527   5.722  1.2858 -0.2607 -0.1178
   15MOL   C174 3842   3.186   2.668   5.746  0.0986 -0.0257 -0.5243
   15MOL   C175 3843   3.323   2.464   5.695  0.2790  0.5000 -0.3269
   15MOL   H176 3844   2.912   2.587   5.777  0.9729  0.6510 -1.7673
   15MOL   H177 3845   2.884   2.494   5.634  0.7529  0.1358 -0.1857
   15MOL   H178 3846   3.080   2.348   5.699  0.7821 -0.6814  1.8746
   15MOL   H179 3847   3.258   2.696   5.824  0.2820 -0.1961 -0.6314
   15MOL   H180 3848   3.093   2.717   5.775 -1.3577 -1.7446 -2.2254
   15MOL   H181 3849   3.214   2.714   5.651  3.3248  0.1598  0.4392
   15MOL   H182 3850   3.367   2.494   5.600  0.9371 -0.8553 -0.4556
   15MOL   H183 3851   3.315   2.357   5.677  1.1362  0.5784 -1.1880
   15MOL   C184 3852   3.418   2.506   5.802 -0.3953  0.2385  0.0938
   15MOL   C185 3853   3.511   2.390   5.823 -0.0067 -0.1189 -0.4332
   15MOL   C186 3854   3.594   2.337   5.733 -0.6733  0.0892  0.2042
   15MOL   C187 3855   3.632   2.408   5.602 -0.1314  0.4782 -0.5404
   15MOL   C188 3856   3.654   2.201   5.749  0.3431 -0.0186  0.0788
   15MOL   H189 3857   3.366   2.530   5.895  1.3094  0.3451  1.0426
   15MOL   H190 3858   3.475   2.597   5.781  0.4066 -0.5495 -1.1726
   15MOL   H191 3859   3.478   2.324   5.902 -2.2134  2.8086  1.1566
   15MOL   H192 3860   3.589   2.354   5.517  3.2013 -1.0655 -1.3336
   15MOL   H193 3861   3.740   2.414   5.589 -0.0701  0.1367 -0.2022
   15MOL   H194 3862   3.584   2.505   5.590  1.3253  1.3333  0.4868
   15MOL   H195 3863   3.600   2.137   5.680 -3.7362  1.7792  1.4102
   15MOL   H196 3864   3.626   2.155   5.844 -0.9112 -0.0309 -0.2794
   15MOL   C197 3865   3.805   2.205   5.741 -0.1997 -0.2926 -0.3464
   15MOL   C198 3866   3.880   2.088   5.802  0.4303  0.8186 -0.3720
   15MOL   C199 3867   3.906   2.070   5.933 -0.0561  0.0156 -0.7176
   15MOL   C200 3868   3.866   2.163   6.047 -0.2957 -0.1033 -0.5776
   15MOL   C201 3869   3.997   1.961   5.982  1.2446 -0.9216  0.4419
   15MOL   H202 3870   3.847   2.293   5.790 -3.1724  0.7166  0.4499
   15MOL   H203 3871   3.836   2.218   5.637  0.0044  0.0222 -0.2451
   15MOL   H204 3872   3.932   2.018   5.738 -1.3361 -0.2764 -0.6500
   15MOL   H205 3873   3.764   2.202   6.043  0.7048  2.6337 -0.4265
   15MOL   H206 3874   3.941   2.240   6.062  0.5639 -1.0492  0.1053
   15MOL   H207 3875   3.862   2.101   6.137 -1.7494 -1.7836 -1.7560
   15MOL   H208 3876   3.956   1.909   6.068  0.9772  0.0393  0.8981
   15MOL   H209 3877   4.090   2.010   6.013 -0.4849  3.1619 -0.4470
   15MOL   C210 3878   4.019   1.846   5.881  0.5150 -0.0938  0.0522
   15MOL   C211 3879   4.113   1.733   5.937  0.3549 -0.2775  0.1115
   15MOL   C212 3880   4.240   1.728   5.909 -0.0402  0.5213  0.1518
   15MOL   C213 3881   4.316   1.835   5.831 -0.7665 -0.0673  0.0410
   15MOL   C214 3882   4.326   1.614   5.956 -0.0280 -0.6031  0.2091
   15MOL   H215 3883   4.060   1.874   5.784 -1.0553  1.8713 -0.0730
   15MOL   H216 3884   3.921   1.805   5.858 -0.2667  1.2606  0.9213
   15MOL   H217 3885   4.066   1.660   6.001  0.3763 -0.3223  0.0767
   15MOL   H218 3886   4.342   1.792   5.735 -0.3159  1.3520 -0.4925
   15MOL   H219 3887   4.407   1.850   5.888 -0.8280  0.7362 -0.0532
   15MOL   H220 3888   4.268   1.931   5.809 -0.1297 -0.2546 -2.2672
   15MOL   H221 3889   4.266   1.555   6.026 -0.8869 -0.0244 -0.0466
   15MOL   H222 3890   4.416   1.640   6.011  0.0303  1.8706 -1.0078
   15MOL   C223 3891   4.377   1.529   5.841  0.3202  0.3920 -0.2796
   15MOL   C224 3892   4.431   1.387   5.872  0.3884  0.2390 -0.1846
   15MOL   C225 3893   4.423   1.280   5.787 -0.2209  0.4551 -0.4379
   15MOL   C226 3894   4.353   1.285   5.651  0.9328 -0.1778 -0.1831
   15MOL   C227 3895   4.484   1.142   5.814  0.0262  0.3686 -0.0594
   15MOL   H228 3896   4.455   1.590   5.795  1.7147 -1.3314 -0.2603
   15MOL   H229 3897   4.293   1.530   5.772 -0.0426 -1.2085  0.1280
   15MOL   H230 3898   4.489   1.372   5.962  1.2500  1.2053 -0.5665
   15MOL   H231 3899   4.301   1.378   5.629  2.6031  1.1593  1.4150
   15MOL   H232 3900   4.280   1.205   5.639 -0.2585  0.8574  0.1434
   15MOL   H233 3901   4.425   1.266   5.571  0.6258 -1.2021 -0.2266
   15MOL   H234 3902   4.497   1.097   5.716 -0.9752  0.3466 -0.1854
   15MOL   H235 3903   4.405   1.079   5.856  0.7253  0.9088  2.1635
   15MOL   C236 3904   4.616   1.140   5.898  0.2351 -0.3954 -0.2281
   15MOL   C237 3905   4.710   1.027   5.866 -0.2801  1.1942 -0.1008
   15MOL   C238 3906   4.841   1.040   5.830 -0.1908 -0.0818  0.1835
   15MOL   C239 3907   4.927   1.159   5.811  0.4988 -0.1797 -0.2605
   15MOL   C240 3908   4.919   0.919   5.796  0.2955  0.6907 -0.4286
   15MOL   H241 3909   4.594   1.147   6.004  1.7203 -0.1899  0.0749
   15MOL   H242 3910   4.670   1.234   5.892  1.1894 -1.0093 -1.4956
   15MOL   H243 3911   4.664   0.930   5.880 -0.6974  1.2300 -1.2102
   15MOL   H244 3912   4.927   1.199   5.710  1.7740  1.1581  0.2483
   15MOL   H245 3913   5.031   1.133   5.832  0.8054 -0.4710 -2.0861
   15MOL   H246 3914   4.885   1.245   5.864 -0.0913 -0.1374 -0.7897
   15MOL   H247 3915   4.857   0.835   5.828  0.7647  0.7333  0.5983
   15MOL   H248 3916   5.006   0.913   5.861  0.0414  0.6237 -0.0943
   15MOL   C249 3917   4.972   0.893   5.649 -0.1401 -0.0859 -0.3405
   15MOL   C250 3918   5.069   0.780   5.653  0.3693  0.4387 -0.7678
   15MOL   C251 3919   5.206   0.786   5.640 -0.1653 -0.4438 -1.0024
   15MOL   C252 3920   5.286   0.913   5.644 -0.5659 -0.1656  0.2135
   15MOL   C253 3921   5.285   0.655   5.627 -0.2913 -0.8270  0.3263
   15MOL   H254 3922   5.030   0.973   5.605  1.5227 -2.0788 -1.8963
   15MOL   H255 3923   4.892   0.864   5.580 -0.0633 -0.4821 -0.2634
   15MOL   H256 3924   5.015   0.687   5.644  2.0615 -0.8916  2.1730
   15MOL   H257 3925   5.321   0.930   5.746 -0.2226  0.1645  0.0430
   15MOL   H258 3926   5.221   0.998   5.622  1.6134  1.1164 -1.4855
   15MOL   H259 3927   5.370   0.934   5.577  0.7414  1.1095  2.1993
   15MOL   H260 3928   5.221   0.567   5.620  0.1122 -1.0517 -0.7261
   15MOL   H261 3929   5.338   0.631   5.719 -0.4920 -3.7392 -0.2537
   15MOL   H262 3930   5.353   0.659   5.542 -0.4537 -1.2261  0.1753
   16MOL     C1 3931   0.661   0.183   7.354 -0.0316  0.2928 -0.0058
   16MOL     C2 3932   0.659   0.334   7.377 -0.1118 -0.7461 -0.4505
   16MOL     C3 3933   0.664   0.400   7.494 -0.4334  0.0067 -0.1618
   16MOL     C4 3934   0.665   0.334   7.628  0.2643 -0.0778  0.2898
   16MOL     C5 3935   0.651   0.550   7.491 -0.0765  0.3868  0.4197
   16MOL     H6 3936   0.747   0.123   7.382 -0.6799 -1.0935 -0.9544
   16MOL     H7 3937   0.594   0.133   7.424  0.5479 -2.3015 -1.2907
   16MOL     H8 3938   0.655   0.398   7.290 -2.1207  1.6336  1.3351
   16MOL     H9 3939   0.569   0.349   7.677 -0.5068 -2.4320 -0.4312
   16MOL    H10 3940   0.747   0.370   7.690 -0.0023  0.0326  0.5794
   16MOL    H11 3941   0.674   0.226   7.617  1.6249 -0.0347  0.8786
   16MOL    H12 3942   0.654   0.581   7.386  2.5883  0.2710  0.4272
   16MOL    H13 3943   0.740   0.601   7.526  0.3548 -1.4932  2.1198
   16MOL    H14 3944   0.634   0.166   7.250  0.0049 -0.1089  0.0532
   16MOL    C15 3945   0.530   0.606   7.555 -0.2308  0.6782 -0.1430
   16MOL    C16 3946   0.504   0.750   7.532  0.2538 -0.0655  0.1975
   16MOL    C17 3947   0.450   0.832   7.623 -0.0894 -0.0542  0.6516
   16MOL    C18 3948   0.400   0.790   7.761 -0.8312  0.2160  0.1418
   16MOL    C19 3949   0.423   0.986   7.595 -0.1904  0.3462  0.1751
   16MOL    H20 3950   0.549   0.576   7.659 -0.3575  0.1057 -0.2832
   16MOL    H21 3951   0.441   0.552   7.524 -1.5197  2.6580  0.0676
   16MOL    H22 3952   0.531   0.783   7.433  1.6527 -0.3727  0.4727
   16MOL    H23 3953   0.306   0.843   7.774 -1.3510 -0.7873  0.5483
   16MOL    H24 3954   0.468   0.818   7.840 -1.6678  0.1001  0.9087
   16MOL    H25 3955   0.387   0.682   7.768  1.1989 -0.4172 -3.9164
   16MOL    H26 3956   0.474   1.043   7.672 -1.2372  0.0516  1.0964
   16MOL    H27 3957   0.318   1.008   7.614 -0.1856  0.0911  0.4893
   16MOL    C28 3958   0.461   1.029   7.453  0.0105  0.1790  0.0167
   16MOL    C29 3959   0.406   1.167   7.429  0.0111 -0.7323  0.3842
   16MOL    C30 3960   0.349   1.211   7.316  0.6666 -0.1936 -0.4555
   16MOL    C31 3961   0.338   1.137   7.188  0.6333 -0.0410  0.3323
   16MOL    C32 3962   0.290   1.357   7.320 -0.7551  0.5308  0.1469
   16MOL    H33 3963   0.412   0.960   7.384  0.8578 -1.5169  1.0797
   16MOL    H34 3964   0.568   1.014   7.436 -0.2964 -2.6084  0.3078
   16MOL    H35 3965   0.419   1.233   7.513  0.4017  0.9886 -0.9962
   16MOL    H36 3966   0.416   1.063   7.172  0.3992  0.3296 -2.7812
   16MOL    H37 3967   0.341   1.208   7.106  0.2509  0.2853  0.5969
   16MOL    H38 3968   0.238   1.092   7.188  0.2126  0.8862  0.5786
   16MOL    H39 3969   0.345   1.423   7.253  0.6664  0.5086  1.2708
   16MOL    H40 3970   0.303   1.408   7.415  1.8090  1.6035 -0.7360
   16MOL    C41 3971   0.142   1.364   7.300  0.4610 -0.5846  0.0350
   16MOL    C42 3972   0.094   1.505   7.285  0.2680  0.3506  0.3159
   16MOL    C43 3973   7.857   1.553   7.333  0.0746  0.6108  0.3668
   16MOL    C44 3974   7.749   1.466   7.405 -0.1104  0.4330  0.1993
   16MOL    C45 3975   7.812   1.700   7.312 -0.4513  0.2130 -0.1625
   16MOL    H46 3976   0.106   1.331   7.397  0.2952  2.0158  0.9013
   16MOL    H47 3977   0.114   1.301   7.216  1.1846  0.2911 -0.8773
   16MOL    H48 3978   0.167   1.567   7.236 -0.8804 -0.2610 -2.2335
   16MOL    H49 3979   7.732   1.484   7.511 -1.0778 -2.0893  0.4954
   16MOL    H50 3980   7.784   1.363   7.400 -1.5821 -0.0593 -0.1861
   16MOL    H51 3981   7.650   1.454   7.362 -0.3861 -1.2689  1.2877
   16MOL    H52 3982   7.706   1.689   7.289 -0.6641 -0.7077  1.1762
   16MOL    H53 3983   7.849   1.752   7.224 -0.5992 -0.9479 -0.9332
   16MOL    C54 3984   7.822   1.784   7.441  0.1183  0.4449  0.0588
   16MOL    C55 3985   7.795   1.931   7.415 -0.0590  0.1449  0.0054
   16MOL    C56 3986   7.671   1.988   7.418 -0.2735 -0.8484 -0.4262
   16MOL    C57 3987   7.539   1.909   7.440  0.0019  0.0363  0.0138
   16MOL    C58 3988   7.649   2.130   7.383  0.5192  0.0643  0.0230
   16MOL    H59 3989   0.039   1.777   7.485  2.1905  1.6168 -4.2171
   16MOL    H60 3990   7.754   1.745   7.517 -0.8667 -1.6513 -1.8483
   16MOL    H61 3991   0.001   1.987   7.390  1.1708 -1.5565  0.4298
   16MOL    H62 3992   7.469   1.930   7.359 -0.1152 -1.2063 -0.2155
   16MOL    H63 3993   7.501   1.943   7.536  0.6794  0.1238  0.2557
   16MOL    H64 3994   7.548   1.801   7.447  0.2997 -0.0588 -1.6238
   16MOL    H65 3995   7.746   2.178   7.389  0.2048  1.1107 -2.5477
   16MOL    H66 3996   7.587   2.185   7.454 -1.1566 -0.8578 -0.6833
   16MOL    C67 3997   7.588   2.152   7.250  0.2624 -0.3978  0.6477
   16MOL    C68 3998   7.619   2.296   7.200 -0.1943 -0.0011 -0.0949
   16MOL    C69 3999   7.531   2.389   7.146  0.1333 -0.0022 -0.5113
   16MOL    C70 4000   7.387   2.366   7.101  0.4326 -0.1967  0.1732
   16MOL    C71 4001   7.576   2.532   7.105  0.3444  0.2543 -0.1739
   16MOL    H72 4002   7.483   2.131   7.266 -0.4156  1.4492 -1.1215
   16MOL    H73 4003   7.622   2.079   7.176  0.4504  1.2152 -0.8829
   16MOL    H74 4004   7.715   2.340   7.222  0.1284 -0.7887  0.0815
   16MOL    H75 4005   7.383   2.378   6.993 -0.7631 -1.5270  0.0621
   16MOL    H76 4006   7.316   2.438   7.143  0.4161 -0.3187  0.3569
   16MOL    H77 4007   7.357   2.265   7.128  1.7700 -0.4081  0.9356
   16MOL    H78 4008   7.593   2.525   6.998  4.4908 -0.2357  0.4248
   16MOL    H79 4009   7.678   2.548   7.140  0.4390 -0.8890  0.1204
   16MOL    C80 4010   7.473   2.651   7.122  0.6832  0.1218  0.3737
   16MOL    C81 4011   7.533   2.786   7.071  0.1458  0.1382 -0.5439
   16MOL    C82 4012   7.604   2.878   7.144  0.0887  0.0355  0.2624
   16MOL    C83 4013   7.634   2.861   7.292  0.5424 -0.3606  0.0308
   16MOL    C84 4014   7.658   3.012   7.083  0.6225 -0.1777 -0.0678
   16MOL    H85 4015   7.430   2.662   7.221 -2.2571  0.8610 -0.9226
   16MOL    H86 4016   7.386   2.626   7.061  0.3009  0.7697  0.6524
   16MOL    H87 4017   7.523   2.796   6.964 -1.9606  0.1922 -0.3649
   16MOL    H88 4018   7.578   2.940   7.342  0.4952 -0.1350 -0.3777
   16MOL    H89 4019   7.739   2.869   7.320  0.7023 -0.1488 -0.6221
   16MOL    H90 4020   7.604   2.763   7.329 -1.7931  0.5263  0.5513
   16MOL    H91 4021   7.645   2.996   6.976 -1.1912 -0.2348  0.1413
   16MOL    H92 4022   7.765   3.030   7.085  0.7900 -1.0974 -0.2144
   16MOL    C93 4023   7.579   3.134   7.126  0.1784 -0.3023  0.7625
   16MOL    C94 4024   7.601   3.249   7.029  0.2342  0.2407 -0.0308
   16MOL    C95 4025   7.677   3.358   7.049  0.2219 -0.0932 -0.1989
   16MOL    C96 4026   7.756   3.392   7.174  0.3911 -0.8809 -0.0809
   16MOL    C97 4027   7.656   3.471   6.952 -0.0900 -0.0425  0.4444
   16MOL    H98 4028   7.608   3.164   7.226  0.6821 -0.3703  0.6369
   16MOL    H99 4029   7.472   3.114   7.126  0.3179 -1.5341 -2.6654
   16MOL   H100 4030   7.537   3.253   6.942 -1.1564  2.3235  1.0451
   16MOL   H101 4031   7.856   3.433   7.160 -0.4560 -0.1169 -4.7528
   16MOL   H102 4032   7.771   3.302   7.234  1.8133 -2.1875 -2.3035
   16MOL   H103 4033   7.711   3.470   7.234 -1.0535 -0.2591 -1.9070
   16MOL   H104 4034   7.593   3.544   7.004 -1.2669 -0.6307 -0.1179
   16MOL   H105 4035   7.601   3.440   6.863  1.3875 -0.7132 -0.2359
   16MOL   C106 4036   7.786   3.526   6.891 -0.0293  0.7413 -0.1764
   16MOL   C107 4037   7.772   3.644   6.803 -0.2682 -1.0007  0.2764
   16MOL   C108 4038   7.853   3.756   6.799  0.3101  0.3308  0.2953
   16MOL   C109 4039   0.089   3.777   6.888  0.2189  0.6071 -0.6879
   16MOL   C110 4040   7.825   3.858   6.692  0.3804 -0.1752 -0.0481
   16MOL   H111 4041   7.826   3.453   6.820 -2.6092 -1.1045  0.1489
   16MOL   H112 4042   7.857   3.542   6.972  0.0363  0.3648 -0.1553
   16MOL   H113 4043   7.704   3.631   6.720  0.5442  1.5572 -0.8409
   16MOL   H114 4044   0.124   3.880   6.896 -0.2864  0.5969  2.2053
   16MOL   H115 4045   0.173   3.711   6.864  1.8223  2.6479 -0.8188
   16MOL   H116 4046   0.061   3.747   6.989  1.4228 -1.8905 -1.0496
   16MOL   H117 4047   7.814   3.958   6.734  1.2952  0.0649 -0.3711
   16MOL   H118 4048   7.724   3.839   6.657 -0.8688 -0.8479  3.6320
   16MOL   C119 4049   0.028   3.859   6.564 -0.2529  0.5113  0.0215
   16MOL   C120 4050   7.857   3.946   6.451  0.3820 -0.3407 -0.2717
   16MOL   C121 4051   7.794   3.896   6.345 -0.0104  0.1085  0.0600
   16MOL   C122 4052   7.763   3.742   6.329  0.5997 -0.6200  0.6953
   16MOL   C123 4053   7.745   3.984   6.227 -0.0099 -0.1309 -0.1998
   16MOL   H124 4054   0.037   3.756   6.530 -1.9345 -0.5412  2.5866
   16MOL   H125 4055   0.133   3.883   6.578 -0.2128  0.1515  0.3454
   16MOL   H126 4056   0.002   4.050   6.464  2.3236 -1.0934  1.8701
   16MOL   H127 4057   7.666   3.733   6.280  0.7097 -1.4735  0.6123
   16MOL   H128 4058   7.763   3.694   6.427  0.3912 -0.4518  0.7773
   16MOL   H129 4059   7.835   3.690   6.265 -1.5618 -2.4555 -0.3304
   16MOL   H130 4060   7.788   4.082   6.249 -0.7180 -0.0016  0.6199
   16MOL   H131 4061   7.636   3.986   6.228 -0.0380 -1.7892  1.0346
   16MOL   C132 4062   7.800   3.937   6.090 -0.0001  0.3834  0.4528
   16MOL   C133 4063   7.762   4.035   5.977  0.0816 -0.2416 -0.2268
   16MOL   C134 4064   7.671   4.017   5.878 -0.0590  0.3165 -0.1867
   16MOL   C135 4065   7.606   3.880   5.849  0.4941  0.2321 -0.1351
   16MOL   C136 4066   7.637   4.137   5.782  0.2320  0.1223 -0.3348
   16MOL   H137 4067   7.770   3.834   6.074  0.7172  0.2910 -0.3402
   16MOL   H138 4068   0.026   3.924   6.096 -0.0529 -0.1147  0.3275
   16MOL   H139 4069   7.805   4.133   5.993 -1.6970  0.6142 -0.5176
   16MOL   H140 4070   7.499   3.872   5.862  0.4784  1.2575  0.4866
   16MOL   H141 4071   7.660   3.797   5.895  0.4301 -0.5855 -1.5229
   16MOL   H142 4072   7.620   3.868   5.741  1.9568 -3.0113  0.3769
   16MOL   H143 4073   7.530   4.150   5.798 -0.5115 -2.1855 -2.9803
   16MOL   H144 4074   7.648   4.094   5.683  1.5181 -1.0261  0.2859
   16MOL   C145 4075   7.717   4.268   5.793  0.7187  0.2821  0.5100
   16MOL   C146 4076   7.664   4.379   5.700  0.0224 -0.0579 -1.2391
   16MOL   C147 4077   7.730   4.498   5.679  0.6079 -0.3724  0.0652
   16MOL   C148 4078   7.870   4.527   5.739  0.2221 -0.0245 -0.0239
   16MOL   C149 4079   7.657   4.601   5.588 -0.2124 -0.8198  0.3743
   16MOL   H150 4080   7.820   4.253   5.759 -0.3085 -2.3704 -1.5518
   16MOL   H151 4081   7.710   4.306   5.895 -0.1886 -0.0919  0.5885
   16MOL   H152 4082   7.561   4.369   5.671 -0.3818 -2.0272  0.7314
   16MOL   H153 4083   7.850   4.552   5.844 -2.3821 -1.6801 -0.0892
   16MOL   H154 4084   0.033   4.614   5.691 -0.1908 -0.6980 -1.6530
   16MOL   H155 4085   0.052   4.439   5.748  1.0749  0.6895  0.9948
   16MOL   H156 4086   7.570   4.562   5.535 -1.3243  0.4919  1.1989
   16MOL   H157 4087   7.723   4.630   5.506  0.6539 -0.4544  1.1975
   16MOL   C158 4088   7.628   4.726   5.676 -0.0674  0.3713  0.1074
   16MOL   C159 4089   7.531   4.825   5.619  0.3870 -0.3662 -0.2530
   16MOL   C160 4090   7.550   4.921   5.532  0.0949 -0.1365 -0.1814
   16MOL   C161 4091   7.689   4.958   5.477  0.0527 -0.6868  0.1485
   16MOL   C162 4092   7.433   5.011   5.483  0.6829  0.1741 -0.9405
   16MOL   H163 4093   7.715   4.780   5.713  0.6620 -0.1719 -0.7779
   16MOL   H164 4094   7.597   4.694   5.776 -0.7351  0.7816  0.0321
   16MOL   H165 4095   7.428   4.813   5.650  1.4365 -2.0717  2.7792
   16MOL   H166 4096   7.761   4.876   5.476 -0.2897 -1.0321  1.8935
   16MOL   H167 4097   7.723   5.036   5.545  0.7926 -0.0234 -0.9766
   16MOL   H168 4098   7.680   5.005   5.379  0.6943 -0.3964  0.2256
   16MOL   H169 4099   7.462   5.113   5.506 -1.0241  0.4488  0.0082
   16MOL   H170 4100   7.350   4.990   5.550  0.4002 -1.5570 -1.7896
   16MOL   C171 4101   7.391   4.999   5.336 -0.1836 -0.2736  0.4756
   16MOL   C172 4102   7.255   5.066   5.298  0.2296 -0.0547 -0.1345
   16MOL   C173 4103   7.145   5.011   5.236  0.6029 -0.4245 -0.5984
   16MOL   C174 4104   7.138   4.869   5.193 -0.2995  0.7688 -0.3639
   16MOL   C175 4105   7.014   5.085   5.214  0.1048 -0.1632  0.8188
   16MOL   H176 4106   7.385   4.890   5.331 -0.4933 -0.2771  0.8868
   16MOL   H177 4107   7.468   5.024   5.264 -2.1584  0.5114 -1.4042
   16MOL   H178 4108   7.247   5.172   5.319  0.5084  0.0595 -0.6163
   16MOL   H179 4109   7.094   4.807   5.272 -0.9471  3.2955  1.3247
   16MOL   H180 4110   7.240   4.837   5.174 -0.0498  0.3447  1.6082
   16MOL   H181 4111   7.088   4.872   5.097 -0.9842  0.9126 -0.0070
   16MOL   H182 4112   6.950   5.074   5.302 -0.4781 -3.0666  0.0799
   16MOL   H183 4113   6.964   5.045   5.126  1.5289 -0.4134  0.1083
   16MOL   C184 4114   7.021   5.235   5.188 -0.2849 -0.0981  0.0630
   16MOL   C185 4115   6.882   5.296   5.153 -0.2147  0.0722  0.1074
   16MOL   C186 4116   6.829   5.396   5.222 -0.0248 -0.2557 -0.1229
   16MOL   C187 4117   6.900   5.465   5.335 -0.6549 -0.3582  0.4420
   16MOL   C188 4118   6.690   5.457   5.186  0.8388 -0.3505 -0.3776
   16MOL   H189 4119   7.074   5.238   5.093  0.7408 -0.9878  0.5944
   16MOL   H190 4120   7.078   5.287   5.265  0.4483 -0.0331 -0.5196
   16MOL   H191 4121   6.825   5.248   5.075  1.4992 -2.8734  0.6301
   16MOL   H192 4122   6.946   5.395   5.404 -1.6492 -0.8416  0.6280
   16MOL   H193 4123   6.845   5.542   5.390 -0.3045 -0.7889  1.4103
   16MOL   H194 4124   6.981   5.528   5.298 -0.1942 -1.3383 -0.2107
   16MOL   H195 4125   6.642   5.401   5.105 -0.3435  0.2740 -0.1308
   16MOL   H196 4126   6.690   5.555   5.138 -0.4042  0.5633  1.4217
   16MOL   C197 4127   6.593   5.444   5.304 -0.6946  0.2397 -0.2851
   16MOL   C198 4128   6.466   5.366   5.265  0.6502 -0.5477  0.2283
   16MOL   C199 4129   6.336   5.384   5.304  0.8242  1.3580  0.8124
   16MOL   C200 4130   6.291   5.502   5.390 -0.1536 -0.9223  0.6558
   16MOL   C201 4131   6.218   5.291   5.273 -0.2037  0.1111 -0.2179
   16MOL   H202 4132   6.569   5.539   5.351  1.7197  0.5761  0.3205
   16MOL   H203 4133   6.645   5.383   5.377 -0.1279  1.3452  0.2472
   16MOL   H204 4134   6.491   5.280   5.204 -1.1392 -0.9347  0.0051
   16MOL   H205 4135   6.193   5.545   5.372  1.1115  2.1101  0.6552
   16MOL   H206 4136   6.359   5.587   5.384 -2.8520  1.3876  2.1114
   16MOL   H207 4137   6.282   5.471   5.494  0.2376 -0.9826  0.6722
   16MOL   H208 4138   6.141   5.345   5.217 -2.7996 -1.1108  2.0911
   16MOL   H209 4139   6.158   5.261   5.359  0.8243  1.1899  0.9062
   16MOL   C210 4140   6.256   5.166   5.192 -0.3370 -0.0541 -0.2157
   16MOL   C211 4141   6.132   5.092   5.138 -0.5926  0.6637 -0.1606
   16MOL   C212 4142   6.052   5.126   5.033  0.0077  0.7702 -0.1423
   16MOL   C213 4143   6.082   5.243   4.939 -0.6737  0.1734 -0.1512
   16MOL   C214 4144   5.922   5.046   5.012 -0.2048  0.6293  0.2164
   16MOL   H215 4145   6.318   5.104   5.258 -1.4755 -1.6746 -0.6524
   16MOL   H216 4146   6.316   5.198   5.107  1.4975 -0.5894  0.8338
   16MOL   H217 4147   6.093   5.017   5.205 -0.8441  0.1742 -0.8492
   16MOL   H218 4148   6.088   5.205   4.837 -0.8070  1.1867 -0.5418
   16MOL   H219 4149   6.179   5.290   4.953 -0.0095 -1.7605  2.0836
   16MOL   H220 4150   5.996   5.307   4.921 -0.6019 -0.0596 -1.3693
   16MOL   H221 4151   5.929   4.957   5.074  1.4547  0.8248  0.3357
   16MOL   H222 4152   5.918   5.007   4.910  0.0567  2.6042 -0.5805
   16MOL   C223 4153   5.796   5.120   5.058 -0.5807 -0.1481  0.0353
   16MOL   C224 4154   5.675   5.034   5.043  0.2776 -0.1278 -0.2093
   16MOL   C225 4155   5.550   5.077   5.016  0.4777 -0.5710 -0.2164
   16MOL   C226 4156   5.524   5.223   5.009  0.1725  0.4237  0.0452
   16MOL   C227 4157   5.429   4.990   4.988 -0.1321  0.1891 -0.0314
   16MOL   H228 4158   5.779   5.203   4.990  0.9116 -0.8952 -1.3077
   16MOL   H229 4159   5.813   5.148   5.161  2.4227  0.7584 -0.6492
   16MOL   H230 4160   5.689   4.928   5.026  0.5770 -0.2578  0.8239
   16MOL   H231 4161   5.594   5.281   5.070 -0.0143 -0.0441  0.7054
   16MOL   H232 4162   5.432   5.246   5.063 -0.5692 -1.6007 -0.3250
   16MOL   H233 4163   5.526   5.262   4.907  3.1255 -2.3337 -1.0469
   16MOL   H234 4164   5.403   4.994   4.883 -2.4827 -0.4154  0.5087
   16MOL   H235 4165   5.335   5.028   5.029 -0.0499 -1.9420  2.2426
   16MOL   C236 4166   5.434   4.839   5.030 -0.9495  0.0631  0.1615
   16MOL   C237 4167   5.299   4.756   5.017 -0.0441  0.2511 -0.0835
   16MOL   C238 4168   5.270   4.638   5.072  0.3315  0.3848 -0.2951
   16MOL   C239 4169   5.360   4.560   5.156 -0.6834  0.3125 -0.5569
   16MOL   C240 4170   5.122   4.587   5.065  0.0199  0.5066  0.3144
   16MOL   H241 4171   5.483   4.833   5.127  0.6170 -4.1759 -0.7781
   16MOL   H242 4172   5.510   4.791   4.969  1.4338  1.2830  2.1292
   16MOL   H243 4173   5.236   4.801   4.942 -0.2561 -0.7556 -0.5112
   16MOL   H244 4174   5.327   4.557   5.259  0.8173 -0.7436 -0.0809
   16MOL   H245 4175   5.464   4.593   5.151 -0.3316 -0.5266  1.0421
   16MOL   H246 4176   5.360   4.454   5.130  1.3110 -0.1728  1.2380
   16MOL   H247 4177   5.055   4.654   5.011  1.4427  0.5353 -1.4857
   16MOL   H248 4178   5.080   4.589   5.166  0.3942  0.3184  0.4722
   16MOL   C249 4179   5.113   4.461   4.980 -0.6601  0.8657  0.3732
   16MOL   C250 4180   5.139   4.498   4.837  0.2972 -0.0448 -0.4622
   16MOL   C251 4181   5.231   4.445   4.754 -0.0573 -0.0447 -0.0892
   16MOL   C252 4182   5.349   4.360   4.802  0.2286 -0.0819  0.3474
   16MOL   C253 4183   5.244   4.480   4.610 -1.0077 -0.3180  0.0704
   16MOL   H254 4184   5.008   4.432   4.981 -1.1846  2.7171  0.4257
   16MOL   H255 4185   5.168   4.375   5.019 -0.1870  1.1248  0.2727
   16MOL   H256 4186   5.077   4.574   4.792  2.6623  0.6292 -2.7149
   16MOL   H257 4187   5.333   4.266   4.750  0.4301  1.5046 -2.6873
   16MOL   H258 4188   5.354   4.344   4.910 -0.6692 -0.4249  0.3456
   16MOL   H259 4189   5.448   4.390   4.768 -0.7316  1.0536 -1.5032
   16MOL   H260 4190   5.279   4.393   4.555  1.2583  1.3452 -1.2115
   16MOL   H261 4191   5.316   4.562   4.610  0.8938 -1.9639  0.9959
   16MOL   H262 4192   5.150   4.523   4.577 -0.0045  0.7199 -1.4887
   17MOL     C1 4193   1.100   0.061   0.386 -0.0966  0.6151  0.2193
   17MOL     C2 4194   1.203   0.106   0.485  0.2583 -0.6071  0.2944
   17MOL     C3 4195   1.334   0.065   0.487  0.3199 -0.1546  0.0832
   17MOL     C4 4196   1.399   7.863   0.374  0.7083 -0.1524 -0.6515
   17MOL     C5 4197   1.420   0.097   0.602 -0.7931 -0.4712  0.0397
   17MOL     H6 4198   1.128   0.073   0.282  0.9694 -0.4396  0.3775
   17MOL     H7 4199   1.091   7.838   0.413  1.0249  0.3629 -0.3724
   17MOL     H8 4200   1.167   0.177   0.558 -1.3235 -0.7251 -0.3444
   17MOL     H9 4201   1.342   7.880   0.282  1.1226  0.6571 -0.7585
   17MOL    H10 4202   1.408   7.757   0.399 -0.8027 -0.2079 -0.2670
   17MOL    H11 4203   1.491   0.038   0.365  0.6174  0.1239  0.1798
   17MOL    H12 4204   1.374   0.182   0.652 -0.9719 -0.8169  0.4580
   17MOL    H13 4205   1.514   0.135   0.561  0.9438 -0.5614  3.7812
   17MOL    H14 4206   1.005   0.111   0.406 -1.4504 -0.5440 -3.0441
   17MOL    C15 4207   1.471   7.861   0.689 -0.3497 -0.4014 -0.2350
   17MOL    C16 4208   1.358   7.775   0.745 -0.4091  0.4910  0.1140
   17MOL    C17 4209   1.341   7.741   0.878  0.0837 -0.3736 -0.1981
   17MOL    C18 4210   1.444   7.768   0.989  0.4145 -0.4326 -0.6017
   17MOL    C19 4211   1.208   7.692   0.921  0.0424  0.3132  0.6424
   17MOL    H20 4212   1.545   0.021   0.757 -1.7707  1.3751  0.2359
   17MOL    H21 4213   1.532   7.804   0.619  0.6569 -0.3588  0.6000
   17MOL    H22 4214   1.275   7.751   0.680 -0.9757 -2.3980  1.7842
   17MOL    H23 4215   1.545   7.799   0.962  0.8139 -0.8735  0.3411
   17MOL    H24 4216   1.467   7.680   1.049 -0.9773 -0.9844 -0.8515
   17MOL    H25 4217   1.407   7.844   1.058 -0.1277 -0.4806 -0.8385
   17MOL    H26 4218   1.142   7.683   0.835  1.1054 -0.0960 -0.1320
   17MOL    H27 4219   1.163   7.775   0.976  0.9773  1.9649 -1.0361
   17MOL    C28 4220   1.207   7.560   0.991 -0.3910 -0.1708  0.1280
   17MOL    C29 4221   1.070   7.534   1.050  0.5767 -0.8734  0.2281
   17MOL    C30 4222   1.030   7.547   1.175 -0.6392  0.7101  0.4255
   17MOL    C31 4223   1.115   7.593   1.283  0.1644 -0.0484  0.0331
   17MOL    C32 4224   0.889   7.490   1.214 -0.3692  0.1161  0.4249
   17MOL    H33 4225   1.275   7.558   1.077 -0.6325 -1.1691  0.3084
   17MOL    H34 4226   1.235   7.483   0.919  1.1978 -0.4663  1.0441
   17MOL    H35 4227   0.993   7.495   0.986  1.6597 -1.0714 -0.9628
   17MOL    H36 4228   1.060   7.619   1.374  1.3705  0.9095  0.5040
   17MOL    H37 4229   1.153   7.690   1.251  0.8828 -0.7411 -1.2556
   17MOL    H38 4230   1.191   7.520   1.311  2.7045  2.2441 -0.6398
   17MOL    H39 4231   0.893   7.389   1.254 -0.6417 -0.7473 -1.6708
   17MOL    H40 4232   0.826   7.492   1.125 -0.6526 -0.4068  0.6137
   17MOL    C41 4233   0.823   7.578   1.321  0.4396  0.8880  0.3557
   17MOL    C42 4234   0.672   7.547   1.363 -0.3530  0.3571 -0.4701
   17MOL    C43 4235   0.555   7.605   1.329  0.4809  0.4366 -0.1906
   17MOL    C44 4236   0.537   7.729   1.247 -0.4414  0.2442  0.5200
   17MOL    C45 4237   0.419   7.545   1.368 -0.3187 -0.5621 -0.2241
   17MOL    H46 4238   0.843   7.684   1.304 -1.2424  1.5060  1.9994
   17MOL    H47 4239   0.885   7.553   1.406  0.7529 -0.4539 -0.2554
   17MOL    H48 4240   0.662   7.456   1.421  1.4040  1.0646  0.9775
   17MOL    H49 4241   0.470   7.799   1.296 -1.8010  0.5430 -1.7082
   17MOL    H50 4242   0.511   7.709   1.143  0.0788 -1.7911  0.7409
   17MOL    H51 4243   0.637   7.773   1.239  1.0949 -3.2460 -0.8343
   17MOL    H52 4244   0.356   7.632   1.389 -0.3070 -0.9836  1.5932
   17MOL    H53 4245   0.427   7.481   1.455  1.9234 -0.0078  0.0152
   17MOL    C54 4246   0.369   7.478   1.242 -0.1809  0.5859 -0.5222
   17MOL    C55 4247   0.447   7.350   1.214  0.0055  0.1641 -0.4880
   17MOL    C56 4248   0.423   7.226   1.273 -0.8381 -0.8291 -0.2790
   17MOL    C57 4249   0.314   7.205   1.382 -0.2322 -0.3630 -0.5831
   17MOL    C58 4250   0.501   7.104   1.223 -0.1778 -0.2658 -0.8689
   17MOL    H59 4251   0.362   7.538   1.151 -1.5713 -1.4203 -1.8036
   17MOL    H60 4252   0.264   7.448   1.255 -1.0678  3.3433 -1.0652
   17MOL    H61 4253   0.533   7.371   1.153  0.9838  1.5426  1.3049
   17MOL    H62 4254   0.363   7.154   1.465 -1.8022 -0.9340  0.0033
   17MOL    H63 4255   0.228   7.149   1.344 -0.9128  0.3468 -0.0928
   17MOL    H64 4256   0.275   7.297   1.425 -0.7460 -1.2217  0.8033
   17MOL    H65 4257   0.549   7.060   1.310 -1.5255  0.1144  0.0796
   17MOL    H66 4258   0.586   7.133   1.162  0.5324 -1.8195 -0.6353
   17MOL    C67 4259   0.419   6.999   1.135 -0.3073  0.0733 -0.0249
   17MOL    C68 4260   0.503   6.908   1.043 -0.5597  0.1844  0.1966
   17MOL    C69 4261   0.517   6.773   1.054 -0.2013  0.1308  0.5331
   17MOL    C70 4262   0.445   6.687   1.157  0.6350 -0.2489 -0.7801
   17MOL    C71 4263   0.591   6.697   0.946  0.2816 -0.6392 -0.3254
   17MOL    H72 4264   0.364   7.057   1.061  1.7890 -0.3903 -2.0114
   17MOL    H73 4265   0.347   6.945   1.197 -0.0733  1.5244  1.5357
   17MOL    H74 4266   0.545   6.957   0.956 -0.2518 -0.0964  0.1881
   17MOL    H75 4267   0.502   6.597   1.180  0.6761  0.8615  3.9401
   17MOL    H76 4268   0.347   6.654   1.123  2.1097 -1.2313 -4.2237
   17MOL    H77 4269   0.440   6.740   1.252  0.9978 -1.7866  0.1103
   17MOL    H78 4270   0.600   6.755   0.854 -1.2103  1.5429  0.8552
   17MOL    H79 4271   0.525   6.614   0.922  0.2786 -1.3317  1.9332
   17MOL    C80 4272   0.734   6.658   0.981 -0.6932  0.1366 -0.0941
   17MOL    C81 4273   0.780   6.551   0.890  0.2046 -0.3507 -0.4721
   17MOL    C82 4274   0.883   6.466   0.906  0.4957  0.2762  0.0839
   17MOL    C83 4275   0.955   6.458   1.037  0.4668 -0.9942  0.2793
   17MOL    C84 4276   0.916   6.357   0.803 -0.6627  0.9837 -0.1714
   17MOL    H85 4277   0.742   6.637   1.088 -0.0364 -0.9924 -0.3570
   17MOL    H86 4278   0.798   6.746   0.974  2.6147 -2.1458  0.1380
   17MOL    H87 4279   0.735   6.536   0.793 -1.6065 -0.5205  0.3726
   17MOL    H88 4280   0.942   6.360   1.083 -0.3049 -0.8574  0.3625
   17MOL    H89 4281   0.927   6.541   1.102 -2.5260 -1.2417 -0.6049
   17MOL    H90 4282   1.062   6.448   1.020  0.8146  0.9121  1.1458
   17MOL    H91 4283   0.840   6.349   0.725  0.3285 -1.3668 -0.9526
   17MOL    H92 4284   0.907   6.260   0.851  1.1189  0.6410 -0.4981
   17MOL    C93 4285   1.051   6.368   0.731 -0.5832 -0.0123 -0.2032
   17MOL    C94 4286   1.086   6.255   0.641  0.1745  0.1738  0.3948
   17MOL    C95 4287   1.156   6.143   0.673 -0.6485 -0.0140 -0.1502
   17MOL    C96 4288   1.217   6.126   0.812 -0.6034  0.1925 -0.1275
   17MOL    C97 4289   1.171   6.034   0.574 -0.3093 -0.1215 -0.2947
   17MOL    H98 4290   1.133   6.390   0.798 -0.4324  2.8149 -1.2304
   17MOL    H99 4291   1.047   6.459   0.670  0.5359 -0.3526 -0.7963
   17MOL   H100 4292   1.035   6.247   0.546  0.6959  2.0305 -0.0541
   17MOL   H101 4293   1.254   6.218   0.856  1.9029 -0.0485 -1.6341
   17MOL   H102 4294   1.306   6.068   0.788 -0.8002  0.0853 -0.6049
   17MOL   H103 4295   1.148   6.070   0.876 -0.6126  1.3450  0.8854
   17MOL   H104 4296   1.078   6.031   0.518  0.0606 -1.2203 -0.8636
   17MOL   H105 4297   1.195   5.940   0.624 -0.2062 -0.5500 -1.1339
   17MOL   C106 4298   1.291   6.056   0.487 -0.1413 -0.2500 -0.3071
   17MOL   C107 4299   1.297   5.937   0.396  0.0185 -0.1469  0.5480
   17MOL   C108 4300   1.236   5.933   0.273 -0.1219 -0.2032 -0.4414
   17MOL   C109 4301   1.135   6.038   0.228 -0.9625  0.6255  0.6874
   17MOL   C110 4302   1.244   5.812   0.180  0.4340 -0.9908  0.9277
   17MOL   H111 4303   1.386   6.060   0.540  0.3689  1.8418 -1.3680
   17MOL   H112 4304   1.276   6.147   0.430  0.4453  0.5873  0.8573
   17MOL   H113 4305   1.359   5.854   0.425  0.6647  0.2996  0.4398
   17MOL   H114 4306   1.129   6.128   0.289  0.8690  0.2733  1.4222
   17MOL   H115 4307   1.035   5.994   0.229 -0.8445  0.1017 -3.1327
   17MOL   H116 4308   1.153   6.065   0.123 -0.6844 -0.7158  0.3821
   17MOL   H117 4309   1.147   5.764   0.169 -0.8681  1.5316  1.0715
   17MOL   H118 4310   1.296   5.731   0.231  0.8219 -0.9981  0.5243
   17MOL   C119 4311   1.316   5.854   0.047  0.4991 -0.0568  0.6211
   17MOL   C120 4312   1.466   5.854   0.057 -0.0538  0.3688  0.0873
   17MOL   C121 4313   1.546   5.819   7.839 -0.5594  0.3841 -0.7206
   17MOL   C122 4314   1.500   5.793   7.691 -0.2257 -0.7829 -0.1760
   17MOL   C123 4315   1.701   5.822   7.851  0.0545 -0.5896  0.2166
   17MOL   H124 4316   1.291   5.941   7.868 -1.6517 -1.7365 -0.9325
   17MOL   H125 4317   1.309   5.769   7.862  1.7043  0.2900  0.0576
   17MOL   H126 4318   1.503   5.886   0.153 -1.7027  1.3216  0.4188
   17MOL   H127 4319   1.486   5.685   7.694  1.6318 -1.1417 -2.8020
   17MOL   H128 4320   1.577   5.810   7.616 -0.3179  1.8840  0.2941
   17MOL   H129 4321   1.402   5.836   7.669  0.4020  0.5491 -0.4537
   17MOL   H130 4322   1.737   5.846   0.068 -1.2382 -0.9242  0.7769
   17MOL   H131 4323   1.727   5.910   7.792 -0.9579  1.0653  2.1578
   17MOL   C132 4324   1.781   5.706   7.801 -0.1780  0.0629 -0.2088
   17MOL   C133 4325   1.932   5.722   7.824  0.0843  0.3483 -0.1596
   17MOL   C134 4326   2.030   5.727   7.729  0.4597  0.1529  0.0288
   17MOL   C135 4327   2.001   5.734   7.578 -0.7030 -0.0274  0.0707
   17MOL   C136 4328   2.174   5.763   7.771 -0.5660  0.1921 -0.1397
   17MOL   H137 4329   1.754   5.694   7.696 -1.4803 -2.6622  0.3947
   17MOL   H138 4330   1.758   5.616   7.858  1.1103  0.8279  1.5564
   17MOL   H139 4331   1.963   5.738   0.043  2.7798 -0.4500 -0.8046
   17MOL   H140 4332   2.085   5.739   7.509 -1.0474  0.5720 -0.3100
   17MOL   H141 4333   1.948   5.827   7.561  0.9530  0.8304 -0.5330
   17MOL   H142 4334   1.957   5.641   7.543 -1.0560  0.0016  0.4345
   17MOL   H143 4335   2.191   5.770   7.878  0.6096  1.0507 -0.3585
   17MOL   H144 4336   2.201   5.858   7.723 -1.3812  0.4939 -0.0154
   17MOL   C145 4337   2.272   5.654   7.725  0.2379  0.2062 -0.1629
   17MOL   C146 4338   2.408   5.690   7.788  0.2593 -0.0111 -0.2793
   17MOL   C147 4339   2.490   5.608   7.851 -0.0080  0.2249 -0.0938
   17MOL   C148 4340   2.471   5.457   7.845 -0.2766 -0.3047 -0.1667
   17MOL   C149 4341   2.624   5.662   0.029 -0.0093 -0.3672 -0.3921
   17MOL   H150 4342   2.282   5.647   7.617 -0.8607 -0.0278 -0.2522
   17MOL   H151 4343   2.234   5.558   7.760  1.2165 -0.0056  0.3318
   17MOL   H152 4344   2.429   5.796   7.782  0.3571  0.0578  0.9808
   17MOL   H153 4345   2.425   5.423   7.752  0.3888 -0.6325 -0.3815
   17MOL   H154 4346   2.409   5.434   0.049 -1.0387 -2.5102 -1.2609
   17MOL   H155 4347   2.568   5.408   7.855 -0.3523 -1.3002 -3.5837
   17MOL   H156 4348   2.654   5.756   7.864  2.1182 -0.4171  0.7753
   17MOL   H157 4349   2.697   5.584   0.009 -0.4665 -0.4230 -1.9012
   17MOL   C158 4350   2.624   5.670   0.183 -0.3114 -0.2796 -0.0663
   17MOL   C159 4351   2.561   5.800   0.237 -0.2819 -0.2036 -0.2272
   17MOL   C160 4352   2.434   5.823   0.282  0.2230  0.7810 -0.3367
   17MOL   C161 4353   2.329   5.709   0.296  0.2107 -0.0370 -0.2431
   17MOL   C162 4354   2.392   5.961   0.322 -0.6314  0.1976 -0.6284
   17MOL   H163 4355   2.724   5.655   0.223 -0.1676 -0.8743 -0.6268
   17MOL   H164 4356   2.576   5.582   0.226 -0.3923 -0.8073 -1.2125
   17MOL   H165 4357   2.635   5.878   0.232 -0.9872  0.3900 -1.7118
   17MOL   H166 4358   2.370   5.613   0.264 -0.8720 -1.7031  3.1598
   17MOL   H167 4359   2.247   5.737   0.231  0.9383  1.2749 -0.6229
   17MOL   H168 4360   2.301   5.705   0.401  1.3832  0.8615  0.1239
   17MOL   H169 4361   2.485   6.016   0.312  1.1593 -2.5139  0.6388
   17MOL   H170 4362   2.363   5.964   0.427 -1.5482 -2.7615 -0.7550
   17MOL   C171 4363   2.282   6.032   0.232  0.0048  0.2334 -0.2723
   17MOL   C172 4364   2.337   6.050   0.098  0.1606 -0.0400  0.3866
   17MOL   C173 4365   2.312   6.140   0.003  0.1028 -0.4172 -0.1290
   17MOL   C174 4366   2.215   6.257   0.014  0.1373 -0.3019 -0.4498
   17MOL   C175 4367   2.393   6.145   7.755 -0.0233  0.2720 -1.0607
   17MOL   H176 4368   2.257   6.131   0.271 -0.6723 -0.1187  0.1825
   17MOL   H177 4369   2.200   5.960   0.230  0.9047 -0.8467  0.8746
   17MOL   H178 4370   2.399   5.967   0.068 -0.0317 -0.9175  2.3796
   17MOL   H179 4371   2.176   6.287   7.799 -0.3781  3.3504  0.8267
   17MOL   H180 4372   2.258   6.349   0.054 -2.8516  0.0405  2.1065
   17MOL   H181 4373   2.142   6.235   0.091  1.3545  2.0612  1.4497
   17MOL   H182 4374   2.324   6.138   7.670  1.3830  1.6458 -2.3575
   17MOL   H183 4375   2.456   6.058   7.740 -2.8771 -2.2748  1.1115
   17MOL   C184 4376   2.480   6.270   7.737  0.1938 -0.2678  0.0532
   17MOL   C185 4377   2.579   6.278   7.856  0.0611 -0.3199  0.6264
   17MOL   C186 4378   2.702   6.215   7.855  0.9118 -0.4470 -0.5675
   17MOL   C187 4379   2.746   6.128   7.743  0.6142  0.3953 -0.5324
   17MOL   C188 4380   2.805   6.224   0.086  0.6557 -0.6181 -0.0684
   17MOL   H189 4381   2.425   6.364   7.748  0.3637 -0.2013  0.3461
   17MOL   H190 4382   2.515   6.280   7.634  1.0962  0.5793  0.4390
   17MOL   H191 4383   2.556   6.346   0.054  1.4670  0.9348 -0.0134
   17MOL   H192 4384   2.722   6.155   7.640 -0.3584  1.4455 -0.0448
   17MOL   H193 4385   2.702   6.029   7.753  0.5890  0.3129 -1.3771
   17MOL   H194 4386   2.855   6.119   7.744  0.6274  0.6089 -0.1437
   17MOL   H195 4387   2.834   6.120   0.104  2.2974 -0.2119 -0.2777
   17MOL   H196 4388   2.741   6.258   0.167  2.1860  1.5388  0.2677
   17MOL   C197 4389   2.926   6.314   0.054 -0.0898  0.3243 -0.4269
   17MOL   C198 4390   3.041   6.284   0.155  0.6678  0.3662  0.8991
   17MOL   C199 4391   3.161   6.346   0.181 -0.4065  0.1472 -0.1297
   17MOL   C200 4392   3.205   6.466   0.087  0.0921 -0.2464 -0.4712
   17MOL   C201 4393   3.265   6.303   0.284  0.1609  0.3007  0.8889
   17MOL   H202 4394   2.900   6.414   0.090 -0.6171  0.0508 -0.0387
   17MOL   H203 4395   2.963   6.309   7.834  0.5960 -0.2866 -0.1512
   17MOL   H204 4396   3.027   6.186   0.198  0.8495 -0.9311 -1.8806
   17MOL   H205 4397   3.312   6.452   0.073  0.1876 -0.7484  0.7076
   17MOL   H206 4398   3.176   6.563   0.128  0.3020 -0.9383  1.3638
   17MOL   H207 4399   3.162   6.458   7.870 -0.1231 -0.4135 -0.3646
   17MOL   H208 4400   3.216   6.255   0.368 -0.1330 -2.0321 -0.5551
   17MOL   H209 4401   3.312   6.393   0.323  2.4607 -0.6252  0.3506
   17MOL   C210 4402   3.376   6.212   0.222 -0.7015  1.0782  0.0975
   17MOL   C211 4403   3.342   6.065   0.231 -0.0616  0.2046  0.0264
   17MOL   C212 4404   3.385   5.979   0.333  0.2830 -0.2026 -0.1425
   17MOL   C213 4405   3.458   6.021   0.457  0.0281 -0.3984  0.0663
   17MOL   C214 4406   3.366   5.827   0.332 -0.1113 -0.1554 -0.5911
   17MOL   H215 4407   3.478   6.228   0.258 -0.2213  2.0311 -1.6626
   17MOL   H216 4408   3.394   6.226   0.116  1.4986  1.5001  0.4998
   17MOL   H217 4409   3.274   6.029   0.155 -0.5875  5.0762 -1.9580
   17MOL   H218 4410   3.402   5.986   0.544 -0.8007  2.1752  0.6164
   17MOL   H219 4411   3.473   6.129   0.466 -2.7408 -0.1586  2.8607
   17MOL   H220 4412   3.550   5.964   0.470  0.8790  0.0013 -3.6503
   17MOL   H221 4413   3.291   5.805   0.256 -0.4831  0.2278 -0.3390
   17MOL   H222 4414   3.341   5.799   0.434  1.1304  1.9145  0.3246
   17MOL   C223 4415   3.491   5.742   0.304 -0.4394 -0.4439 -0.1392
   17MOL   C224 4416   3.458   5.596   0.289 -0.4151 -0.6168  0.1189
   17MOL   C225 4417   3.463   5.504   0.393 -0.6456 -0.7309  1.8467
   17MOL   C226 4418   3.486   5.547   0.534  0.0611 -1.2606 -0.0687
   17MOL   C227 4419   3.433   5.356   0.368 -0.3117 -0.0911 -0.3779
   17MOL   H228 4420   3.565   5.756   0.382 -0.2921  0.7070 -0.4803
   17MOL   H229 4421   3.548   5.768   0.214 -0.6849  0.0644 -0.1512
   17MOL   H230 4422   3.434   5.573   0.186 -0.4791  1.2506 -0.3004
   17MOL   H231 4423   3.486   5.655   0.543  1.0976 -1.2565 -0.0944
   17MOL   H232 4424   3.578   5.512   0.581 -0.2396 -1.3553  0.4534
   17MOL   H233 4425   3.407   5.512   0.602  1.6552 -1.0265  1.9409
   17MOL   H234 4426   3.415   5.344   0.261 -1.4222 -1.4814 -0.0587
   17MOL   H235 4427   3.339   5.321   0.411 -0.1999 -0.6218 -0.5655
   17MOL   C236 4428   3.545   5.264   0.414 -0.0919  0.0380 -0.3432
   17MOL   C237 4429   3.514   5.115   0.392 -0.2847 -0.3430  0.4895
   17MOL   C238 4430   3.592   5.022   0.448 -0.0179  0.7997  0.0720
   17MOL   C239 4431   3.706   5.047   0.541 -0.3896 -0.8880 -0.7043
   17MOL   C240 4432   3.564   4.874   0.424 -0.0693  0.1450 -0.0305
   17MOL   H241 4433   3.562   5.276   0.521  0.9077  2.5869 -0.7429
   17MOL   H242 4434   3.642   5.287   0.370  1.2632 -0.8656  2.1134
   17MOL   H243 4435   3.419   5.086   0.350  0.2263 -0.9043 -0.2824
   17MOL   H244 4436   3.745   5.149   0.541 -1.6642 -0.3824  0.0309
   17MOL   H245 4437   3.783   4.972   0.525  1.2355  0.3340  1.2720
   17MOL   H246 4438   3.657   5.032   0.637 -1.7564 -0.9917 -1.4081
   17MOL   H247 4439   3.656   4.817   0.419 -0.4592 -0.3674 -1.7541
   17MOL   H248 4440   3.527   4.867   0.322  1.5052  0.9438 -0.6803
   17MOL   C249 4441   3.474   4.816   0.537  0.7612  0.0246 -0.1201
   17MOL   C250 4442   3.482   4.667   0.521 -0.8245 -0.0713 -0.9058
   17MOL   C251 4443   3.534   4.572   0.600 -0.0534  0.4253  0.5760
   17MOL   C252 4444   3.587   4.606   0.735 -0.3944  0.0764 -0.0414
   17MOL   C253 4445   3.553   4.419   0.569  0.3086  0.2984  0.1492
   17MOL   H254 4446   3.373   4.849   0.513  1.7985  1.4782 -2.6885
   17MOL   H255 4447   3.499   4.856   0.636  0.6745 -0.7686  0.2260
   17MOL   H256 4448   3.433   4.633   0.431 -0.7022 -4.3937  0.5388
   17MOL   H257 4449   3.554   4.540   0.816  0.8781  1.7194  1.8622
   17MOL   H258 4450   3.557   4.705   0.768 -0.4352  0.0239  0.0800
   17MOL   H259 4451   3.695   4.598   0.720 -0.8625 -1.3255 -3.0956
   17MOL   H260 4452   3.512   4.382   0.476  0.2511 -0.9034  0.6458
   17MOL   H261 4453   3.499   4.370   0.650 -1.8704  3.2269  0.5456
   17MOL   H262 4454   3.659   4.392   0.573 -0.1580 -1.3517  1.8285
   18MOL     C1 4455   2.091   7.749   4.772  0.4603 -0.0404  0.1148
   18MOL     C2 4456   2.065   7.687   4.904 -0.2332  0.4036  1.0591
   18MOL     C3 4457   1.952   7.707   4.973  0.7853 -0.0284 -0.2304
   18MOL     C4 4458   1.839   7.801   4.947  0.1311  0.4081  0.1412
   18MOL     C5 4459   1.935   7.635   5.110  0.2841 -0.0010  0.1729
   18MOL     H6 4460   2.085   7.688   4.682 -2.9085  0.5636 -0.1182
   18MOL     H7 4461   2.033   7.838   4.751 -1.5438 -0.9028  1.7226
   18MOL     H8 4462   2.138   7.618   4.944  0.1535  0.8055  1.0523
   18MOL     H9 4463   1.750   7.738   4.944  1.2501 -1.1484 -1.4676
   18MOL    H10 4464   1.844   7.858   4.855  1.2655  0.9584  0.5372
   18MOL    H11 4465   1.833   7.869   5.032 -2.2236  0.0692  0.2879
   18MOL    H12 4466   1.899   7.704   5.186 -0.1788 -0.1213  0.0665
   18MOL    H13 4467   2.034   7.607   5.147  1.3129  2.5909 -0.4906
   18MOL    H14 4468   2.194   7.784   4.767  1.5067 -2.7388  1.4299
   18MOL    C15 4469   1.845   7.511   5.117  0.0261  0.5067 -0.4493
   18MOL    C16 4470   1.819   7.477   5.259 -0.3479  0.0482 -0.4620
   18MOL    C17 4471   1.696   7.466   5.320  0.2988 -0.0903  0.4868
   18MOL    C18 4472   1.564   7.457   5.237  0.4530  0.3377  0.2091
   18MOL    C19 4473   1.689   7.434   5.475  0.1793 -0.0615 -0.1621
   18MOL    H20 4474   1.900   7.430   5.068 -1.7640 -0.1837 -1.3614
   18MOL    H21 4475   1.755   7.520   5.057  1.4452  1.5150 -2.4983
   18MOL    H22 4476   1.907   7.467   5.321 -0.5278 -3.0514 -0.6446
   18MOL    H23 4477   1.524   7.360   5.266  2.2466 -0.8677 -1.2524
   18MOL    H24 4478   1.574   7.465   5.129 -0.5502  1.6585  0.2028
   18MOL    H25 4479   1.496   7.537   5.265  1.5860  0.7867  1.7573
   18MOL    H26 4480   1.790   7.423   5.516 -0.6757  2.8610  2.9265
   18MOL    H27 4481   1.640   7.337   5.486  0.3663 -0.3653 -1.8203
   18MOL    C28 4482   1.618   7.553   5.548 -0.7507 -0.7105 -0.0419
   18MOL    C29 4483   1.607   7.531   5.698 -0.3903  0.1367 -0.2212
   18MOL    C30 4484   1.547   7.612   5.792 -0.0866 -0.1932  0.6494
   18MOL    C31 4485   1.469   7.736   5.748  0.4731 -0.3281  0.6993
   18MOL    C32 4486   1.551   7.580   5.937  0.0595 -0.7835  1.0663
   18MOL    H33 4487   1.518   7.568   5.505 -0.2077  0.6808 -0.8461
   18MOL    H34 4488   1.685   7.637   5.532 -1.1436  0.0416  2.1913
   18MOL    H35 4489   1.664   7.445   5.729  0.6301  0.0761 -2.1537
   18MOL    H36 4490   1.365   7.736   5.780  0.5572 -0.3589  0.9732
   18MOL    H37 4491   1.475   7.747   5.640  1.1282 -1.8818  0.5731
   18MOL    H38 4492   1.518   7.821   5.797  3.7453 -1.1805 -0.9590
   18MOL    H39 4493   1.616   7.654   5.984  1.5714 -1.0292 -0.6055
   18MOL    H40 4494   1.613   7.493   5.959 -0.8270 -1.4339  1.0216
   18MOL    C41 4495   1.407   7.568   5.998 -0.2263 -0.7078  0.6715
   18MOL    C42 4496   1.424   7.550   6.148  0.5410 -0.0705  0.1389
   18MOL    C43 4497   1.370   7.454   6.224  0.9309  0.6723 -0.9051
   18MOL    C44 4498   1.277   7.337   6.179 -0.3990 -0.4697 -0.0576
   18MOL    C45 4499   1.408   7.437   6.375 -0.0032 -0.5702 -0.6345
   18MOL    H46 4500   1.362   7.483   5.948  0.8076 -0.3053 -1.0051
   18MOL    H47 4501   1.354   7.661   5.979 -0.6967 -1.6341 -2.8864
   18MOL    H48 4502   1.490   7.623   6.192  0.0712  0.5048 -0.1009
   18MOL    H49 4503   1.236   7.357   6.080 -1.2156 -0.6752  0.2380
   18MOL    H50 4504   1.197   7.342   6.253 -1.1319 -0.6738 -0.8225
   18MOL    H51 4505   1.321   7.238   6.183 -2.0843 -1.2545 -0.3937
   18MOL    H52 4506   1.459   7.342   6.391  0.2753 -0.2425  0.5216
   18MOL    H53 4507   1.314   7.430   6.431 -0.4020 -2.2511 -1.4985
   18MOL    C54 4508   1.501   7.546   6.433 -0.6123  0.2553 -0.2682
   18MOL    C55 4509   1.561   7.498   6.565 -0.6863 -0.1655 -0.1808
   18MOL    C56 4510   1.619   7.580   6.655 -0.1211  0.3883 -0.0877
   18MOL    C57 4511   1.631   7.734   6.629  0.9781 -0.2967  0.4429
   18MOL    C58 4512   1.672   7.529   6.785 -0.0399  0.1316  1.1492
   18MOL    H59 4513   1.455   7.642   6.458 -0.7714  0.2704 -0.6203
   18MOL    H60 4514   1.587   7.562   6.368 -0.5073 -0.3056 -0.2749
   18MOL    H61 4515   1.558   7.391   6.579  0.4799 -0.0697  0.9436
   18MOL    H62 4516   1.552   7.790   6.678  0.8922  1.2787 -1.4502
   18MOL    H63 4517   1.639   7.765   6.525 -0.2619  2.6038  1.1455
   18MOL    H64 4518   1.721   7.773   6.677  0.8571  4.0204 -2.5743
   18MOL    H65 4519   1.768   7.579   6.800  0.5730 -0.4742 -0.5810
   18MOL    H66 4520   1.701   7.424   6.777  1.2879  0.4976  1.1029
   18MOL    C67 4521   1.570   7.546   6.897  0.1130 -0.1577  0.0322
   18MOL    C68 4522   1.625   7.506   7.035  0.0643 -0.1067 -0.5797
   18MOL    C69 4523   1.671   7.584   7.134  0.2957 -0.7545  0.0912
   18MOL    C70 4524   1.665   7.736   7.123 -0.6641  0.3421 -0.9917
   18MOL    C71 4525   1.721   7.539   7.272  0.8514  0.4716 -0.4934
   18MOL    H72 4526   1.483   7.482   6.882  0.7163 -1.1601  0.7089
   18MOL    H73 4527   1.533   7.648   6.897 -0.5363 -0.3970 -0.0604
   18MOL    H74 4528   1.640   7.399   7.037 -0.8083 -0.2319 -0.5219
   18MOL    H75 4529   1.670   7.757   7.016  0.8653  0.1377 -0.9839
   18MOL    H76 4530   1.757   7.783   7.158 -2.3445  1.6117  1.9493
   18MOL    H77 4531   1.581   7.786   7.170  0.3010  2.7023 -1.7366
   18MOL    H78 4532   1.822   7.578   7.282  0.2734  1.6055  1.0997
   18MOL    H79 4533   1.715   7.430   7.268  0.2497  0.4806  0.0236
   18MOL    C80 4534   1.648   7.592   7.396 -0.1876  0.5133  0.0656
   18MOL    C81 4535   1.705   7.536   7.524 -0.2454 -0.6581 -0.4807
   18MOL    C82 4536   1.800   7.597   7.594 -0.0183 -0.0427 -0.3999
   18MOL    C83 4537   1.852   7.739   7.573 -0.6205  0.3943 -0.7491
   18MOL    C84 4538   1.851   7.535   7.723 -0.5094 -0.9378 -0.1043
   18MOL    H85 4539   1.541   7.571   7.388  0.0561 -0.4332 -0.7982
   18MOL    H86 4540   1.652   7.701   7.403  1.2221  0.4245  0.6443
   18MOL    H87 4541   1.661   7.443   7.558 -0.2082  0.1524  1.8644
   18MOL    H88 4542   1.910   7.767   7.661 -1.4563 -0.1373 -0.0208
   18MOL    H89 4543   1.772   7.813   7.569 -1.5079 -0.4806  0.5548
   18MOL    H90 4544   1.920   7.759   7.490 -1.4561  0.8723 -1.3255
   18MOL    H91 4545   1.804   7.438   7.737 -1.6336 -0.5970 -1.3214
   18MOL    H92 4546   1.821   7.602   7.803  0.4825 -1.8935  1.0753
   18MOL    C93 4547   1.999   7.528   7.733  0.0494  0.1489  0.1729
   18MOL    C94 4548   2.042   7.392   7.786  0.2555  0.1106  0.6781
   18MOL    C95 4549   2.141   7.312   7.747 -0.6873  0.4307  0.3092
   18MOL    C96 4550   2.237   7.355   7.641 -1.0675 -0.4536 -0.3453
   18MOL    C97 4551   2.151   7.174   7.806 -0.5992 -0.0190  0.0046
   18MOL    H98 4552   2.040   7.597   7.807  0.6958 -0.2697  0.2108
   18MOL    H99 4553   2.051   7.557   7.641 -1.1204  2.9199  0.3256
   18MOL   H100 4554   1.980   7.352   7.865 -0.1358 -0.1999  0.2140
   18MOL   H101 4555   2.336   7.342   7.686 -2.3263 -2.7751  1.9039
   18MOL   H102 4556   2.229   7.450   7.589 -1.0992 -0.2630  0.0075
   18MOL   H103 4557   2.238   7.282   7.560 -4.8534 -2.5029  1.3161
   18MOL   H104 4558   2.080   7.162   0.005  1.1449  1.1489  1.7460
   18MOL   H105 4559   2.248   7.173   7.856 -1.1301 -0.0543  1.0345
   18MOL   C106 4560   2.155   7.059   7.699  0.1190  0.4887 -0.4648
   18MOL   C107 4561   2.025   7.063   7.616  0.4209  0.5909 -0.0321
   18MOL   C108 4562   1.921   6.973   7.616 -0.3332  0.1469 -0.4597
   18MOL   C109 4563   1.925   6.851   7.707 -0.5788 -0.0926 -0.0272
   18MOL   C110 4564   1.813   6.969   7.510 -0.1802  0.5572  0.2019
   18MOL   H111 4565   2.168   6.966   7.755 -0.2853  0.6872 -0.0287
   18MOL   H112 4566   2.240   7.068   7.632 -1.1664 -1.2242 -2.4102
   18MOL   H113 4567   2.012   7.148   7.551  0.6579  1.1994  0.7034
   18MOL   H114 4568   1.831   6.834   7.760 -0.7224 -0.4612 -0.3949
   18MOL   H115 4569   2.004   6.852   7.782  1.2342  0.8159 -1.9217
   18MOL   H116 4570   1.956   6.760   7.655 -0.0675  0.0216  0.0773
   18MOL   H117 4571   1.829   6.872   7.464  1.9130  0.1734  1.6321
   18MOL   H118 4572   1.829   7.053   7.442  0.5752  1.1476  1.0949
   18MOL   C119 4573   1.673   6.980   7.554  0.6510  0.3436  0.1642
   18MOL   C120 4574   1.571   6.997   7.440  0.0902 -0.1819 -0.1829
   18MOL   C121 4575   1.481   7.094   7.431 -0.0695 -0.0735  0.4613
   18MOL   C122 4576   1.453   7.203   7.531  0.1914  0.1353 -0.1542
   18MOL   C123 4577   1.387   7.091   7.311 -0.4312 -0.7929  0.1314
   18MOL   H124 4578   1.670   7.067   7.620  0.0613  1.1997 -0.9685
   18MOL   H125 4579   1.637   6.893   7.607  1.7496  1.5717  3.0381
   18MOL   H126 4580   1.568   6.915   7.369  0.5303 -2.4480  2.3569
   18MOL   H127 4581   1.445   7.300   7.483 -0.2945 -0.4298 -1.2380
   18MOL   H128 4582   1.522   7.217   7.614  0.7575 -1.8402 -0.2603
   18MOL   H129 4583   1.352   7.186   7.567  0.1574  0.1643 -0.2370
   18MOL   H130 4584   1.284   7.070   7.340 -1.1667 -0.4979 -2.1408
   18MOL   H131 4585   1.422   7.007   7.252 -2.5715 -1.0916 -0.7718
   18MOL   C132 4586   1.399   7.217   7.227 -0.1017  0.3549 -0.2565
   18MOL   C133 4587   1.313   7.202   7.105  0.3063 -0.4883  0.2200
   18MOL   C134 4588   1.260   7.305   7.041 -0.2878  1.0536 -0.6668
   18MOL   C135 4589   1.264   7.452   7.080  0.4157  0.7682  0.1942
   18MOL   C136 4590   1.162   7.280   6.926 -0.0610 -0.1784  0.5531
   18MOL   H137 4591   1.505   7.234   7.209 -0.3400 -1.3780 -3.6114
   18MOL   H138 4592   1.364   7.308   7.275 -2.5695 -1.4162  1.4742
   18MOL   H139 4593   1.288   7.101   7.076 -1.2538  0.0357 -0.3048
   18MOL   H140 4594   1.328   7.483   7.163  3.2461 -1.9782 -0.8360
   18MOL   H141 4595   1.167   7.486   7.113 -0.1111 -0.5874  0.0609
   18MOL   H142 4596   1.297   7.517   6.999  2.2487 -1.6947 -1.1217
   18MOL   H143 4597   1.199   7.355   6.856 -0.3786 -0.7427 -0.2335
   18MOL   H144 4598   1.063   7.313   6.958 -1.4080 -2.9524 -0.5444
   18MOL   C145 4599   1.153   7.134   6.862  0.5222  0.6216  1.2767
   18MOL   C146 4600   1.048   7.121   6.754 -0.5130 -0.5786  0.2533
   18MOL   C147 4601   1.073   7.145   6.628  0.6756  0.3648  0.7050
   18MOL   C148 4602   1.201   7.192   6.567 -0.2358  0.8904 -0.6019
   18MOL   C149 4603   0.956   7.157   6.530 -0.2970  0.7402  0.1101
   18MOL   H150 4604   1.111   7.069   6.939 -0.5443 -0.0825  0.1107
   18MOL   H151 4605   1.251   7.095   6.834 -0.1663  0.7606 -1.4472
   18MOL   H152 4606   0.947   7.107   6.790 -1.9983  2.3844 -2.4350
   18MOL   H153 4607   1.203   7.300   6.581 -0.5122  0.7997  0.1502
   18MOL   H154 4608   1.213   7.175   6.460 -0.2345  0.3047 -0.5135
   18MOL   H155 4609   1.293   7.154   6.610 -1.5658  0.3753  1.9191
   18MOL   H156 4610   0.870   7.106   6.573 -2.0597  3.0347 -0.6445
   18MOL   H157 4611   0.976   7.093   6.443  1.0695 -0.0880  1.0150
   18MOL   C158 4612   0.923   7.304   6.503  0.4463 -0.4248  0.0047
   18MOL   C159 4613   0.803   7.322   6.415  0.1273 -0.8845  0.5130
   18MOL   C160 4614   0.797   7.383   6.295  0.0065  0.1437 -0.6411
   18MOL   C161 4615   0.916   7.449   6.231 -0.7168 -0.3294  0.9220
   18MOL   C162 4616   0.672   7.382   6.209  0.6524 -0.3575  0.5229
   18MOL   H163 4617   1.012   7.364   6.487 -1.0570  1.9132  0.1821
   18MOL   H164 4618   0.898   7.347   6.600  2.5730 -2.0210  1.3013
   18MOL   H165 4619   0.713   7.278   6.457 -1.5074 -0.3969 -2.3723
   18MOL   H166 4620   0.899   7.555   6.213  0.4577 -0.4935 -1.3853
   18MOL   H167 4621   0.930   7.405   6.132  1.7761  0.3276  0.9480
   18MOL   H168 4622   1.011   7.450   6.284  1.1526  0.1610 -2.3111
   18MOL   H169 4623   0.595   7.334   6.269 -0.6729 -0.8774 -1.5580
   18MOL   H170 4624   0.691   7.326   6.118 -0.8862  0.6757 -0.4578
   18MOL   C171 4625   0.628   7.519   6.165 -0.0624  0.1912  0.9658
   18MOL   C172 4626   0.515   7.502   6.067 -0.2055 -0.2486 -0.3217
   18MOL   C173 4627   0.469   7.586   5.969 -0.1611  0.4656 -1.1438
   18MOL   C174 4628   0.534   7.716   5.937  0.0025 -0.3437 -0.8230
   18MOL   C175 4629   0.358   7.539   5.879 -0.0841  0.2720  0.0798
   18MOL   H176 4630   0.700   7.575   6.104  0.9189 -0.6021  1.3807
   18MOL   H177 4631   0.589   7.584   6.244 -0.1035  0.1974  0.9398
   18MOL   H178 4632   0.466   7.407   6.083  0.7650 -0.6832  0.1670
   18MOL   H179 4633   0.594   7.708   5.847  1.8642 -0.9984  0.4650
   18MOL   H180 4634   0.600   7.758   6.013 -1.1682 -0.0384  0.0506
   18MOL   H181 4635   0.455   7.790   5.926  0.5302  0.5757  1.2488
   18MOL   H182 4636   0.342   7.432   5.890 -2.3287  0.6398  0.8768
   18MOL   H183 4637   0.367   7.558   5.772  1.1024  2.1714  0.4940
   18MOL   C184 4638   0.221   7.576   5.927 -0.3849  0.6416  0.3960
   18MOL   C185 4639   0.112   7.525   5.835  0.5841  0.0314 -0.7568
   18MOL   C186 4640   7.869   7.575   5.823 -0.5258 -0.4132  0.8638
   18MOL   C187 4641   7.816   7.691   5.908  0.1977  0.5738 -0.3476
   18MOL   C188 4642   7.770   7.527   5.713  0.1196 -0.2192 -0.5192
   18MOL   H189 4643   0.215   7.683   5.912  2.0099  0.5218 -1.7557
   18MOL   H190 4644   0.202   7.551   6.031  0.3305 -2.6359 -0.1926
   18MOL   H191 4645   0.139   7.439   5.776  1.2797 -1.7382  2.0619
   18MOL   H192 4646   0.013   7.749   5.955 -0.5138 -1.6779  3.8833
   18MOL   H193 4647   7.755   7.645   5.985 -1.0499  1.0213 -1.0538
   18MOL   H194 4648   7.756   7.756   5.843 -2.6338  0.8511  2.3890
   18MOL   H195 4649   7.833   7.470   5.646  1.6129 -0.3313  0.9734
   18MOL   H196 4650   7.723   7.611   5.661 -0.3957 -0.1196  0.0968
   18MOL   C197 4651   7.675   7.421   5.771  0.5764  0.2326  0.3670
   18MOL   C198 4652   7.595   7.355   5.657  1.0026  0.6532 -0.1156
   18MOL   C199 4653   7.636   7.246   5.589 -0.5838 -0.8585  0.3254
   18MOL   C200 4654   7.758   7.164   5.627 -0.2731  0.1817  0.0130
   18MOL   C201 4655   7.547   7.182   5.484 -0.1963  0.1727 -0.0984
   18MOL   H202 4656   7.614   7.457   5.854 -3.1671 -1.3159 -1.5676
   18MOL   H203 4657   7.736   7.342   5.813 -1.4758 -0.3839  2.2627
   18MOL   H204 4658   7.503   7.404   5.630  0.6279  0.1841  0.3158
   18MOL   H205 4659   7.725   7.082   5.691 -1.7057 -1.2699 -2.4702
   18MOL   H206 4660   7.825   7.229   5.683  2.3186  0.0892 -2.8773
   18MOL   H207 4661   7.798   7.117   5.537  0.8457  0.9563  0.1053
   18MOL   H208 4662   7.614   7.156   5.402  2.1883 -1.5427  2.2956
   18MOL   H209 4663   7.470   7.246   5.442 -1.2904  0.6433  2.5162
   18MOL   C210 4664   7.472   7.055   5.535 -0.2317 -0.5825  0.4119
   18MOL   C211 4665   7.379   6.990   5.432 -0.7887  0.2973  0.4462
   18MOL   C212 4666   7.404   6.878   5.367  0.7898 -0.4223  0.0249
   18MOL   C213 4667   7.535   6.807   5.392  0.6057 -0.4054  0.4980
   18MOL   C214 4668   7.306   6.831   5.260  0.3323  0.3583 -0.4273
   18MOL   H215 4669   7.401   7.090   5.610  0.3606 -0.3474  0.8690
   18MOL   H216 4670   7.533   6.978   5.583  1.5208  1.2631  1.2560
   18MOL   H217 4671   7.289   7.047   5.413 -0.4269  1.0558  0.9913
   18MOL   H218 4672   7.551   6.730   5.316 -1.3419 -0.4682  0.1242
   18MOL   H219 4673   7.531   6.760   5.490 -3.3043 -1.3334  0.0077
   18MOL   H220 4674   7.629   6.861   5.387  0.4808 -0.1831  0.5486
   18MOL   H221 4675   7.206   6.875   5.264 -0.0035 -0.5250  1.1680
   18MOL   H222 4676   7.298   6.725   5.284 -1.4212  0.1372 -1.8491
   18MOL   C223 4677   7.366   6.849   5.120 -0.0271 -0.1370  0.6580
   18MOL   C224 4678   7.405   6.994   5.088 -0.7016  0.1155 -0.5352
   18MOL   C225 4679   7.527   7.050   5.064 -0.6374 -0.0176  0.8161
   18MOL   C226 4680   7.655   6.978   5.048 -0.1474  0.2244  0.3525
   18MOL   C227 4681   7.536   7.198   5.043  0.0384 -0.2308  0.6650
   18MOL   H228 4682   7.298   6.824   5.039 -1.6389 -0.9348  2.2247
   18MOL   H229 4683   7.456   6.792   5.094  0.0605  0.4073 -0.2427
   18MOL   H230 4684   7.323   7.061   5.065  0.0656  0.6931 -1.6340
   18MOL   H231 4685   7.741   7.044   5.038 -0.1314  0.1226 -0.1752
   18MOL   H232 4686   7.646   6.906   4.967 -2.0172  1.7438 -0.8277
   18MOL   H233 4687   7.682   6.920   5.137  0.7311 -2.1470 -1.4089
   18MOL   H234 4688   7.617   7.239   5.104  1.2234  1.4501 -1.9235
   18MOL   H235 4689   7.459   7.266   5.080  0.1665 -0.8154  2.0191
   18MOL   C236 4690   7.556   7.242   4.895  0.2595  0.2133 -0.2844
   18MOL   C237 4691   7.615   7.382   4.883 -0.3236  0.2423 -1.4173
   18MOL   C238 4692   7.743   7.413   4.857 -0.8481  0.8532  0.0904
   18MOL   C239 4693   7.841   7.297   4.815 -0.0559 -0.9633  0.2101
   18MOL   C240 4694   7.788   7.554   4.855  0.0533 -0.1427  0.0645
   18MOL   H241 4695   7.461   7.237   4.842  1.1409 -0.2787 -1.8475
   18MOL   H242 4696   7.616   7.166   4.845  1.4116  0.8093  0.1571
   18MOL   H243 4697   7.556   7.468   4.912  3.5953  2.2729  1.0396
   18MOL   H244 4698   7.816   7.203   4.865 -2.1008 -1.3864 -1.5335
   18MOL   H245 4699   0.056   7.333   4.846 -0.4541  0.8616 -0.5688
   18MOL   H246 4700   7.841   7.285   4.707 -1.6372  0.3359  0.0530
   18MOL   H247 4701   7.862   7.562   4.934 -0.0504  1.0809  0.0467
   18MOL   H248 4702   7.707   7.619   4.889  0.8669  0.9100  0.0154
   18MOL   C249 4703   7.859   7.596   4.724  0.1058  0.4831 -0.1289
   18MOL   C250 4704   7.775   7.560   4.602 -0.2444  0.2525 -0.4131
   18MOL   C251 4705   7.794   7.605   4.480 -0.3873 -0.2704  0.7643
   18MOL   C252 4706   0.026   7.693   4.442 -0.0119 -0.8409 -0.0815
   18MOL   C253 4707   7.706   7.581   4.363  0.7311 -0.2280  0.4097
   18MOL   H254 4708   0.078   7.558   4.716 -0.0542 -0.3606  1.6774
   18MOL   H255 4709   7.874   7.704   4.714 -0.4026  0.3407 -2.9136
   18MOL   H256 4710   7.689   7.500   4.629 -0.1408 -0.3130 -1.3136
   18MOL   H257 4711   0.107   7.677   4.514  0.7443 -0.0193 -0.7381
   18MOL   H258 4712   7.880   7.798   4.454  0.4589 -0.6967 -0.2046
   18MOL   H259 4713   0.065   7.667   4.344  1.4605  0.0472  0.2406
   18MOL   H260 4714   7.631   7.657   4.342  1.0907 -0.5040 -2.0924
   18MOL   H261 4715   7.641   7.495   4.379  0.4289 -0.0438  0.1923
   18MOL   H262 4716   7.772   7.562   4.278  0.8362  1.7823  0.0290
   19MOL     C1 4717   7.456   7.840   5.621  0.2156  0.2113  0.4711
   19MOL     C2 4718   7.569   0.045   5.686 -0.3973 -0.1072 -0.0401
   19MOL     C3 4719   7.659   0.126   5.619  0.3970  0.2689 -0.0961
   19MOL     C4 4720   7.666   0.137   5.473  0.2950 -0.0257  0.5889
   19MOL     C5 4721   7.774   0.194   5.690  0.3575  0.0200  0.2606
   19MOL     H6 4722   7.488   7.804   5.523 -1.6796  1.9368 -0.8229
   19MOL     H7 4723   7.439   7.756   5.690  3.5993 -1.3970 -0.5638
   19MOL     H8 4724   7.578   0.047   5.794  3.5294 -0.0965 -0.2728
   19MOL     H9 4725   7.670   0.243   5.447 -1.4200  0.8197  3.4682
   19MOL    H10 4726   7.577   0.101   5.422  0.5611 -1.1680  0.9108
   19MOL    H11 4727   7.752   0.088   5.428 -0.6727 -2.3285  1.1615
   19MOL    H12 4728   7.781   0.171   5.796 -1.7025  0.2535  0.4715
   19MOL    H13 4729   7.757   0.302   5.690 -1.5868 -0.2642 -0.4761
   19MOL    H14 4730   7.362   0.013   5.617 -0.9053 -1.7604 -2.0686
   19MOL    C15 4731   0.030   0.179   5.623  0.8497 -0.0926 -0.4273
   19MOL    C16 4732   0.131   0.261   5.701  0.0336 -0.7447 -0.1409
   19MOL    C17 4733   0.220   0.222   5.792 -0.2051 -0.0225 -0.5647
   19MOL    C18 4734   0.222   0.073   5.843 -0.6571 -0.8158 -0.0409
   19MOL    C19 4735   0.310   0.318   5.860  0.0171  0.6279  0.2808
   19MOL    H20 4736   0.021   0.229   5.527 -0.0099 -1.4131 -1.0447
   19MOL    H21 4737   0.053   0.075   5.599  2.2364  0.3771 -1.2012
   19MOL    H22 4738   0.129   0.364   5.667 -0.4783 -0.3665  1.0238
   19MOL    H23 4739   0.202   0.065   5.950 -2.7774  0.0540 -0.3467
   19MOL    H24 4740   0.323   0.034   5.835 -0.8942 -0.9662 -3.0558
   19MOL    H25 4741   0.159   0.003   5.786  0.8280 -2.6275  0.4946
   19MOL    H26 4742   0.326   0.403   5.795  0.6532  1.8260  1.9691
   19MOL    H27 4743   0.404   0.268   5.882  1.9022  3.7662 -0.4446
   19MOL    C28 4744   0.247   0.381   5.990 -0.0738  0.7468 -0.6973
   19MOL    C29 4745   0.355   0.433   6.087 -0.7888 -0.3268 -0.3438
   19MOL    C30 4746   0.388   0.383   6.205  0.2078 -0.2129 -0.5298
   19MOL    C31 4747   0.339   0.246   6.236  0.8598 -0.6103 -0.0151
   19MOL    C32 4748   0.464   0.463   6.309 -0.5155  0.0986 -0.2698
   19MOL    H33 4749   0.183   0.308   6.040 -0.2806  1.5401  0.2212
   19MOL    H34 4750   0.178   0.463   5.971 -1.0450 -0.0854 -0.8304
   19MOL    H35 4751   0.398   0.529   6.064 -1.9968  0.2684 -0.1647
   19MOL    H36 4752   0.376   0.175   6.162  1.3571 -0.1099 -0.2464
   19MOL    H37 4753   0.230   0.247   6.229  0.8701  1.9019 -0.2596
   19MOL    H38 4754   0.375   0.205   6.331  1.1672  0.7624  0.4746
   19MOL    H39 4755   0.505   0.549   6.256  0.8771 -0.5815 -0.3336
   19MOL    H40 4756   0.543   0.414   6.367  1.2180  2.7418 -0.3122
   19MOL    C41 4757   0.372   0.516   6.417 -0.0660  0.7881  0.8226
   19MOL    C42 4758   0.291   0.630   6.364  0.6836 -0.3277  0.0913
   19MOL    C43 4759   0.156   0.634   6.350  0.2321  0.1220  0.1743
   19MOL    C44 4760   0.067   0.514   6.393 -0.1669  0.6352  0.1066
   19MOL    C45 4761   0.081   0.755   6.306 -0.1604  0.3895 -0.2326
   19MOL    H46 4762   0.443   0.554   6.490 -0.5503  1.0832  1.1421
   19MOL    H47 4763   0.320   0.435   6.468 -1.1788  0.9553 -0.0177
   19MOL    H48 4764   0.357   0.710   6.334 -0.9531  1.2202  0.5136
   19MOL    H49 4765   0.123   0.421   6.398  1.8313  1.8679  1.7862
   19MOL    H50 4766   7.879   0.486   6.315  0.4684  0.2531 -0.3311
   19MOL    H51 4767   0.023   0.530   6.491 -3.7493 -3.3404 -0.7063
   19MOL    H52 4768   0.012   0.734   6.225  1.0937  0.5077 -1.3578
   19MOL    H53 4769   0.153   0.822   6.259  0.7258  1.4647  2.5669
   19MOL    C54 4770   0.026   0.833   6.423  0.0217  0.6025  0.4246
   19MOL    C55 4771   7.823   0.942   6.370  0.6381  0.4359  0.3276
   19MOL    C56 4772   7.690   0.948   6.343 -0.6009 -0.1816  1.0456
   19MOL    C57 4773   7.600   0.826   6.352 -0.4161  0.2689  0.4695
   19MOL    C58 4774   7.633   1.074   6.284  0.0528  0.3264 -0.0017
   19MOL    H59 4775   0.098   0.875   6.493  0.5068  0.3417  0.0926
   19MOL    H60 4776   7.845   0.768   6.482 -0.6556 -1.8440 -2.8515
   19MOL    H61 4777   7.882   1.026   6.336 -0.2397  0.5886 -0.8652
   19MOL    H62 4778   7.661   0.746   6.394 -3.6377 -2.2555  0.5542
   19MOL    H63 4779   7.562   0.787   6.258  2.3559 -2.5692  0.4369
   19MOL    H64 4780   7.509   0.844   6.409 -1.5549 -1.4550 -0.7500
   19MOL    H65 4781   7.577   1.032   6.200  0.6336 -1.2309  0.3711
   19MOL    H66 4782   7.711   1.132   6.235  1.4034 -0.8297  0.7416
   19MOL    C67 4783   7.558   1.163   6.387 -0.0337  0.3665 -0.1052
   19MOL    C68 4784   7.540   1.310   6.333 -0.4525 -0.3008  0.1195
   19MOL    C69 4785   7.434   1.350   6.257 -0.2935 -0.3782 -0.1575
   19MOL    C70 4786   7.314   1.254   6.228 -0.0434  0.0723  0.2158
   19MOL    C71 4787   7.424   1.489   6.198 -0.4296  0.4851  0.0666
   19MOL    H72 4788   7.627   1.184   6.470  1.7056 -0.1485 -1.3923
   19MOL    H73 4789   7.463   1.120   6.418  0.4156  1.3259  2.7913
   19MOL    H74 4790   7.622   1.379   6.341  0.0571 -1.0909  2.1992
   19MOL    H75 4791   7.286   1.268   6.123  0.7898 -1.4757 -0.2182
   19MOL    H76 4792   7.230   1.276   6.294 -0.7187 -0.8148 -0.3364
   19MOL    H77 4793   7.338   1.148   6.241  2.4493  0.1965 -2.7043
   19MOL    H78 4794   7.510   1.546   6.233 -0.5033  1.0765 -0.7041
   19MOL    H79 4795   7.329   1.539   6.218  0.1662  1.0952  1.5101
   19MOL    C80 4796   7.436   1.490   6.036  0.1335 -0.1257 -0.0533
   19MOL    C81 4797   7.504   1.609   5.978  0.0918 -0.2890  0.0637
   19MOL    C82 4798   7.449   1.712   5.923 -0.5326  0.4382 -0.0470
   19MOL    C83 4799   7.296   1.737   5.915  0.1563 -0.2482 -0.5531
   19MOL    C84 4800   7.530   1.819   5.858  0.3323 -0.2560  0.8821
   19MOL    H85 4801   7.339   1.464   5.993  0.6985  0.1857 -1.5356
   19MOL    H86 4802   7.498   1.404   6.011  1.1177  0.2242  1.1159
   19MOL    H87 4803   7.611   1.596   5.979  0.5372  2.9344 -0.8179
   19MOL    H88 4804   7.238   1.675   5.983 -1.8619  2.2231  0.0681
   19MOL    H89 4805   7.252   1.697   5.824  0.0284 -0.3743 -0.4351
   19MOL    H90 4806   7.267   1.841   5.934 -2.1306 -0.6852 -1.4794
   19MOL    H91 4807   7.634   1.788   5.865  0.7025  0.1955 -1.9914
   19MOL    H92 4808   7.522   1.917   5.905 -2.6706  1.0869 -2.2514
   19MOL    C93 4809   7.492   1.835   5.703  0.2368 -0.3424 -0.1614
   19MOL    C94 4810   7.595   1.909   5.613 -0.4531 -0.0330  0.3914
   19MOL    C95 4811   7.720   1.873   5.576  0.0936 -0.1684  0.5644
   19MOL    C96 4812   7.785   1.749   5.640  0.3449  0.3711 -0.3263
   19MOL    C97 4813   7.791   1.957   5.475 -0.6904  0.1402  0.0008
   19MOL    H98 4814   7.396   1.885   5.685  0.5245 -0.6863 -2.8819
   19MOL    H99 4815   7.472   1.738   5.657 -0.5638 -0.8244  1.1500
   19MOL   H100 4816   7.545   2.003   5.591 -3.4087 -1.2313  1.6348
   19MOL   H101 4817   7.709   1.672   5.652  0.8736 -0.3405 -1.4072
   19MOL   H102 4818   7.836   1.786   5.728  1.1055  1.6114 -1.2602
   19MOL   H103 4819   7.859   1.703   5.574 -0.0860 -0.1086 -0.4781
   19MOL   H104 4820   0.012   1.950   5.510 -0.1198  0.8877 -1.4584
   19MOL   H105 4821   7.762   2.062   5.482 -1.8679 -0.2348  0.8314
   19MOL   C106 4822   7.774   1.897   5.333  0.1719 -0.1031  0.5010
   19MOL   C107 4823   7.861   1.779   5.312  0.2776  0.4254  0.5443
   19MOL   C108 4824   7.833   1.650   5.282 -0.0905 -0.2916  0.0112
   19MOL   C109 4825   7.696   1.584   5.286  0.2404 -0.4815  0.2235
   19MOL   C110 4826   0.054   1.544   5.260  0.8885  0.7678  0.0391
   19MOL   H111 4827   7.808   1.982   5.274  1.2625 -0.2225  0.9424
   19MOL   H112 4828   7.669   1.871   5.322 -0.4479  2.4303  0.0719
   19MOL   H113 4829   0.081   1.811   5.314  0.2883  0.5246 -0.9836
   19MOL   H114 4830   7.659   1.564   5.185 -1.6017  0.8238  0.6171
   19MOL   H115 4831   7.621   1.638   5.343  0.0043 -1.6541  1.0268
   19MOL   H116 4832   7.682   1.489   5.337 -1.0727 -0.6794 -0.4767
   19MOL   H117 4833   0.044   1.495   5.163  2.4671 -0.2323  0.3564
   19MOL   H118 4834   0.022   1.466   5.330 -4.5106  1.0600 -1.9172
   19MOL   C119 4835   0.195   1.584   5.279  0.4543  1.0420  0.2805
   19MOL   C120 4836   0.292   1.472   5.272 -0.7287 -0.7855 -0.5502
   19MOL   C121 4837   0.363   1.422   5.165 -0.7235 -0.2779 -0.2763
   19MOL   C122 4838   0.340   1.467   5.025 -0.2560  0.0188 -0.1259
   19MOL   C123 4839   0.458   1.310   5.179  0.2467  1.3212 -0.0601
   19MOL   H124 4840   0.207   1.624   5.379 -0.2657  0.3332  0.6630
   19MOL   H125 4841   0.220   1.656   5.201  0.6523 -0.3847 -1.0039
   19MOL   H126 4842   0.315   1.424   5.366 -0.5368 -1.5477 -0.9742
   19MOL   H127 4843   0.238   1.505   5.016  0.5709  1.9467 -1.6389
   19MOL   H128 4844   0.337   1.387   4.952 -0.3331  0.0925 -0.2033
   19MOL   H129 4845   0.405   1.547   4.991  2.3473 -1.7785  0.5338
   19MOL   H130 4846   0.483   1.301   5.285  0.9951  2.8522 -0.0913
   19MOL   H131 4847   0.553   1.347   5.139  0.2586  2.4954  1.0252
   19MOL   C132 4848   0.414   1.176   5.122  0.1042  0.8230 -0.1179
   19MOL   C133 4849   0.306   1.108   5.207  0.1744  0.1410 -0.7346
   19MOL   C134 4850   0.307   0.993   5.271  0.0950  0.3484  0.2495
   19MOL   C135 4851   0.432   0.904   5.264  0.6550 -0.9060  0.1814
   19MOL   C136 4852   0.201   0.957   5.374  0.6584  0.2422 -0.0950
   19MOL   H137 4853   0.500   1.108   5.116  0.4126  1.2196 -0.1938
   19MOL   H138 4854   0.378   1.201   5.022 -1.1490 -0.1983  0.0581
   19MOL   H139 4855   0.222   1.175   5.218  0.6126  0.3430  1.6833
   19MOL   H140 4856   0.413   0.799   5.285  0.1992 -1.2253 -1.7261
   19MOL   H141 4857   0.499   0.952   5.335 -0.6533 -0.7625  1.3386
   19MOL   H142 4858   0.470   0.899   5.162  0.7627 -1.0193  0.2265
   19MOL   H143 4859   0.129   1.039   5.377  0.5668  0.1265  1.0308
   19MOL   H144 4860   0.247   0.954   5.473 -1.2984 -0.5571  0.8162
   19MOL   C145 4861   0.126   0.827   5.351 -0.6658 -0.0553 -0.0932
   19MOL   C146 4862   0.002   0.811   5.443  0.2509 -0.2792  0.6438
   19MOL   C147 4863   7.868   0.729   5.545 -0.1801  0.1490 -0.4799
   19MOL   C148 4864   0.087   0.631   5.584  0.4118  0.1097 -0.4030
   19MOL   C149 4865   7.736   0.728   5.618  1.3022  0.1038  0.2735
   19MOL   H150 4866   0.194   0.743   5.366  0.4636  0.7200 -0.8114
   19MOL   H151 4867   0.097   0.822   5.246  0.9757  2.4810 -0.7087
   19MOL   H152 4868   7.806   0.881   5.419  0.6804 -0.4342 -1.3324
   19MOL   H153 4869   0.060   0.588   5.680 -2.3267  2.0231 -0.2684
   19MOL   H154 4870   0.186   0.675   5.599  2.1438 -3.5311 -0.7440
   19MOL   H155 4871   0.092   0.548   5.514 -0.5148  0.5953 -1.0622
   19MOL   H156 4872   7.680   0.812   5.575  0.4027 -0.0017  1.2260
   19MOL   H157 4873   7.758   0.766   5.718 -0.8028  0.9850  0.4358
   19MOL   C158 4874   7.651   0.596   5.633 -0.0558 -0.5348  0.1658
   19MOL   C159 4875   7.505   0.616   5.654  0.5043  0.0490  0.7253
   19MOL   C160 4876   7.399   0.547   5.610 -0.0044  0.3354 -0.3178
   19MOL   C161 4877   7.419   0.420   5.524  0.1463 -0.1821  0.5778
   19MOL   C162 4878   7.259   0.575   5.646  0.4315 -0.1913 -0.3178
   19MOL   H163 4879   7.686   0.538   5.718  0.8255  0.0737  0.2162
   19MOL   H164 4880   7.664   0.538   5.541 -2.3413 -1.6453  0.5122
   19MOL   H165 4881   7.480   0.697   5.720 -0.2663 -0.5978  1.2284
   19MOL   H166 4882   7.366   0.429   5.429  2.0099 -0.1301 -0.4885
   19MOL   H167 4883   7.375   0.341   5.585 -1.5579 -0.5050 -1.0206
   19MOL   H168 4884   7.521   0.402   5.491 -0.3570 -0.9180 -0.6064
   19MOL   H169 4885   7.259   0.673   5.695 -2.9142  0.0128 -0.5844
   19MOL   H170 4886   7.220   0.500   5.715 -2.0598  0.7782 -0.5943
   19MOL   C171 4887   7.153   0.581   5.530  0.5347  0.3778  0.2358
   19MOL   C172 4888   7.027   0.637   5.582  0.6581 -0.1777 -0.1121
   19MOL   C173 4889   6.902   0.578   5.580 -0.4209 -0.1414  0.4809
   19MOL   C174 4890   6.859   0.455   5.499  0.3539  0.2139 -0.0839
   19MOL   C175 4891   6.789   0.669   5.623  0.0030  0.0512  0.1872
   19MOL   H176 4892   7.133   0.490   5.474 -4.6251  0.1409  2.2149
   19MOL   H177 4893   7.192   0.663   5.469 -0.0552 -0.4112 -1.2230
   19MOL   H178 4894   7.043   0.739   5.614 -0.2948  0.4001 -1.4103
   19MOL   H179 4895   6.761   0.427   5.537 -0.3272  2.0286 -0.4357
   19MOL   H180 4896   6.927   0.372   5.518 -1.2159 -1.2491 -0.7950
   19MOL   H181 4897   6.854   0.475   5.391  0.8671  1.8078  0.1703
   19MOL   H182 4898   6.827   0.761   5.668 -0.2830  1.8381 -3.0291
   19MOL   H183 4899   6.739   0.619   5.706 -0.2274  1.4946  0.9319
   19MOL   C184 4900   6.698   0.701   5.508  0.3052  0.2601 -0.2028
   19MOL   C185 4901   6.595   0.810   5.535 -0.0642  0.7139 -0.0161
   19MOL   C186 4902   6.599   0.941   5.504  0.4714 -0.4867  0.3693
   19MOL   C187 4903   6.728   1.002   5.459  0.2878  0.0946 -0.0744
   19MOL   C188 4904   6.487   1.035   5.542  0.0637 -0.1680  0.2274
   19MOL   H189 4905   6.641   0.610   5.493  1.4661 -0.7387  1.2749
   19MOL   H190 4906   6.745   0.718   5.412 -2.0065  1.7224 -1.1151
   19MOL   H191 4907   6.503   0.767   5.573 -2.3230  4.2251 -1.3087
   19MOL   H192 4908   6.762   1.043   5.553 -1.1530 -0.1356  0.5651
   19MOL   H193 4909   6.702   1.072   5.379 -1.3582  1.8495  1.9497
   19MOL   H194 4910   6.804   0.934   5.423  1.1587  0.3542  1.2460
   19MOL   H195 4911   6.505   1.120   5.476  0.8642 -0.4334  0.1017
   19MOL   H196 4912   6.494   1.060   5.648  1.6725 -0.6242  0.2387
   19MOL   C197 4913   6.350   0.975   5.521  0.0122 -0.7761  0.3525
   19MOL   C198 4914   6.242   1.081   5.549 -1.0173  0.5174 -0.0462
   19MOL   C199 4915   6.134   1.062   5.626  0.7379  0.2701 -0.5091
   19MOL   C200 4916   6.112   0.924   5.695  0.1784  0.5273  0.2711
   19MOL   C201 4917   6.021   1.172   5.636  0.0480  0.4763 -0.2136
   19MOL   H202 4918   6.328   0.894   5.590 -1.0403  0.7124  1.8227
   19MOL   H203 4919   6.335   0.941   5.418  1.9577 -1.1565  0.1832
   19MOL   H204 4920   6.268   1.172   5.498 -1.8400 -0.4048 -2.1846
   19MOL   H205 4921   6.023   0.926   5.759  1.5474  3.1155  2.1763
   19MOL   H206 4922   6.197   0.899   5.759  0.7647  1.5069 -0.1148
   19MOL   H207 4923   6.095   0.843   5.624 -0.4522  1.5261 -0.7183
   19MOL   H208 4924   6.002   1.181   5.743 -0.3697 -0.4148 -0.2021
   19MOL   H209 4925   5.928   1.130   5.597  1.2731  0.4392 -3.2190
   19MOL   C210 4926   6.048   1.314   5.578 -0.9667  0.7973 -0.7125
   19MOL   C211 4927   5.919   1.389   5.572  0.6611  0.0807 -0.1135
   19MOL   C212 4928   5.870   1.455   5.468  0.0006 -0.2917  0.2945
   19MOL   C213 4929   5.930   1.465   5.326 -0.4003 -0.3536  0.0908
   19MOL   C214 4930   5.748   1.539   5.495  0.3253 -0.4227 -0.2293
   19MOL   H215 4931   6.098   1.309   5.481  1.3171  0.7472  0.4227
   19MOL   H216 4932   6.113   1.365   5.650 -0.8404  1.0244 -0.9875
   19MOL   H217 4933   5.868   1.402   5.666 -1.4650 -0.9971 -1.0607
   19MOL   H218 4934   5.936   1.569   5.293  1.4663 -0.1172  1.0805
   19MOL   H219 4935   5.866   1.416   5.253 -0.4314  0.5132 -0.4820
   19MOL   H220 4936   6.020   1.404   5.322  0.2696  0.4732  2.0580
   19MOL   H221 4937   5.732   1.550   5.603 -0.1293  0.2556 -0.3630
   19MOL   H222 4938   5.662   1.484   5.457  0.8856 -0.6163 -1.2296
   19MOL   C223 4939   5.748   1.681   5.428 -0.2061  0.6935  0.1717
   19MOL   C224 4940   5.651   1.778   5.495 -0.4188 -0.5538  0.8322
   19MOL   C225 4941   5.668   1.851   5.606  0.0611 -0.8267  0.0961
   19MOL   C226 4942   5.792   1.860   5.684  0.1818 -0.5672 -0.4066
   19MOL   C227 4943   5.553   1.921   5.673  0.1527 -0.3586 -0.1173
   19MOL   H228 4944   5.720   1.668   5.323  1.0211  0.8861 -0.1862
   19MOL   H229 4945   5.845   1.729   5.420  0.0707  0.2889  1.0644
   19MOL   H230 4946   5.556   1.775   5.443  0.9278 -1.7951 -1.6472
   19MOL   H231 4947   5.840   1.761   5.685 -2.8844 -2.1126 -0.8613
   19MOL   H232 4948   5.786   1.880   5.791 -1.0725 -2.1260 -0.1631
   19MOL   H233 4949   5.867   1.927   5.642 -1.0190  1.0326 -0.0006
   19MOL   H234 4950   5.473   1.916   5.599 -0.9700 -0.1596  1.0575
   19MOL   H235 4951   5.575   2.025   5.697  0.0945 -0.5600  0.8411
   19MOL   C236 4952   5.512   1.852   5.803 -0.1253  0.6487 -0.1702
   19MOL   C237 4953   5.374   1.896   5.843  0.0558  0.6923 -0.1985
   19MOL   C238 4954   5.266   1.816   5.865 -0.3159 -0.5030 -0.2204
   19MOL   C239 4955   5.273   1.665   5.851  0.2951  0.6659  0.3863
   19MOL   C240 4956   5.139   1.876   5.915  0.6792 -0.1965 -0.2979
   19MOL   H241 4957   5.581   1.862   5.887  1.6699 -0.1136 -1.5263
   19MOL   H242 4958   5.522   1.745   5.786  0.8249  0.5722  0.8414
   19MOL   H243 4959   5.368   2.001   5.868  0.2801  1.4123 -3.0186
   19MOL   H244 4960   5.247   1.632   5.750  0.0798  0.3464  0.5423
   19MOL   H245 4961   5.204   1.613   5.918 -2.3032  0.0136 -2.6584
   19MOL   H246 4962   5.374   1.631   5.874  1.5746  2.6527 -1.9973
   19MOL   H247 4963   5.160   1.969   5.967 -1.3953 -0.8843  1.8984
   19MOL   H248 4964   5.086   1.807   5.981 -1.4235 -0.3028 -2.0495
   19MOL   C249 4965   5.048   1.907   5.796  0.2257 -0.2788 -0.3100
   19MOL   C250 4966   4.922   1.979   5.845 -0.2452 -0.2111  0.0459
   19MOL   C251 4967   4.795   1.937   5.827 -0.4852 -0.0675  0.2391
   19MOL   C252 4968   4.750   1.819   5.751  0.1110  0.0778  0.0406
   19MOL   C253 4969   4.678   2.026   5.885  0.1587 -0.5937  0.7131
   19MOL   H254 4970   5.011   1.815   5.751 -1.3067 -0.5449  1.4317
   19MOL   H255 4971   5.113   1.954   5.722 -0.6653 -0.6219 -1.3026
   19MOL   H256 4972   4.952   2.074   5.885  1.9059 -0.5650 -0.6258
   19MOL   H257 4973   4.715   1.745   5.823 -0.2062 -0.4145 -0.6102
   19MOL   H258 4974   4.829   1.783   5.684  0.9025  4.6604 -1.6710
   19MOL   H259 4975   4.664   1.842   5.689 -1.3172 -0.2615  1.8804
   19MOL   H260 4976   4.733   2.108   5.930 -0.2656  0.3662 -0.4965
   19MOL   H261 4977   4.627   1.988   5.974  1.2494 -0.9209  1.2005
   19MOL   H262 4978   4.606   2.053   5.808  1.3451 -0.6195 -0.4175
   20MOL     C1 4979   6.268   6.741   6.617 -0.5600  0.9413  0.5418
   20MOL     C2 4980   6.174   6.861   6.606 -0.1199  0.3423  0.5123
   20MOL     C3 4981   6.197   6.977   6.541  0.1634  0.6548  0.0095
   20MOL     C4 4982   6.333   7.002   6.477  0.3621 -0.1967 -0.1678
   20MOL     C5 4983   6.099   7.086   6.511  0.0796 -0.2010  0.2852
   20MOL     H6 4984   6.331   6.733   6.528  0.4359 -1.1959  1.4045
   20MOL     H7 4985   6.319   6.739   6.713  2.1279  2.5607 -0.8016
   20MOL     H8 4986   6.081   6.847   6.659  0.7321 -1.8694  1.4445
   20MOL     H9 4987   6.416   6.945   6.519  0.9797  0.0177 -1.0979
   20MOL    H10 4988   6.363   7.106   6.489  0.0811 -0.0589 -0.6572
   20MOL    H11 4989   6.340   6.981   6.371  0.2338 -2.5172  0.2596
   20MOL    H12 4990   6.130   7.183   6.549  2.1415 -0.4476 -0.6896
   20MOL    H13 4991   6.008   7.058   6.564  0.0519  0.5109  0.6185
   20MOL    H14 4992   6.221   6.643   6.610  0.6140  0.5521 -3.3803
   20MOL    C15 4993   6.057   7.100   6.365 -0.5168 -0.1044  0.1257
   20MOL    C16 4994   5.990   7.234   6.337  0.0009 -0.6873  0.7108
   20MOL    C17 4995   6.043   7.330   6.259  0.8932  0.4313  0.4899
   20MOL    C18 4996   6.185   7.334   6.200  0.1965  0.0143  0.1725
   20MOL    C19 4997   5.962   7.454   6.234 -0.4884 -0.2406  0.2748
   20MOL    H20 4998   5.984   7.020   6.347  0.2118 -0.6054 -0.6221
   20MOL    H21 4999   6.138   7.084   6.294 -0.8972  4.0376 -1.3671
   20MOL    H22 5000   5.895   7.248   6.387 -0.0686 -0.9476  0.6524
   20MOL    H23 5001   6.251   7.264   6.251 -0.1213  1.2162  2.3004
   20MOL    H24 5002   6.229   7.433   6.216 -0.7431  1.0369 -3.1801
   20MOL    H25 5003   6.178   7.319   6.093  3.2917 -2.5881  0.2636
   20MOL    H26 5004   5.865   7.417   6.201  0.2966 -0.8282 -1.4360
   20MOL    H27 5005   5.985   7.512   6.144 -2.3285 -0.2944 -0.2433
   20MOL    C28 5006   5.948   7.547   6.358 -0.0175  0.0739 -0.1322
   20MOL    C29 5007   6.073   7.615   6.400  0.1809 -0.5168  0.1638
   20MOL    C30 5008   6.138   7.601   6.518 -0.2467 -0.0583  0.2910
   20MOL    C31 5009   6.086   7.512   6.625 -0.3797 -1.1820  0.6918
   20MOL    C32 5010   6.263   7.677   6.549  0.2906 -0.1156 -0.6310
   20MOL    H33 5011   5.914   7.483   6.439  1.1912  0.2870  0.5526
   20MOL    H34 5012   5.864   7.614   6.338  0.0512  0.5767  1.2128
   20MOL    H35 5013   6.118   7.676   6.323 -2.8065  1.3279 -0.2353
   20MOL    H36 5014   6.040   7.578   6.699  0.1738  0.3962 -0.3321
   20MOL    H37 5015   6.168   7.462   6.677  1.1358 -0.0301 -0.5275
   20MOL    H38 5016   6.015   7.431   6.610 -3.1382  1.2339  0.2235
   20MOL    H39 5017   6.305   7.698   6.450  0.6990  0.3237 -0.3696
   20MOL    H40 5018   6.337   7.613   6.597 -0.7896 -0.0030  1.2171
   20MOL    C41 5019   6.217   7.803   6.628  0.1316  0.0998 -0.1743
   20MOL    C42 5020   6.120   0.005   6.556 -0.3220  0.0063  0.1970
   20MOL    C43 5021   6.004   0.060   6.597  0.1913 -0.3812  1.4778
   20MOL    C44 5022   5.938   0.035   6.733 -0.2270 -0.3696 -0.9379
   20MOL    C45 5023   5.925   0.149   6.506  1.0485 -0.3933 -0.6367
   20MOL    H46 5024   6.300   7.862   6.667 -0.2842  0.2029  0.5498
   20MOL    H47 5025   6.181   7.768   6.724  1.1984  0.1720  0.2644
   20MOL    H48 5026   6.150   0.008   6.452 -1.3198  0.1731 -0.0927
   20MOL    H49 5027   5.945   0.123   6.798 -0.1170 -0.4492 -0.8406
   20MOL    H50 5028   5.983   7.839   6.795 -0.9812  0.5530  0.8237
   20MOL    H51 5029   5.837   7.879   6.730 -0.5210  0.3561 -0.5055
   20MOL    H52 5030   5.981   0.182   6.418  1.3269 -1.0843 -0.7188
   20MOL    H53 5031   5.892   0.238   6.559  3.3503 -0.4858  1.0494
   20MOL    C54 5032   5.809   0.071   6.446  0.2197  0.3069  0.2670
   20MOL    C55 5033   5.742   0.140   6.335  1.0709 -0.0622  0.0564
   20MOL    C56 5034   5.625   0.215   6.337  0.8819 -0.0880  0.2151
   20MOL    C57 5035   5.550   0.236   6.468 -0.0965  0.3381  0.1679
   20MOL    C58 5036   5.564   0.285   6.216  0.1691 -0.6265  0.1959
   20MOL    H59 5037   5.745   0.029   6.523  0.8019  0.7455  0.9911
   20MOL    H60 5038   5.846   7.866   6.391 -0.8673  0.4464 -0.7128
   20MOL    H61 5039   5.791   0.140   6.239 -1.0974 -1.1396 -1.0675
   20MOL    H62 5040   5.616   0.211   6.551  1.5588  0.2179 -1.1504
   20MOL    H63 5041   5.459   0.176   6.475 -0.8127  1.5550  1.2853
   20MOL    H64 5042   5.528   0.342   6.473 -0.3064  0.2606  0.8668
   20MOL    H65 5043   5.623   0.269   6.125 -0.4853  0.7228 -0.4885
   20MOL    H66 5044   5.565   0.394   6.216  1.1856 -0.6251 -0.1527
   20MOL    C67 5045   5.417   0.238   6.196 -0.5065 -0.1722 -0.5244
   20MOL    C68 5046   5.371   0.290   6.056 -0.0360  0.1284  0.7404
   20MOL    C69 5047   5.299   0.220   5.962 -0.1953  0.2085  0.3274
   20MOL    C70 5048   5.248   0.086   5.995 -0.2806 -0.4028 -0.3457
   20MOL    C71 5049   5.281   0.270   5.820  0.4921 -0.0550  0.2996
   20MOL    H72 5050   5.352   0.284   6.271 -1.0239  1.0952 -1.7383
   20MOL    H73 5051   5.399   0.130   6.199  0.7391 -0.4310 -1.8184
   20MOL    H74 5052   5.416   0.383   6.025  1.6740 -0.7383  0.5630
   20MOL    H75 5053   5.159   0.096   6.057  0.4758  1.1267  0.5081
   20MOL    H76 5054   5.327   0.030   6.045 -1.2705 -1.7746 -0.2850
   20MOL    H77 5055   5.228   0.023   5.908  0.7717 -1.0639 -0.1132
   20MOL    H78 5056   5.301   0.377   5.830 -2.6996  0.7626 -1.4389
   20MOL    H79 5057   5.174   0.260   5.802  1.1843 -4.6567 -2.1060
   20MOL    C80 5058   5.364   0.193   5.715  0.3906 -0.7108  0.2958
   20MOL    C81 5059   5.310   0.240   5.579 -0.7206 -1.0276 -0.3069
   20MOL    C82 5060   5.207   0.195   5.513  0.8336 -0.6145 -0.1661
   20MOL    C83 5061   5.130   0.071   5.560 -0.6023 -0.4662  0.0709
   20MOL    C84 5062   5.148   0.251   5.385  0.7110  0.1272 -0.4144
   20MOL    H85 5063   5.354   0.086   5.735 -0.8321 -1.4955 -4.0815
   20MOL    H86 5064   5.467   0.226   5.728 -0.2883  1.3742  0.6580
   20MOL    H87 5065   5.359   0.330   5.546 -2.1925  0.2585  0.9071
   20MOL    H88 5066   5.190   0.005   5.622 -1.4299 -0.5914  0.7443
   20MOL    H89 5067   5.088   0.006   5.483 -1.4281  1.0857 -0.8262
   20MOL    H90 5068   5.049   0.108   5.623 -0.9311 -1.9859  0.5641
   20MOL    H91 5069   5.044   0.222   5.377  0.6719 -0.2254  1.1804
   20MOL    H92 5070   5.203   0.207   5.301 -1.1113 -1.4689 -0.8088
   20MOL    C93 5071   5.159   0.403   5.368 -0.0134  0.9499  1.3984
   20MOL    C94 5072   5.084   0.437   5.245 -0.2679  0.4623 -0.6625
   20MOL    C95 5073   4.953   0.439   5.222 -0.0375 -0.1911 -0.1770
   20MOL    C96 5074   4.859   0.400   5.340 -0.1421 -0.3389 -0.0613
   20MOL    C97 5075   4.899   0.471   5.081  0.4331 -0.1496 -0.4948
   20MOL    H98 5076   5.264   0.430   5.358  0.3451 -1.3608 -1.9695
   20MOL    H99 5077   5.122   0.459   5.454  0.5675  3.0106  0.3477
   20MOL   H100 5078   5.150   0.466   5.165  1.3420  0.7939  0.7777
   20MOL   H101 5079   4.807   0.306   5.321 -2.3951  1.0467 -0.9659
   20MOL   H102 5080   4.774   0.467   5.350  0.9364  1.1820 -0.7929
   20MOL   H103 5081   4.902   0.404   5.440 -0.4558 -0.2380  0.0702
   20MOL   H104 5082   4.835   0.390   5.046  0.2070 -0.5749  0.8753
   20MOL   H105 5083   4.980   0.485   5.009  0.7953 -0.7575 -0.2139
   20MOL   C106 5084   4.809   0.597   5.089 -0.3493  0.6564  0.1807
   20MOL   C107 5085   4.731   0.638   4.958  0.3436 -0.0106 -0.0489
   20MOL   C108 5086   4.601   0.612   4.938 -0.1614 -0.5917  0.1823
   20MOL   C109 5087   4.510   0.535   5.035  0.8041 -0.1448 -0.8230
   20MOL   C110 5088   4.531   0.660   4.808 -0.2968 -0.1025 -0.3398
   20MOL   H111 5089   4.868   0.685   5.115  0.2014  0.3469 -0.0169
   20MOL   H112 5090   4.751   0.606   5.181  1.1479  1.5991  1.0541
   20MOL   H113 5091   4.790   0.687   4.882  0.9571 -1.2244 -0.3830
   20MOL   H114 5092   4.563   0.515   5.128  1.6741  1.4923 -0.9459
   20MOL   H115 5093   4.473   0.438   5.002  2.0829 -0.5777 -0.9970
   20MOL   H116 5094   4.432   0.607   5.060  1.0582 -0.1773  0.0930
   20MOL   H117 5095   4.484   0.570   4.767  1.4490 -1.0626 -0.2493
   20MOL   H118 5096   4.597   0.691   4.727 -0.6820  2.0388  0.1395
   20MOL   C119 5097   4.429   0.776   4.831  0.1480  0.6155 -0.0235
   20MOL   C120 5098   4.346   0.820   4.707 -0.4828  0.0185  0.0829
   20MOL   C121 5099   4.220   0.787   4.682  0.3903  0.0958  0.1143
   20MOL   C122 5100   4.141   0.686   4.757 -0.4721 -0.2151 -0.8984
   20MOL   C123 5101   4.153   0.844   4.555  0.6745  0.6613 -0.3473
   20MOL   H124 5102   4.487   0.867   4.845 -2.2295  1.6805  3.4665
   20MOL   H125 5103   4.369   0.776   4.922 -0.8927  1.3611 -0.6991
   20MOL   H126 5104   4.400   0.885   4.639  0.9416 -0.3964  0.8051
   20MOL   H127 5105   4.171   0.685   4.862 -0.4942  1.7791 -0.8442
   20MOL   H128 5106   4.149   0.588   4.711 -0.1603 -1.0553  0.8939
   20MOL   H129 5107   4.037   0.719   4.752  0.4006  2.6707 -0.9707
   20MOL   H130 5108   4.065   0.896   4.594 -0.1547 -2.7446  2.6466
   20MOL   H131 5109   4.103   0.756   4.515 -0.7636  2.2243 -2.0342
   20MOL   C132 5110   4.226   0.917   4.444  0.0083  0.6014 -0.0973
   20MOL   C133 5111   4.150   0.905   4.312  0.1568 -0.1151  0.0308
   20MOL   C134 5112   4.177   0.829   4.204  0.6584 -0.7670 -0.3738
   20MOL   C135 5113   4.301   0.757   4.180 -0.3654  0.1664 -0.3712
   20MOL   C136 5114   4.069   0.828   4.096  0.1940 -0.5268  0.1892
   20MOL   H137 5115   4.322   0.867   4.440  0.2459  0.9908  0.6138
   20MOL   H138 5116   4.241   1.021   4.475  0.3140 -0.1035  2.2172
   20MOL   H139 5117   4.057   0.959   4.303  0.1476  0.3488  2.5547
   20MOL   H140 5118   4.290   0.650   4.196  2.4638 -0.1519 -0.2153
   20MOL   H141 5119   4.392   0.784   4.235 -0.3521 -0.0155 -0.3013
   20MOL   H142 5120   4.323   0.774   4.075  0.8254  1.6696  0.0986
   20MOL   H143 5121   4.118   0.851   4.001  0.0222  1.9976  0.6674
   20MOL   H144 5122   3.986   0.895   4.118  1.3012  0.1977  2.2765
   20MOL   C145 5123   4.002   0.695   4.095 -0.8770 -1.0556  0.5723
   20MOL   C146 5124   3.940   0.657   4.234  0.0498  0.0119 -0.7941
   20MOL   C147 5125   3.822   0.602   4.256 -0.4058 -0.1050  0.5139
   20MOL   C148 5126   3.733   0.555   4.145 -0.2457  0.4149  0.7559
   20MOL   C149 5127   3.763   0.583   4.394 -0.7651 -0.4286 -0.6384
   20MOL   H150 5128   4.069   0.614   4.068  1.6535  1.5023 -1.1959
   20MOL   H151 5129   3.918   0.694   4.025  0.6462 -0.3823 -1.2958
   20MOL   H152 5130   4.000   0.689   4.318  0.3123 -1.5107 -0.3975
   20MOL   H153 5131   3.651   0.488   4.174 -0.4280  1.1098  1.8617
   20MOL   H154 5132   3.797   0.498   4.077 -0.7534 -0.6440  1.1411
   20MOL   H155 5133   3.695   0.638   4.087  1.4439  0.1583 -0.7336
   20MOL   H156 5134   3.665   0.631   4.392 -2.5250 -3.6013  2.8977
   20MOL   H157 5135   3.830   0.624   4.470 -1.1487  1.3773 -1.2454
   20MOL   C158 5136   3.756   0.436   4.438  0.4694 -0.0286  0.3228
   20MOL   C159 5137   3.669   0.431   4.564 -0.0156 -0.1636 -0.2253
   20MOL   C160 5138   3.709   0.439   4.690  0.3046 -0.2408  0.0563
   20MOL   C161 5139   3.862   0.429   4.727  0.0473 -0.9408  0.1043
   20MOL   C162 5140   3.605   0.433   4.794  0.4022  0.3365 -0.2270
   20MOL   H163 5141   3.849   0.382   4.456  0.7962  0.6410  0.6706
   20MOL   H164 5142   3.686   0.392   4.367  1.5317 -2.9337  0.9896
   20MOL   H165 5143   3.563   0.426   4.546  0.3548 -0.3860 -2.5963
   20MOL   H166 5144   3.885   0.481   4.820  1.9394 -1.3467 -0.1131
   20MOL   H167 5145   3.916   0.485   4.650 -0.3153 -0.5799  0.1101
   20MOL   H168 5146   3.899   0.329   4.748  2.1279 -0.0372  0.9664
   20MOL   H169 5147   3.506   0.460   4.757  0.2616 -1.7198 -1.3899
   20MOL   H170 5148   3.634   0.511   4.865  0.7274 -1.4195  1.6130
   20MOL   C171 5149   3.607   0.299   4.875  0.1656  0.0485 -0.2556
   20MOL   C172 5150   3.515   0.311   4.994 -0.4897  0.2915  0.7317
   20MOL   C173 5151   3.556   0.321   5.124  0.5769  0.3616  0.2786
   20MOL   C174 5152   3.708   0.314   5.157 -0.3659  0.3176 -0.1953
   20MOL   C175 5153   3.463   0.339   5.239  0.8511 -0.1338 -0.3006
   20MOL   H176 5154   3.708   0.262   4.896  0.4040  0.3868 -0.8015
   20MOL   H177 5155   3.565   0.227   4.804 -2.0399  0.5221  0.5244
   20MOL   H178 5156   3.409   0.317   4.977 -0.0407  3.9173 -1.4726
   20MOL   H179 5157   3.780   0.364   5.092  0.3819 -1.4380 -0.7426
   20MOL   H180 5158   3.739   0.210   5.158  0.5110  0.5809  1.1295
   20MOL   H181 5159   3.744   0.352   5.253  1.5429  1.6844 -1.3904
   20MOL   H182 5160   3.368   0.384   5.210  1.0454  1.1572  0.9938
   20MOL   H183 5161   3.510   0.412   5.305 -1.8929  0.3053  1.2676
   20MOL   C184 5162   3.437   0.205   5.318 -1.1062  0.4947  0.6392
   20MOL   C185 5163   3.318   0.209   5.412  0.4925 -0.3476 -0.0986
   20MOL   C186 5164   3.302   0.136   5.521 -1.0289  0.1243  0.0736
   20MOL   C187 5165   3.397   0.031   5.568  0.2748  0.3983  0.1914
   20MOL   C188 5166   3.189   0.132   5.616  0.3949 -0.2722  0.3663
   20MOL   H189 5167   3.533   0.178   5.364 -0.1539  0.9466 -1.0345
   20MOL   H190 5168   3.421   0.126   5.245  2.9844  1.9149 -1.9614
   20MOL   H191 5169   3.232   0.269   5.385 -0.1010 -0.0872  2.2805
   20MOL   H192 5170   3.350   7.815   5.573 -0.9729  0.7400 -3.2350
   20MOL   H193 5171   3.445   0.052   5.663  0.4637  1.6796 -0.1847
   20MOL   H194 5172   3.477   0.010   5.496  0.3273  1.4756 -0.0731
   20MOL   H195 5173   3.235   0.165   5.709 -0.1488  3.4281 -0.5702
   20MOL   H196 5174   3.153   0.030   5.622 -0.9751  0.2714  1.5524
   20MOL   C197 5175   3.075   0.227   5.577 -0.4879  0.1967  0.1956
   20MOL   C198 5176   2.945   0.214   5.654 -0.0818  0.8759  0.1289
   20MOL   C199 5177   2.901   0.279   5.764  0.0690 -0.0226 -0.4045
   20MOL   C200 5178   3.001   0.359   5.851  0.1948  0.3627 -0.5749
   20MOL   C201 5179   2.765   0.248   5.824  0.8792 -1.1842 -0.4246
   20MOL   H202 5180   3.050   0.199   5.474  2.0227 -0.7453 -0.1802
   20MOL   H203 5181   3.107   0.331   5.570  0.0242  0.0319  0.0967
   20MOL   H204 5182   2.877   0.140   5.615 -0.1231  1.6818 -1.3459
   20MOL   H205 5183   2.950   0.450   5.882  1.4172  0.2857  1.7165
   20MOL   H206 5184   3.088   0.383   5.790  0.4047  1.4002  0.1319
   20MOL   H207 5185   3.028   0.325   5.951 -3.1593 -2.7520 -0.6054
   20MOL   H208 5186   2.785   0.222   5.928 -1.2457 -2.4642 -0.3287
   20MOL   H209 5187   2.735   0.152   5.784  0.1137 -0.2884 -2.0264
   20MOL   C210 5188   2.653   0.358   5.817 -0.8337 -0.6253 -0.1057
   20MOL   C211 5189   2.587   0.362   5.687  0.0556 -0.9492 -0.9234
   20MOL   C212 5190   2.458   0.386   5.663  0.0552 -0.2330 -0.1520
   20MOL   C213 5191   2.353   0.401   5.773 -0.8639 -0.0520  0.1215
   20MOL   C214 5192   2.407   0.390   5.520 -0.0582  0.9392  0.3352
   20MOL   H215 5193   2.699   0.455   5.832 -0.4507 -0.7430 -0.4912
   20MOL   H216 5194   2.582   0.324   5.892  1.0198 -0.9139  1.5535
   20MOL   H217 5195   2.659   0.338   5.610  1.9283 -1.4803  0.9449
   20MOL   H218 5196   2.289   0.313   5.775 -1.1685  0.1762  0.3172
   20MOL   H219 5197   2.287   0.486   5.759 -1.4133 -0.4487  0.2818
   20MOL   H220 5198   2.396   0.386   5.871 -0.4549 -0.5509 -0.1310
   20MOL   H221 5199   2.336   0.307   5.522 -0.3589  1.2173  1.9415
   20MOL   H222 5200   2.490   0.353   5.459  0.7168  1.4130  1.0872
   20MOL   C223 5201   2.356   0.525   5.477  0.4591 -0.9912  0.2933
   20MOL   C224 5202   2.325   0.543   5.328 -0.9215  0.7665 -0.1742
   20MOL   C225 5203   2.265   0.647   5.269  0.5643 -0.4076 -0.5251
   20MOL   C226 5204   2.219   0.764   5.348  0.0503 -0.2673 -0.4904
   20MOL   C227 5205   2.235   0.656   5.121 -0.6652 -0.1153 -0.1489
   20MOL   H228 5206   2.430   0.602   5.501 -1.0880  1.3470 -2.1419
   20MOL   H229 5207   2.266   0.546   5.534  0.3243 -1.0064  0.0869
   20MOL   H230 5208   2.355   0.460   5.265  0.5899 -0.1920  1.7761
   20MOL   H231 5209   2.135   0.727   5.408 -0.4864 -0.0768 -1.1139
   20MOL   H232 5210   2.187   0.841   5.277 -1.2264 -1.8526 -1.6721
   20MOL   H233 5211   2.297   0.798   5.416  0.7405  1.6274 -2.1848
   20MOL   H234 5212   2.304   0.585   5.074  1.0166  0.0948  1.8904
   20MOL   H235 5213   2.266   0.753   5.084  0.0483 -1.3709 -2.9358
   20MOL   C236 5214   2.089   0.643   5.086  0.5721 -0.9050  0.4810
   20MOL   C237 5215   2.071   0.625   4.930  0.1160  0.3415  0.5480
   20MOL   C238 5216   2.034   0.724   4.848 -0.7109 -0.4718  0.2835
   20MOL   C239 5217   2.002   0.871   4.889  0.2728 -0.3731  0.0096
   20MOL   C240 5218   2.025   0.704   4.697  0.1655  0.4955 -0.3951
   20MOL   H241 5219   2.035   0.730   5.124  0.6243  0.1879 -1.8124
   20MOL   H242 5220   2.049   0.558   5.139 -0.0063 -1.1635 -0.3615
   20MOL   H243 5221   2.098   0.528   4.893  0.0678  1.1501 -1.6498
   20MOL   H244 5222   1.911   0.910   4.843  0.7089 -0.3166 -0.8139
   20MOL   H245 5223   2.077   0.943   4.858 -1.6814  1.4685 -0.5071
   20MOL   H246 5224   1.998   0.882   4.998 -1.5334 -1.2865  0.0440
   20MOL   H247 5225   2.074   0.611   4.670  2.3637  2.0840 -2.0991
   20MOL   H248 5226   2.077   0.792   4.659 -0.5895  0.8125 -0.7124
   20MOL   C249 5227   1.875   0.705   4.643  0.6842 -0.1561 -0.0832
   20MOL   C250 5228   1.862   0.665   4.496 -0.1849 -0.6926  0.1656
   20MOL   C251 5229   1.850   0.749   4.387 -0.1678  0.4413  0.2231
   20MOL   C252 5230   1.885   0.899   4.397 -0.8221 -0.5124  0.0644
   20MOL   C253 5231   1.815   0.704   4.243 -0.6204 -0.3956  0.2312
   20MOL   H254 5232   1.845   0.809   4.640  0.0115 -0.3298  0.5154
   20MOL   H255 5233   1.796   0.652   4.696 -0.6313 -0.1691 -2.0003
   20MOL   H256 5234   1.854   0.560   4.472  1.9251 -0.2892 -2.5952
   20MOL   H257 5235   1.797   0.959   4.376 -1.8696 -1.8298  0.6146
   20MOL   H258 5236   1.960   0.924   4.322 -0.2084  0.8906  1.1135
   20MOL   H259 5237   1.929   0.908   4.497 -1.9228 -2.8976  0.8177
   20MOL   H260 5238   1.792   0.598   4.233  1.2118 -0.6088 -2.0398
   20MOL   H261 5239   1.892   0.727   4.169 -0.4489 -0.2538  0.4508
   20MOL   H262 5240   1.727   0.760   4.214 -0.6793 -1.3859 -1.5079
   21MOL     C1 5241   3.953   5.238   6.787 -0.2130 -0.0998 -0.4322
   21MOL     C2 5242   3.908   5.375   6.817  0.0557 -0.1687 -0.6423
   21MOL     C3 5243   3.987   5.487   6.821 -0.0367  0.4212 -0.0371
   21MOL     C4 5244   4.137   5.490   6.788 -0.3375 -0.2905  0.1856
   21MOL     C5 5245   3.923   5.622   6.847  0.7378  0.0276 -0.1009
   21MOL     H6 5246   3.925   5.169   6.866  0.9268 -0.6904 -0.5282
   21MOL     H7 5247   3.915   5.206   6.690  2.9051 -2.5154 -0.9427
   21MOL     H8 5248   3.806   5.390   6.849  0.5524  1.0487  0.4115
   21MOL     H9 5249   4.182   5.405   6.838 -0.2102 -0.8656 -0.8959
   21MOL    H10 5250   4.184   5.578   6.832  0.6263 -1.6273  1.8982
   21MOL    H11 5251   4.140   5.491   6.679 -0.5056  0.0824  0.1805
   21MOL    H12 5252   3.993   5.688   6.897 -0.0907  1.3928 -0.7361
   21MOL    H13 5253   3.843   5.608   6.919 -1.6118 -1.1988 -2.8465
   21MOL    H14 5254   4.060   5.219   6.777 -0.2632 -0.1478 -0.8793
   21MOL    C15 5255   3.867   5.696   6.722 -0.6545  0.0211 -0.2856
   21MOL    C16 5256   3.830   5.843   6.747 -0.3850 -0.1619  0.0379
   21MOL    C17 5257   3.836   5.944   6.656 -0.3056 -0.0559 -0.2138
   21MOL    C18 5258   3.918   5.945   6.533 -0.2261  0.6044 -0.0181
   21MOL    C19 5259   3.787   6.085   6.689  0.7185  0.4128 -0.1008
   21MOL    H20 5260   3.778   5.650   6.679  0.8457 -0.3693 -3.0507
   21MOL    H21 5261   3.940   5.700   6.642 -1.5575 -3.0251 -1.3008
   21MOL    H22 5262   3.784   5.856   6.844 -2.5496  0.9693 -1.0952
   21MOL    H23 5263   3.932   5.846   6.491 -1.2276  0.8213 -0.8747
   21MOL    H24 5264   4.016   5.969   6.574  0.1119 -0.8341  0.0477
   21MOL    H25 5265   3.897   6.018   6.454  1.2785  0.9010 -0.1573
   21MOL    H26 5266   3.864   6.157   6.661  0.0801  0.4421 -1.8850
   21MOL    H27 5267   3.770   6.091   6.796 -0.3403  1.0670 -0.2915
   21MOL    C28 5268   3.655   6.109   6.612 -0.1411 -0.4717 -0.4290
   21MOL    C29 5269   3.539   6.035   6.674  0.0134  0.2490  0.5314
   21MOL    C30 5270   3.473   5.927   6.637  0.1289 -0.0445 -0.9425
   21MOL    C31 5271   3.491   5.853   6.503  0.6894 -0.8050  0.0181
   21MOL    C32 5272   3.381   5.850   6.731 -0.4801  0.5614 -0.4363
   21MOL    H33 5273   3.656   6.094   6.504 -1.4712  4.1253 -1.1954
   21MOL    H34 5274   3.620   6.212   6.625 -2.5567 -1.3630  0.3475
   21MOL    H35 5275   3.510   6.077   6.769 -3.0223 -0.7510  0.1116
   21MOL    H36 5276   3.444   5.912   6.425 -0.0943 -1.1350  0.2305
   21MOL    H37 5277   3.460   5.748   6.502 -1.1476 -0.2857  0.4748
   21MOL    H38 5278   3.597   5.851   6.477  0.5396  0.6924 -0.7183
   21MOL    H39 5279   3.379   5.746   6.698  0.0864  0.3475  0.1853
   21MOL    H40 5280   3.278   5.885   6.723 -0.9257 -0.6849 -0.1533
   21MOL    C41 5281   3.404   5.871   6.881 -0.1956  0.3496  0.2047
   21MOL    C42 5282   3.334   5.771   6.965 -0.7788 -0.4096  0.2665
   21MOL    C43 5283   3.373   5.646   6.985 -0.5059  0.4454 -0.3701
   21MOL    C44 5284   3.497   5.586   6.931 -0.4827 -0.0017  0.6498
   21MOL    C45 5285   3.289   5.547   7.065  0.0906 -0.3596 -0.2252
   21MOL    H46 5286   3.372   5.972   6.908  0.3084  0.2017  1.4110
   21MOL    H47 5287   3.508   5.867   6.912  0.0900 -0.2430 -0.8297
   21MOL    H48 5288   3.234   5.801   6.992 -0.1273  1.8863  0.2620
   21MOL    H49 5289   3.487   5.487   6.887 -3.1348 -0.3740  1.9824
   21MOL    H50 5290   3.573   5.582   7.008 -2.0463  0.4320  2.2575
   21MOL    H51 5291   3.530   5.642   6.843 -1.3600 -0.5200 -0.0260
   21MOL    H52 5292   3.227   5.604   7.134  2.3036  1.5797  0.2231
   21MOL    H53 5293   3.362   5.491   7.122  0.0940  0.1529  0.2769
   21MOL    C54 5294   3.207   5.450   6.979 -0.1085 -1.2300  0.1483
   21MOL    C55 5295   3.089   5.524   6.904 -0.2771 -0.5505  0.2444
   21MOL    C56 5296   3.094   5.547   6.772 -0.0506  0.4589 -0.2778
   21MOL    C57 5297   3.203   5.490   6.684  0.3418  0.0354  0.0121
   21MOL    C58 5298   2.975   5.606   6.696 -0.2859 -0.9780 -0.0652
   21MOL    H59 5299   3.149   5.381   7.041 -0.1891 -1.0214  0.3058
   21MOL    H60 5300   3.285   5.408   6.916 -0.1340 -0.2340 -0.5493
   21MOL    H61 5301   3.005   5.563   6.959 -0.1662 -0.7804  0.5784
   21MOL    H62 5302   3.167   5.438   6.595 -0.2320 -4.3095  2.7065
   21MOL    H63 5303   3.285   5.425   6.716  2.0555  1.7493 -0.7500
   21MOL    H64 5304   3.247   5.580   6.639 -0.8255  0.6320  0.0505
   21MOL    H65 5305   2.912   5.528   6.653  0.7351 -1.0549 -1.4945
   21MOL    H66 5306   3.025   5.662   6.616 -0.8397  1.8306  1.4820
   21MOL    C67 5307   2.874   5.691   6.767 -0.0279 -0.1811 -0.5781
   21MOL    C68 5308   2.937   5.804   6.852 -0.3859 -0.0173 -0.2109
   21MOL    C69 5309   2.905   5.849   6.971 -0.1049  0.0631 -0.1420
   21MOL    C70 5310   2.793   5.796   7.051 -0.1384  0.4999  0.6471
   21MOL    C71 5311   2.972   5.976   7.029  0.9398  0.2182  0.1147
   21MOL    H72 5312   2.816   5.632   6.837  0.3558  0.4964  0.3207
   21MOL    H73 5313   2.799   5.730   6.699 -0.4478 -0.3232 -0.2010
   21MOL    H74 5314   3.019   5.853   6.801 -0.7760  0.2790 -0.5590
   21MOL    H75 5315   2.767   5.850   7.142 -0.3001  1.2565  0.1547
   21MOL    H76 5316   2.798   5.688   7.067 -2.4026  0.4797  1.4108
   21MOL    H77 5317   2.712   5.816   6.981 -0.7750 -0.1541  1.1872
   21MOL    H78 5318   2.893   6.051   7.025  1.7396  1.0514 -0.1885
   21MOL    H79 5319   3.046   6.019   6.962 -0.0687 -0.4579 -1.4721
   21MOL    C80 5320   3.036   5.957   7.167 -1.1405  0.0046  0.2275
   21MOL    C81 5321   3.037   6.091   7.234 -0.2411  0.0402 -0.6262
   21MOL    C82 5322   2.955   6.141   7.333  0.4810 -0.1427  0.5050
   21MOL    C83 5323   2.833   6.062   7.384 -0.2781 -0.0792  0.5119
   21MOL    C84 5324   2.968   6.286   7.373 -0.1721  0.3535 -0.8330
   21MOL    H85 5325   3.140   5.933   7.143 -1.1373  0.7655 -0.5071
   21MOL    H86 5326   2.996   5.879   7.232 -0.1224  1.1116  2.2278
   21MOL    H87 5327   3.118   6.155   7.199  0.3635  0.3358  1.2510
   21MOL    H88 5328   2.828   5.966   7.333  0.9596  0.0576  0.1092
   21MOL    H89 5329   2.731   6.096   7.366 -0.4719 -0.5473  0.7118
   21MOL    H90 5330   2.839   6.044   7.492  0.8310 -0.6276  0.3648
   21MOL    H91 5331   2.874   6.334   7.343 -0.6117 -0.5260 -0.8655
   21MOL    H92 5332   3.047   6.332   7.314 -0.4476 -0.2261 -1.6617
   21MOL    C93 5333   2.989   6.304   7.521  0.1857 -0.4532  0.7036
   21MOL    C94 5334   3.015   6.449   7.552 -0.0861  0.4882  0.2155
   21MOL    C95 5335   2.931   6.536   7.608  0.4555  0.6962  0.2617
   21MOL    C96 5336   2.781   6.500   7.633 -0.4107  0.1066  0.1720
   21MOL    C97 5337   2.967   6.681   7.619  0.0228  0.4458 -0.0218
   21MOL    H98 5338   3.079   6.247   7.546  1.6242  1.1052 -0.8043
   21MOL    H99 5339   2.911   6.253   7.576 -0.0712 -1.6592 -0.7416
   21MOL   H100 5340   3.103   6.498   7.514 -0.1700  1.2012  0.9183
   21MOL   H101 5341   2.723   6.586   7.599  0.7725  1.4749  1.5817
   21MOL   H102 5342   2.768   6.487   7.740  2.3025  0.3658  0.5638
   21MOL   H103 5343   2.754   6.415   7.569  0.4887  0.5316 -0.7755
   21MOL   H104 5344   2.909   6.728   7.540 -0.4581 -0.4981 -0.2349
   21MOL   H105 5345   3.074   6.699   7.613 -0.0554  1.4125  1.1271
   21MOL   C106 5346   2.933   6.734   7.761 -0.0153  0.2659 -0.1248
   21MOL   C107 5347   2.982   6.874   7.783  0.2209  0.0765 -0.1949
   21MOL   C108 5348   3.097   6.913   7.841 -0.6870 -0.1728 -0.9483
   21MOL   C109 5349   3.205   6.815   7.877 -0.2317 -0.1806  0.1731
   21MOL   C110 5350   3.120   7.052   0.012  0.5556  0.5123  0.0931
   21MOL   H111 5351   2.961   6.658   7.834  1.6549  0.4442 -0.5640
   21MOL   H112 5352   2.825   6.731   7.775  0.0654  1.4643  0.8125
   21MOL   H113 5353   2.902   6.944   7.763 -0.1964 -0.0673  0.9074
   21MOL   H114 5354   3.214   6.798   0.102  1.7597 -2.5522 -0.3190
   21MOL   H115 5355   3.301   6.845   7.837 -0.5441  0.4428 -0.1183
   21MOL   H116 5356   3.195   6.715   7.834  2.3113  0.0218 -0.9448
   21MOL   H117 5357   3.225   7.076   0.000  0.6025  0.0162 -0.5078
   21MOL   H118 5358   3.100   7.058   0.119 -2.7675  0.5273 -0.4509
   21MOL   C119 5359   3.038   7.164   7.810 -0.7252 -0.6613 -1.1264
   21MOL   C120 5360   3.062   7.298   7.872 -0.0689  0.1886  0.5014
   21MOL   C121 5361   3.157   7.389   7.839 -0.4336  0.2315  0.8232
   21MOL   C122 5362   3.267   7.363   7.739 -0.8037 -0.4349  0.9494
   21MOL   C123 5363   3.156   7.524   0.019  0.6925  0.0710 -0.0537
   21MOL   H124 5364   2.929   7.162   7.819 -0.6910 -0.0328 -0.5142
   21MOL   H125 5365   3.063   7.148   7.705 -0.2396  0.8433 -1.2506
   21MOL   H126 5366   2.988   7.327   0.063  1.1191  4.9206  0.0356
   21MOL   H127 5367   3.257   7.411   7.642 -1.6718 -0.1943  1.1544
   21MOL   H128 5368   3.267   7.255   7.725  2.3239 -0.2387 -1.0590
   21MOL   H129 5369   3.359   7.391   7.789 -1.3170  0.8716  1.1690
   21MOL   H130 5370   3.056   7.551   0.054  0.5058 -1.3489  0.5273
   21MOL   H131 5371   3.180   7.604   7.831  0.8367  1.0869  1.1261
   21MOL   C132 5372   3.247   7.523   0.142 -0.1106  0.2056  0.0719
   21MOL   C133 5373   3.235   7.651   0.221  0.4234 -0.2464  1.0140
   21MOL   C134 5374   3.268   7.680   0.347  0.5835 -0.0820 -0.7928
   21MOL   C135 5375   3.313   7.583   0.452 -0.1839 -0.2073 -0.3106
   21MOL   C136 5376   3.268   7.825   0.398 -0.6352  0.4160  0.5857
   21MOL   H137 5377   3.351   7.505   0.112 -0.5752  0.0287 -1.4566
   21MOL   H138 5378   3.232   7.434   0.204  0.8857  0.4933  0.7502
   21MOL   H139 5379   3.195   7.730   0.159  0.6416 -0.5708  0.4594
   21MOL   H140 5380   3.416   7.601   0.484 -0.7340  1.2915  0.6472
   21MOL   H141 5381   3.315   7.482   0.409 -1.2595 -0.0356 -0.7841
   21MOL   H142 5382   3.257   7.577   0.545 -1.8978  1.9128 -1.1754
   21MOL   H143 5383   3.226   7.828   0.499  2.0663  1.7140  1.7414
   21MOL   H144 5384   3.207   7.864   0.317  1.4248 -1.5413 -2.0046
   21MOL   C145 5385   3.418   7.872   0.407 -0.5029 -0.1075 -0.2615
   21MOL   C146 5386   3.415   0.136   0.423  0.3531 -0.0677  0.4615
   21MOL   C147 5387   3.465   0.205   0.527  0.9760 -0.1175 -0.1584
   21MOL   C148 5388   3.523   0.142   0.648  0.9691  0.2269 -0.0738
   21MOL   C149 5389   3.430   0.360   0.539  0.8084  0.1883 -0.1403
   21MOL   H150 5390   3.462   7.856   0.308 -0.1273  1.3008 -0.3407
   21MOL   H151 5391   3.468   7.808   0.480 -1.3590 -0.8107 -0.2864
   21MOL   H152 5392   3.366   0.187   0.341 -1.3574  0.5200  1.8304
   21MOL   H153 5393   3.470   0.178   0.736  0.1360  1.6216 -1.1269
   21MOL   H154 5394   3.630   0.155   0.663  0.7993 -0.8010  2.1850
   21MOL   H155 5395   3.501   0.036   0.658  1.4584  0.3033  2.1572
   21MOL   H156 5396   3.426   0.390   0.434 -1.5789  1.8338  0.3926
   21MOL   H157 5397   3.521   0.406   0.578  0.8107 -0.0691  0.1650
   21MOL   C158 5398   3.291   0.397   0.587 -0.6309 -0.1923  0.1124
   21MOL   C159 5399   3.281   0.549   0.594 -0.1337  0.1622  0.3926
   21MOL   C160 5400   3.168   0.624   0.606  0.3144  0.5845  1.0600
   21MOL   C161 5401   3.027   0.553   0.624  0.0604 -0.1313  0.9185
   21MOL   C162 5402   3.166   0.773   0.626  0.1571  0.4967 -0.4155
   21MOL   H163 5403   3.284   0.351   0.686  1.3587 -0.8313 -0.0151
   21MOL   H164 5404   3.212   0.351   0.528 -0.9208  0.1747  0.2138
   21MOL   H165 5405   3.376   0.599   0.608  0.0907 -0.4658  1.1951
   21MOL   H166 5406   3.000   0.543   0.729  0.8305  0.9178  1.2306
   21MOL   H167 5407   3.026   0.450   0.590 -1.5514 -0.7047  2.6813
   21MOL   H168 5408   2.951   0.606   0.567 -0.0530 -0.0970  1.1027
   21MOL   H169 5409   3.267   0.801   0.656  0.4159  1.0356 -1.7314
   21MOL   H170 5410   3.105   0.787   0.714 -1.9851 -0.2290 -1.7434
   21MOL   C171 5411   3.103   0.848   0.504  0.2918  0.0703 -0.1545
   21MOL   C172 5412   3.171   0.978   0.469 -0.0499 -0.6930  0.6353
   21MOL   C173 5413   3.251   1.009   0.364 -0.5704  0.0685 -0.6868
   21MOL   C174 5414   3.283   0.909   0.254  0.1580 -0.2890  0.1196
   21MOL   C175 5415   3.326   1.141   0.343 -0.3238  0.3147 -0.6205
   21MOL   H176 5416   3.001   0.867   0.540 -0.0184 -2.0594  0.1293
   21MOL   H177 5417   3.098   0.790   0.413  1.5419  1.0449 -0.8463
   21MOL   H178 5418   3.148   1.057   0.540  1.3138  1.3632 -1.1470
   21MOL   H179 5419   3.205   0.902   0.179 -2.1843  3.7500  2.0308
   21MOL   H180 5420   3.305   0.812   0.300  1.2512 -0.7760 -1.3592
   21MOL   H181 5421   3.375   0.934   0.200 -1.0080  1.8996 -0.9001
   21MOL   H182 5422   3.432   1.118   0.351 -1.0405 -3.1948 -0.2341
   21MOL   H183 5423   3.313   1.209   0.427  2.2302 -1.0676  0.9415
   21MOL   C184 5424   3.289   1.212   0.210  0.2868  0.4289  0.0647
   21MOL   C185 5425   3.141   1.225   0.188 -1.0160  0.1086  0.4916
   21MOL   C186 5426   3.070   1.180   0.086  0.3371 -0.2000 -0.1140
   21MOL   C187 5427   3.119   1.089   7.857 -0.2372  0.4584 -0.2692
   21MOL   C188 5428   2.921   1.213   0.076  0.4126  0.1046  0.1679
   21MOL   H189 5429   3.335   1.151   0.132 -2.6157 -1.9000  0.0703
   21MOL   H190 5430   3.345   1.305   0.201  2.2592 -0.6925  0.3596
   21MOL   H191 5431   3.092   1.284   0.264  1.9223  1.7833  1.1854
   21MOL   H192 5432   3.137   1.149   7.768  0.0685  0.6837 -0.0557
   21MOL   H193 5433   3.052   1.006   7.833  0.6699 -0.2075 -0.5121
   21MOL   H194 5434   3.219   1.048   7.870 -0.6117 -0.3382  0.1254
   21MOL   H195 5435   2.876   1.233   0.173  0.4310 -1.6451  0.5615
   21MOL   H196 5436   2.881   1.116   0.045  2.8685 -1.1138  0.6734
   21MOL   C197 5437   2.872   1.325   7.866 -0.9120 -0.7164 -0.0819
   21MOL   C198 5438   2.712   1.330   7.861 -0.1034  0.3302 -0.1388
   21MOL   C199 5439   2.639   1.302   7.751  0.3727  0.0032 -0.1692
   21MOL   C200 5440   2.694   1.265   7.622  0.3291  0.1402  0.4780
   21MOL   C201 5441   2.488   1.297   7.755 -0.7193 -0.0062 -0.0930
   21MOL   H202 5442   2.923   1.311   7.771  2.5350  1.3648  1.3820
   21MOL   H203 5443   2.911   1.420   0.018 -0.5905 -0.9262  0.1322
   21MOL   H204 5444   2.662   1.338   0.073  0.9030 -0.3625  0.4670
   21MOL   H205 5445   2.628   1.298   7.542  0.9173  0.0284 -0.0636
   21MOL   H206 5446   2.729   1.162   7.628 -0.7905 -0.0639  4.1186
   21MOL   H207 5447   2.779   1.327   7.592  0.7390 -0.2810  0.7615
   21MOL   H208 5448   2.461   1.358   7.668  0.6387 -0.3930 -0.7977
   21MOL   H209 5449   2.454   1.353   7.842 -0.9390 -1.2270  0.6217
   21MOL   C210 5450   2.420   1.164   7.747 -0.2781 -0.1545  0.0542
   21MOL   C211 5451   2.266   1.169   7.730  0.2312  0.0927  0.0770
   21MOL   C212 5452   2.179   1.104   7.813  0.1457 -0.6299  0.4236
   21MOL   C213 5453   2.224   1.034   0.057 -0.6253  0.2714 -0.2137
   21MOL   C214 5454   2.034   1.102   7.781  1.0030 -0.3852 -0.4520
   21MOL   H215 5455   2.457   1.102   7.828 -0.1648  0.1862  0.2644
   21MOL   H216 5456   2.450   1.115   7.654 -0.7549 -0.1162 -0.1222
   21MOL   H217 5457   2.227   1.229   7.650  1.0584  1.7289  0.8677
   21MOL   H218 5458   2.214   1.106   0.138  1.4672  0.1395  0.2098
   21MOL   H219 5459   2.322   0.990   0.039 -0.9610 -0.4511 -0.2845
   21MOL   H220 5460   2.163   0.945   0.069  0.6533 -1.1238 -3.5236
   21MOL   H221 5461   2.009   0.996   7.786 -0.9190  0.0291 -0.6842
   21MOL   H222 5462   2.025   1.138   7.679  2.0286  3.2260  0.6506
   21MOL   C223 5463   1.942   1.182   7.875 -0.5378 -0.8519 -0.2454
   21MOL   C224 5464   1.800   1.163   7.846 -0.2136  0.3379  0.1065
   21MOL   C225 5465   1.695   1.201   0.035 -0.0644  0.9783 -0.3135
   21MOL   C226 5466   1.715   1.284   0.156  0.0448 -0.2247 -0.6538
   21MOL   C227 5467   1.555   1.179   7.868  1.0850 -0.3796  0.3339
   21MOL   H228 5468   1.963   1.288   7.859 -0.6688 -0.4885  1.7672
   21MOL   H229 5469   1.970   1.164   0.096 -2.7074  1.5197  0.8187
   21MOL   H230 5470   1.782   1.111   7.753  1.4452 -1.5233  0.7956
   21MOL   H231 5471   1.810   1.272   0.209 -1.5266  2.2394  2.9558
   21MOL   H232 5472   1.649   1.245   0.234  2.1044  0.7832  1.6492
   21MOL   H233 5473   1.704   1.392   0.146 -2.0392 -0.2829  0.7427
   21MOL   H234 5474   1.499   1.131   0.066  1.8630 -0.6038  0.7510
   21MOL   H235 5475   1.561   1.101   7.792  1.6766 -2.4358  2.4236
   21MOL   C236 5476   1.498   1.310   7.804  0.0951  1.2668 -0.0152
   21MOL   C237 5477   1.354   1.289   7.759  0.6865  0.0160 -0.0709
   21MOL   C238 5478   1.242   1.331   7.824  0.0508  1.0232 -0.0654
   21MOL   C239 5479   1.228   1.397   0.077 -0.1066 -0.0283  0.2519
   21MOL   C240 5480   1.112   1.285   7.764 -0.5568  0.1273  0.4828
   21MOL   H241 5481   1.569   1.350   7.731  1.4878 -0.1923  0.4984
   21MOL   H242 5482   1.506   1.386   7.881 -0.3657  0.0026  1.3129
   21MOL   H243 5483   1.343   1.228   7.670  0.0373 -0.2525  0.1912
   21MOL   H244 5484   1.185   1.494   0.053 -0.7159 -0.4062 -0.2148
   21MOL   H245 5485   1.322   1.409   0.130  1.6253  0.6874 -2.8700
   21MOL   H246 5486   1.151   1.349   0.137 -0.8971 -3.4527 -3.2878
   21MOL   H247 5487   1.070   1.237   7.853 -0.1494 -2.4770 -0.6720
   21MOL   H248 5488   1.123   1.201   7.695  1.2343  0.7234  0.0317
   21MOL   C249 5489   1.036   1.401   7.687 -0.3269 -0.1395  0.7158
   21MOL   C250 5490   0.903   1.350   7.639 -0.3538  0.3300 -0.3817
   21MOL   C251 5491   0.780   1.387   7.684 -0.1830 -0.5250  0.1586
   21MOL   C252 5492   0.749   1.492   7.796  0.1744  0.1227  0.3822
   21MOL   C253 5493   0.656   1.327   7.626  0.5752  0.6316  0.2773
   21MOL   H254 5494   1.088   1.435   7.597 -1.1817 -1.7441 -0.3942
   21MOL   H255 5495   1.013   1.492   7.744  1.8363 -1.7970  4.4046
   21MOL   H256 5496   0.899   1.276   7.560  1.4039 -1.2424  0.9478
   21MOL   H257 5497   0.671   1.455   7.862  1.8171 -1.0002  1.7317
   21MOL   H258 5498   0.708   1.580   7.746  1.0526 -1.2427 -2.8399
   21MOL   H259 5499   0.835   1.522   7.857  0.1285 -0.8975  0.9649
   21MOL   H260 5500   0.666   1.280   7.529  4.4829  1.7318  0.0650
   21MOL   H261 5501   0.579   1.401   7.606 -1.0364  0.1211  4.0638
   21MOL   H262 5502   0.623   1.245   7.690  1.0100 -0.4639 -0.8900
   22MOL     C1 5503   0.229   1.994   2.141  0.4720 -0.1920 -0.1036
   22MOL     C2 5504   0.086   1.937   2.134 -0.8133 -0.1126 -0.0519
   22MOL     C3 5505   7.874   1.971   2.041 -0.5778 -0.6721  0.1757
   22MOL     C4 5506   0.011   2.081   1.934 -0.4433  0.0784 -0.1920
   22MOL     C5 5507   7.738   1.898   2.041 -0.7960 -0.1827 -0.6422
   22MOL     H6 5508   0.252   1.989   2.248  0.2321  1.8195  0.0522
   22MOL     H7 5509   0.285   1.927   2.076 -2.3395 -1.1295 -1.6362
   22MOL     H8 5510   0.064   1.862   2.208  2.3828  0.0839  1.1874
   22MOL     H9 5511   0.013   2.037   1.835 -0.9353 -0.5620  0.0850
   22MOL    H10 5512   0.111   2.125   1.929 -0.3111 -0.3569 -1.3815
   22MOL    H11 5513   7.820   2.161   1.937 -1.7062 -1.1107  0.6387
   22MOL    H12 5514   7.677   1.981   2.075 -0.7710 -0.4743  0.1060
   22MOL    H13 5515   7.738   1.819   2.116 -2.2142 -0.8425 -1.3224
   22MOL    H14 5516   0.225   2.097   2.105  0.1260  0.1969  1.0315
   22MOL    C15 5517   7.702   1.843   1.904  0.0876  0.0959 -0.0369
   22MOL    C16 5518   7.586   1.750   1.907 -0.2913 -0.0662 -0.1455
   22MOL    C17 5519   7.577   1.638   1.830  0.2499  0.1776 -0.2940
   22MOL    C18 5520   7.683   1.612   1.727  0.0433  0.2346 -0.3171
   22MOL    C19 5521   7.480   1.528   1.842  0.6627 -0.6452  0.0180
   22MOL    H20 5522   7.790   1.790   1.869 -0.5209 -1.2002  0.3570
   22MOL    H21 5523   7.673   1.921   1.834 -3.8328  0.9440  2.3383
   22MOL    H22 5524   7.520   1.775   1.989  0.9889  1.6008  0.3968
   22MOL    H23 5525   7.648   1.554   1.642  0.6167  0.9758 -1.0722
   22MOL    H24 5526   7.764   1.563   1.782  0.4478 -0.5753 -1.6262
   22MOL    H25 5527   7.727   1.699   1.678  1.3186 -0.0189  0.3673
   22MOL    H26 5528   7.436   1.519   1.743  0.3911 -1.2186  0.1892
   22MOL    H27 5529   7.390   1.547   1.901  0.2708 -1.5819 -0.2706
   22MOL    C28 5530   7.532   1.389   1.870  0.3793  0.3396  0.2548
   22MOL    C29 5531   7.410   1.305   1.895 -0.5722  0.1013 -0.4579
   22MOL    C30 5532   7.396   1.206   1.989 -0.5206 -0.1811 -0.0182
   22MOL    C31 5533   7.509   1.166   2.086  0.2650 -0.9640  0.3830
   22MOL    C32 5534   7.260   1.145   2.030  0.4281  0.8020  0.2021
   22MOL    H33 5535   7.606   1.390   1.950  1.1359 -1.7665 -0.4076
   22MOL    H34 5536   7.585   1.347   1.785 -0.6223  0.3202 -0.3726
   22MOL    H35 5537   7.316   1.342   1.855 -2.1607 -2.8793  0.4108
   22MOL    H36 5538   7.482   1.204   2.185 -0.1117  1.1587 -0.5158
   22MOL    H37 5539   7.610   1.196   2.061 -0.0699 -0.6470 -0.6188
   22MOL    H38 5540   7.490   1.058   2.086 -0.7713 -0.8162 -1.8079
   22MOL    H39 5541   7.174   1.202   1.996  1.3219  1.2624 -1.3327
   22MOL    H40 5542   7.250   1.150   2.139 -0.4792  0.0507  0.1526
   22MOL    C41 5543   7.241   0.999   1.972  0.6735 -0.0410 -0.1795
   22MOL    C42 5544   7.135   0.925   2.047 -0.4443 -0.0206  0.3275
   22MOL    C43 5545   7.007   0.902   2.006  0.8259  0.2837 -0.7163
   22MOL    C44 5546   6.954   0.926   1.864  0.1559  0.5238 -0.0729
   22MOL    C45 5547   6.911   0.838   2.105 -1.3683  0.2058  0.3908
   22MOL    H46 5548   7.340   0.955   1.976 -0.0372 -1.5518  1.6324
   22MOL    H47 5549   7.228   1.012   1.865  0.5754  0.4856 -0.1086
   22MOL    H48 5550   7.157   0.911   2.151 -0.6435 -1.2703  0.1999
   22MOL    H49 5551   7.002   1.004   1.806  0.6945 -0.4296 -0.9133
   22MOL    H50 5552   6.849   0.953   1.863 -0.0098 -0.0911  0.3041
   22MOL    H51 5553   6.964   0.835   1.805 -0.3486 -0.3763  1.1865
   22MOL    H52 5554   6.814   0.887   2.107 -1.7565 -0.5364 -0.0668
   22MOL    H53 5555   6.944   0.851   2.208 -2.0370  1.8719  0.4068
   22MOL    C54 5556   6.895   0.683   2.091 -0.0548 -0.1943 -0.2427
   22MOL    C55 5557   7.026   0.615   2.118  0.3197 -0.0379  0.0057
   22MOL    C56 5558   7.060   0.530   2.218 -0.3313 -0.3301  0.3619
   22MOL    C57 5559   6.960   0.499   2.327  0.3552 -0.1537 -0.1298
   22MOL    C58 5560   7.193   0.461   2.227 -0.0488 -0.3658 -0.3234
   22MOL    H59 5561   6.858   0.664   1.990 -0.9982 -1.5273  0.3474
   22MOL    H60 5562   6.818   0.643   2.157  0.3406 -0.9357 -0.2212
   22MOL    H61 5563   7.104   0.634   2.046  0.9444  1.0748  0.9423
   22MOL    H62 5564   6.868   0.450   2.295 -0.1663  0.8495 -0.1780
   22MOL    H63 5565   6.945   0.585   2.393 -0.6190 -1.3435  1.2282
   22MOL    H64 5566   7.002   0.425   2.395 -0.7985  1.0434  1.9042
   22MOL    H65 5567   7.246   0.454   2.132  2.1632  0.6801  0.7974
   22MOL    H66 5568   7.159   0.358   2.242  2.4719 -1.6176 -2.8230
   22MOL    C67 5569   7.278   0.508   2.348  0.2193 -0.4359  0.0885
   22MOL    C68 5570   7.345   0.638   2.321  0.4601  0.4626 -0.4256
   22MOL    C69 5571   7.306   0.762   2.358 -0.5982  0.6870 -0.1857
   22MOL    C70 5572   7.192   0.788   2.453  0.3159  0.2301 -0.2150
   22MOL    C71 5573   7.391   0.883   2.316  0.4564 -0.1123  0.1924
   22MOL    H72 5574   7.350   0.429   2.371 -0.8987 -2.6472 -3.4961
   22MOL    H73 5575   7.214   0.514   2.436 -0.0131  1.9223 -0.2086
   22MOL    H74 5576   7.437   0.628   2.266 -0.6854 -3.4272 -1.8121
   22MOL    H75 5577   7.129   0.700   2.461  1.0396 -0.6923 -3.6519
   22MOL    H76 5578   7.128   0.862   2.407 -0.5178  0.7608  1.7624
   22MOL    H77 5579   7.222   0.812   2.555  1.7930 -1.3288 -0.2519
   22MOL    H78 5580   7.327   0.950   2.258  0.0098  0.4461  1.2948
   22MOL    H79 5581   7.476   0.854   2.254  1.1250 -1.7116  1.8242
   22MOL    C80 5582   7.449   0.972   2.431 -0.1244  0.2860  0.2166
   22MOL    C81 5583   7.552   0.898   2.510  0.4034 -0.1297  0.0485
   22MOL    C82 5584   7.577   0.907   2.643 -0.1303  0.1678  0.2593
   22MOL    C83 5585   7.513   1.006   2.740 -0.4464 -0.0579 -0.5028
   22MOL    C84 5586   7.672   0.805   2.711 -0.1682  0.6238 -0.0126
   22MOL    H85 5587   7.367   1.014   2.488  1.1364  0.2910  2.0654
   22MOL    H86 5588   7.499   1.062   2.394 -0.4836  0.6563  0.6235
   22MOL    H87 5589   7.608   0.816   2.468 -0.3658  0.4073 -2.1344
   22MOL    H88 5590   7.470   0.942   2.818 -0.0909  0.1302 -0.1457
   22MOL    H89 5591   7.439   1.061   2.683 -0.7308  0.1340  0.0467
   22MOL    H90 5592   7.587   1.072   2.785 -0.3276 -0.3656 -0.2393
   22MOL    H91 5593   7.742   0.869   2.764 -3.2203  1.2986  3.4118
   22MOL    H92 5594   7.727   0.757   2.630  0.6698 -0.2012  1.0489
   22MOL    C93 5595   7.603   0.701   2.793  0.7781  0.1659 -0.6173
   22MOL    C94 5596   7.673   0.569   2.799  0.1051 -0.0843  0.1399
   22MOL    C95 5597   7.651   0.465   2.712 -0.0703  0.4388 -0.2552
   22MOL    C96 5598   7.554   0.472   2.595  0.5277 -1.0705 -0.7600
   22MOL    C97 5599   7.738   0.333   2.723 -0.6262 -0.1189 -0.2297
   22MOL    H98 5600   7.498   0.689   2.765 -0.0948  1.7323  1.8269
   22MOL    H99 5601   7.600   0.731   2.897  0.7891  1.1133 -0.8849
   22MOL   H100 5602   7.755   0.560   2.868  1.0784  0.8395 -0.8757
   22MOL   H101 5603   7.461   0.524   2.617  0.5964 -1.2713  0.0051
   22MOL   H102 5604   7.533   0.374   2.551  0.1772 -2.2437  1.8993
   22MOL   H103 5605   7.610   0.535   2.526 -0.9513  2.0895  0.8282
   22MOL   H104 5606   7.665   0.257   2.749 -0.0334 -0.3622  0.7477
   22MOL   H105 5607   7.806   0.351   2.806 -2.1659  3.0874  0.4347
   22MOL   C106 5608   7.812   0.289   2.597  0.6635  0.2401 -0.1506
   22MOL   C107 5609   0.022   0.171   2.624  0.3952  0.2158  1.0280
   22MOL   C108 5610   0.107   0.116   2.528 -0.0873 -0.0397 -0.7545
   22MOL   C109 5611   0.131   0.185   2.395  0.8491 -0.1279 -0.0257
   22MOL   C110 5612   0.192   7.877   2.542 -0.1973 -0.0869 -0.0108
   22MOL   H111 5613   7.875   0.368   2.557  2.6904 -1.6442 -0.7645
   22MOL   H112 5614   7.742   0.278   2.514  0.8313 -1.7561 -0.0430
   22MOL   H113 5615   0.009   0.130   2.723  0.1230 -0.8746  0.5456
   22MOL   H114 5616   0.095   0.127   2.310  1.3381 -0.5497  0.0516
   22MOL   H115 5617   0.239   0.198   2.389  0.8607  0.3092  0.9808
   22MOL   H116 5618   0.083   0.282   2.379  1.2508  0.0899  0.0721
   22MOL   H117 5619   0.296   0.014   2.515 -0.1839  1.0588  0.8457
   22MOL   H118 5620   0.155   7.807   2.467 -0.9797 -0.0810  0.3766
   22MOL   C119 5621   0.189   7.796   2.682 -0.2425 -0.3319  0.2156
   22MOL   C120 5622   0.283   7.863   2.780 -0.1065 -0.6554 -0.4598
   22MOL   C121 5623   0.386   7.808   2.853  0.0996 -0.5795  0.1090
   22MOL   C122 5624   0.429   7.663   2.840 -0.8371  0.4692 -0.0622
   22MOL   C123 5625   0.467   0.015   2.943 -0.0825 -0.7609 -0.3168
   22MOL   H124 5626   0.221   7.696   2.655 -0.5593 -0.4320  0.2039
   22MOL   H125 5627   0.090   7.785   2.728 -2.2345  0.7247 -3.6095
   22MOL   H126 5628   0.281   0.088   2.793  0.7696 -0.7898  0.8391
   22MOL   H127 5629   0.360   7.601   2.784  1.1111 -1.6079 -0.2328
   22MOL   H128 5630   0.429   7.620   2.940 -2.4833 -0.2691 -0.3750
   22MOL   H129 5631   0.530   7.658   2.799 -1.3903  4.0212 -2.1094
   22MOL   H130 5632   0.497   7.844   3.033  0.1424  2.5042  1.6323
   22MOL   H131 5633   0.400   0.095   2.974  0.6338 -0.3831  0.2521
   22MOL   C132 5634   0.592   0.079   2.878  0.1186 -0.2769 -0.4899
   22MOL   C133 5635   0.568   0.125   2.733  0.5856  0.4032 -0.1754
   22MOL   C134 5636   0.557   0.253   2.691 -0.1081  0.4854 -0.8746
   22MOL   C135 5637   0.567   0.384   2.779 -0.1768 -0.1719  0.3901
   22MOL   C136 5638   0.545   0.287   2.541 -0.0748  0.0148  0.6055
   22MOL   H137 5639   0.677   0.011   2.873  1.4209  1.2020  0.9347
   22MOL   H138 5640   0.630   0.161   2.938  0.1840  1.5038 -2.8999
   22MOL   H139 5641   0.562   0.043   2.664 -1.7820 -0.1482  0.6555
   22MOL   H140 5642   0.655   0.443   2.753  1.1128 -2.4562 -0.5404
   22MOL   H141 5643   0.576   0.361   2.885  0.8086 -0.8880  0.1640
   22MOL   H142 5644   0.480   0.447   2.762  0.8237  1.8143  2.3647
   22MOL   H143 5645   0.473   0.369   2.535 -1.4495 -1.2666 -0.9521
   22MOL   H144 5646   0.498   0.210   2.480 -0.1700 -0.7207  1.5999
   22MOL   C145 5647   0.684   0.313   2.483  0.1149  0.6895 -0.2912
   22MOL   C146 5648   0.668   0.360   2.336 -0.9502  0.1968  0.2448
   22MOL   C147 5649   0.766   0.393   2.251  0.0436  0.4536 -0.0935
   22MOL   C148 5650   0.907   0.397   2.297  0.1789 -0.6852 -0.4594
   22MOL   C149 5651   0.732   0.429   2.107  0.1933  0.6214 -0.5653
   22MOL   H150 5652   0.729   0.215   2.491 -3.6518 -1.2296 -1.5172
   22MOL   H151 5653   0.736   0.385   2.547  1.5232  0.4532 -1.1699
   22MOL   H152 5654   0.569   0.348   2.294 -0.6361 -3.1193  0.3071
   22MOL   H153 5655   0.946   0.302   2.260  1.8139 -0.2276  0.0573
   22MOL   H154 5656   0.930   0.398   2.403 -1.1477  0.7980 -0.1719
   22MOL   H155 5657   0.962   0.476   2.246 -0.3891 -0.2340 -0.3831
   22MOL   H156 5658   0.636   0.384   2.082 -0.5879  1.6667  0.5227
   22MOL   H157 5659   0.811   0.392   2.042  0.7372  2.7051 -1.1230
   22MOL   C158 5660   0.727   0.578   2.094 -0.1130  0.1924 -0.2748
   22MOL   C159 5661   0.683   0.633   1.964 -0.4960  0.3659 -0.3645
   22MOL   C160 5662   0.754   0.651   1.853 -0.0639 -0.0581 -0.3579
   22MOL   C161 5663   0.897   0.626   1.845 -0.6531 -0.9045 -0.6098
   22MOL   C162 5664   0.684   0.698   1.724  0.2626 -0.5520 -0.5027
   22MOL   H163 5665   0.817   0.616   2.143 -0.6995 -0.3649  1.2514
   22MOL   H164 5666   0.650   0.614   2.163 -0.6660  0.3264 -0.9534
   22MOL   H165 5667   0.576   0.652   1.962 -0.1036  2.6633 -0.6508
   22MOL   H166 5668   0.930   0.559   1.765 -2.7173 -1.3878 -1.0719
   22MOL   H167 5669   0.947   0.590   1.935  2.4896  4.0555 -0.1683
   22MOL   H168 5670   0.946   0.721   1.824 -2.0578  0.1234  0.6925
   22MOL   H169 5671   0.713   0.802   1.710 -0.8479 -0.3512 -1.3622
   22MOL   H170 5672   0.575   0.695   1.735  0.0342 -0.1665 -2.5081
   22MOL   C171 5673   0.721   0.620   1.602 -0.7419  0.1076  1.2137
   22MOL   C172 5674   0.632   0.642   1.484 -0.1388  0.9019  0.4646
   22MOL   C173 5675   0.600   0.561   1.380 -0.2646 -0.0291 -0.4655
   22MOL   C174 5676   0.665   0.427   1.363 -0.1495 -0.3460 -0.0730
   22MOL   C175 5677   0.519   0.622   1.269 -0.0806  0.3277  0.1421
   22MOL   H176 5678   0.726   0.513   1.620 -0.5744 -0.4555 -1.9459
   22MOL   H177 5679   0.824   0.638   1.572 -0.6606  1.7475  2.4228
   22MOL   H178 5680   0.595   0.744   1.482 -1.8013  0.3359  1.1692
   22MOL   H179 5681   0.596   0.363   1.309 -0.4700  0.5832 -0.7773
   22MOL   H180 5682   0.698   0.377   1.454 -0.7041 -0.1055  0.2685
   22MOL   H181 5683   0.749   0.444   1.296  1.2010  0.9908  1.8775
   22MOL   H182 5684   0.500   0.729   1.280 -0.8562  0.5273 -2.5581
   22MOL   H183 5685   0.425   0.568   1.263  0.6357 -1.0946  1.4044
   22MOL   C184 5686   0.595   0.610   1.140 -0.3041  0.4968  0.2017
   22MOL   C185 5687   0.539   0.706   1.031 -0.0417  0.6376  0.0596
   22MOL   C186 5688   0.477   0.667   0.921 -0.1073  0.2270  0.1376
   22MOL   C187 5689   0.467   0.527   0.873 -0.4768  0.2118 -0.5784
   22MOL   C188 5690   0.437   0.771   0.819  0.1881  0.0593  0.0362
   22MOL   H189 5691   0.599   0.505   1.113 -4.0571  0.3190  0.0628
   22MOL   H190 5692   0.698   0.647   1.145 -0.4014  0.8766 -0.5983
   22MOL   H191 5693   0.560   0.810   1.047 -2.7925  1.7498 -3.0074
   22MOL   H192 5694   0.382   0.512   0.806 -0.0101 -0.9869 -0.9153
   22MOL   H193 5695   0.463   0.449   0.949  0.1568 -0.3945 -1.1661
   22MOL   H194 5696   0.558   0.518   0.814 -0.6455 -0.9485 -0.6739
   22MOL   H195 5697   0.487   0.739   0.727  3.2349  2.0545  0.9438
   22MOL   H196 5698   0.473   0.873   0.829 -0.8802  0.5964 -1.3895
   22MOL   C197 5699   0.284   0.769   0.803  0.4306 -0.1059  0.2322
   22MOL   C198 5700   0.240   0.870   0.699 -0.0058  0.4588  0.7515
   22MOL   C199 5701   0.107   0.892   0.671  0.1017 -0.0767 -0.3453
   22MOL   C200 5702   7.879   0.819   0.747 -0.1710  0.4612  0.5141
   22MOL   C201 5703   0.055   1.003   0.574  0.1915  0.7007 -0.1308
   22MOL   H202 5704   0.248   0.808   0.899 -0.0001 -2.1693  0.9488
   22MOL   H203 5705   0.238   0.672   0.782 -2.3996  1.2461  0.0290
   22MOL   H204 5706   0.317   0.927   0.649 -1.3778  0.3295 -1.6022
   22MOL   H205 5707   7.830   0.865   0.833 -0.9178 -3.6793  2.4042
   22MOL   H206 5708   0.033   0.721   0.779 -0.2939 -0.2340 -1.4325
   22MOL   H207 5709   7.801   0.795   0.676 -1.4151  1.3627  1.5451
   22MOL   H208 5710   7.863   0.955   0.510  1.4999 -0.3662 -0.8813
   22MOL   H209 5711   0.131   1.027   0.500 -0.7076  1.6709 -0.7551
   22MOL   C210 5712   0.004   1.128   0.636  0.2184  0.4237 -0.1135
   22MOL   C211 5713   7.833   1.235   0.543  0.5751 -0.3078  0.1467
   22MOL   C212 5714   7.724   1.232   0.468  0.6642 -0.5357  0.1450
   22MOL   C213 5715   7.634   1.109   0.451 -0.2813 -0.2791  0.9629
   22MOL   C214 5716   7.683   1.357   0.392 -0.3498 -0.2667  0.4326
   22MOL   H215 5717   0.085   1.167   0.697  0.7459  1.8779 -1.6843
   22MOL   H216 5718   7.806   1.095   0.702  0.9524  1.9965  1.6354
   22MOL   H217 5719   0.018   1.320   0.546  0.7309 -0.3421 -2.0868
   22MOL   H218 5720   7.639   1.046   0.362  0.6773  1.4522 -0.2336
   22MOL   H219 5721   7.533   1.142   0.473 -0.9503 -1.3351 -0.5009
   22MOL   H220 5722   7.659   1.035   0.527  0.1765 -3.4336 -2.1672
   22MOL   H221 5723   7.739   1.443   0.427 -2.3165  1.0735  0.3624
   22MOL   H222 5724   7.577   1.368   0.416  0.1826  1.1430  2.1825
   22MOL   C223 5725   7.703   1.338   0.243  0.0608 -0.3760  0.6176
   22MOL   C224 5726   7.661   1.462   0.159  0.3319 -0.4597  0.2864
   22MOL   C225 5727   7.588   1.460   0.046 -0.3020  0.3259  0.0760
   22MOL   C226 5728   7.561   1.331   7.841 -0.4806 -0.0634  0.2688
   22MOL   C227 5729   7.544   1.594   7.869 -0.2140  0.2098  0.3578
   22MOL   H228 5730   7.631   1.266   0.204 -1.4479  1.8668 -0.8788
   22MOL   H229 5731   7.808   1.311   0.227  0.0210  0.9880 -2.1033
   22MOL   H230 5732   7.696   1.557   0.196  1.1014 -0.9681  0.8737
   22MOL   H231 5733   7.567   1.359   7.736  1.4885 -0.6269  0.2047
   22MOL   H232 5734   7.459   1.309   7.870 -0.8905  1.0753 -0.2634
   22MOL   H233 5735   7.623   1.247   7.872 -0.0213  1.0286  2.4863
   22MOL   H234 5736   7.572   1.588   7.764 -1.5528 -1.6735  0.0890
   22MOL   H235 5737   7.613   1.670   0.022  0.1417  0.0888 -0.0746
   22MOL   C236 5738   7.392   1.612   7.880 -0.0480 -0.0167 -0.4185
   22MOL   C237 5739   7.323   1.731   7.810 -1.0531  0.1334 -0.0752
   22MOL   C238 5740   7.314   1.859   7.857  0.0337  0.2878  0.3253
   22MOL   C239 5741   7.381   1.904   0.106  0.8902  0.3038  0.3369
   22MOL   C240 5742   7.225   1.961   7.792  0.0486  0.4149 -0.2199
   22MOL   H241 5743   7.359   1.606   0.101  0.8114  0.1292 -0.1275
   22MOL   H242 5744   7.336   1.533   7.831 -0.9976 -0.6720  1.6641
   22MOL   H243 5745   7.256   1.703   7.730 -1.9849 -0.8809  1.0336
   22MOL   H244 5746   7.463   1.843   0.143  1.3124  1.1905  0.8619
   22MOL   H245 5747   7.306   1.898   0.185  0.8752 -0.4244  0.2676
   22MOL   H246 5748   7.437   1.996   0.088 -1.1728  1.0684 -2.7562
   22MOL   H247 5749   7.284   2.052   7.781  1.5157 -0.6033 -0.7819
   22MOL   H248 5750   7.139   1.988   7.853 -0.7371  0.5053 -1.3523
   22MOL   C249 5751   7.166   1.925   7.654 -0.3486  0.1696 -0.1259
   22MOL   C250 5752   7.066   2.024   7.595  0.2594 -0.7857  0.7980
   22MOL   C251 5753   7.092   2.128   7.511 -0.0315  0.6691  0.2794
   22MOL   C252 5754   7.234   2.157   7.474  0.2185  0.2229  0.4217
   22MOL   C253 5755   6.985   2.225   7.463  0.2986  0.1519 -0.0880
   22MOL   H254 5756   7.099   1.839   7.654  0.0993 -0.1883 -1.4121
   22MOL   H255 5757   7.245   1.901   7.583 -0.3479  0.4418 -0.2183
   22MOL   H256 5758   6.964   2.014   7.629  0.5112 -1.0115  1.4933
   22MOL   H257 5759   7.307   2.084   7.508 -2.4691 -1.7012  2.1238
   22MOL   H258 5760   7.279   2.249   7.512  3.4182 -0.6818 -0.9799
   22MOL   H259 5761   7.250   2.168   7.366 -0.6826  2.1666  0.4632
   22MOL   H260 5762   6.971   2.295   7.545 -1.3715 -0.2575 -0.0057
   22MOL   H261 5763   6.892   2.173   7.439 -0.4796 -0.0083  2.9844
   22MOL   H262 5764   7.014   2.274   7.371  1.2350  0.0935  0.1714
   23MOL     C1 5765   6.549   6.191   3.525  0.3827  0.0294  0.3222
   23MOL     C2 5766   6.482   6.325   3.531  1.0510 -0.7785  0.0912
   23MOL     C3 5767   6.464   6.391   3.646 -0.5334 -0.2551  0.0510
   23MOL     C4 5768   6.499   6.328   3.784 -0.0612 -0.0615 -0.5292
   23MOL     C5 5769   6.403   6.528   3.662  0.5171  0.0620 -0.1343
   23MOL     H6 5770   6.657   6.193   3.536  0.8617  5.0003 -3.1902
   23MOL     H7 5771   6.497   6.126   3.594  1.6830 -2.9619 -1.3983
   23MOL     H8 5772   6.450   6.367   3.436 -1.5742  1.2242  1.7927
   23MOL     H9 5773   6.406   6.276   3.810  0.7857 -1.2871  0.0860
   23MOL    H10 5774   6.531   6.404   3.855  2.4917 -1.4118 -0.1707
   23MOL    H11 5775   6.582   6.261   3.763 -1.3150 -2.2751  1.3103
   23MOL    H12 5776   6.330   6.500   3.738 -0.5283  1.3450 -0.6479
   23MOL    H13 5777   6.360   6.553   3.565  1.1126  1.2015 -0.1003
   23MOL    H14 5778   6.522   6.162   3.423  0.2137  2.0274 -0.2318
   23MOL    C15 5779   6.496   6.637   3.700  0.3301 -0.2799  0.0370
   23MOL    C16 5780   6.415   6.767   3.684  0.2308  0.1065  0.0512
   23MOL    C17 5781   6.387   6.864   3.774 -0.2196  0.1084 -0.3804
   23MOL    C18 5782   6.434   6.869   3.921  0.6007 -0.3876  0.0847
   23MOL    C19 5783   6.309   6.981   3.727 -0.2592 -0.5312  0.7582
   23MOL    H20 5784   6.582   6.636   3.634 -1.1728  2.2364 -2.0669
   23MOL    H21 5785   6.528   6.628   3.804  1.4972  1.8174 -0.1115
   23MOL    H22 5786   6.379   6.780   3.583 -1.2759 -2.3043  0.2385
   23MOL    H23 5787   6.476   6.777   3.961  1.5812 -0.8668 -2.0186
   23MOL    H24 5788   6.359   6.905   3.991  1.1281  1.2885 -0.1889
   23MOL    H25 5789   6.508   6.949   3.930  0.0423  0.3616 -1.8531
   23MOL    H26 5790   6.208   6.987   3.766 -1.0179 -0.0969 -1.1892
   23MOL    H27 5791   6.308   6.976   3.618  2.7774 -0.5511  0.6896
   23MOL    C28 5792   6.388   7.114   3.749  1.0028  0.5787 -0.2762
   23MOL    C29 5793   6.317   7.239   3.695  0.6070  0.1772  0.7391
   23MOL    C30 5794   6.239   7.319   3.765  0.1849  0.5328 -0.3468
   23MOL    C31 5795   6.212   7.308   3.914 -0.2768 -0.4633  0.2471
   23MOL    C32 5796   6.167   7.434   3.696  0.1602  0.8008 -0.1674
   23MOL    H33 5797   6.481   7.106   3.694  0.8480  0.1307 -0.4711
   23MOL    H34 5798   6.414   7.129   3.854 -0.8997 -0.4620  0.3785
   23MOL    H35 5799   6.332   7.259   3.590  1.7201 -0.1548  0.8305
   23MOL    H36 5800   6.108   7.280   3.930 -1.6932  3.1281 -2.0865
   23MOL    H37 5801   6.231   7.405   3.959 -0.1192 -1.1114  1.5977
   23MOL    H38 5802   6.280   7.237   3.961 -1.8795 -2.3419 -0.1703
   23MOL    H39 5803   6.204   7.445   3.594  1.0540 -0.2745  0.0243
   23MOL    H40 5804   6.208   7.526   3.738 -0.2275  1.2363 -0.7447
   23MOL    C41 5805   6.013   7.446   3.704  0.8526  0.4382 -0.6901
   23MOL    C42 5806   5.960   7.566   3.637 -0.2445  0.3112  0.0443
   23MOL    C43 5807   5.867   7.656   3.675  0.4858  0.1956  0.5367
   23MOL    C44 5808   5.766   7.640   3.791  0.9151 -0.7292 -0.4721
   23MOL    C45 5809   5.858   7.790   3.601  0.0135 -0.1248  0.1112
   23MOL    H46 5810   5.997   7.454   3.811  1.2908  0.9448 -0.6582
   23MOL    H47 5811   5.958   7.363   3.660  2.8400 -1.9869  1.2541
   23MOL    H48 5812   6.017   7.586   3.547  2.8532  0.0310  1.8924
   23MOL    H49 5813   5.664   7.647   3.753  0.4057 -0.0031  1.0065
   23MOL    H50 5814   5.778   7.698   3.882  0.6397 -0.3728 -0.6621
   23MOL    H51 5815   5.764   7.536   3.824 -1.0058 -0.7583 -0.6069
   23MOL    H52 5816   5.934   7.786   3.524 -0.9298 -1.8155 -0.7793
   23MOL    H53 5817   5.873   7.879   3.661  0.5941 -2.1797  3.1356
   23MOL    C54 5818   5.726   7.803   3.522 -0.4123 -0.8526 -0.0347
   23MOL    C55 5819   5.734   0.041   3.425  0.9663  0.1856 -0.0317
   23MOL    C56 5820   5.760   0.033   3.294 -0.6247  0.4469 -0.0227
   23MOL    C57 5821   5.785   7.779   3.217  0.0506 -0.5251 -0.9483
   23MOL    C58 5822   5.763   0.156   3.208 -0.3004 -0.1451  0.1595
   23MOL    H59 5823   5.640   7.807   3.589  1.4940 -1.7933  2.5767
   23MOL    H60 5824   5.710   7.710   3.466 -0.7647 -1.2686  0.7431
   23MOL    H61 5825   5.734   0.133   3.482  1.1003 -1.6192  2.9512
   23MOL    H62 5826   5.890   7.750   3.215  0.2794  0.0975  1.2411
   23MOL    H63 5827   5.758   7.783   3.111 -0.3076 -1.3803 -0.8936
   23MOL    H64 5828   5.731   7.693   3.256  0.3301 -0.0879  0.4331
   23MOL    H65 5829   5.869   0.172   3.192 -0.3766 -0.0149 -0.2155
   23MOL    H66 5830   5.721   0.235   3.272  3.6633  0.1896  2.5156
   23MOL    C67 5831   5.675   0.156   3.082 -0.6505  0.4549 -0.5282
   23MOL    C68 5832   5.639   0.301   3.045  0.1090  0.1786  0.1368
   23MOL    C69 5833   5.530   0.372   3.074 -0.1420  0.0443 -0.7521
   23MOL    C70 5834   5.412   0.324   3.149 -0.1528  1.4044 -0.3588
   23MOL    C71 5835   5.514   0.512   3.011  0.1204 -0.3012  0.2653
   23MOL    H72 5836   5.584   0.097   3.094 -0.2268 -0.2522 -0.7648
   23MOL    H73 5837   5.727   0.111   2.998  0.0455 -0.8169  0.5710
   23MOL    H74 5838   5.714   0.355   2.989 -0.7657  0.5284 -0.7235
   23MOL    H75 5839   5.423   0.227   3.196 -1.4196  1.7512  0.6808
   23MOL    H76 5840   5.322   0.325   3.087 -0.3090  0.6723 -0.1464
   23MOL    H77 5841   5.388   0.398   3.226  2.1549 -1.0977  2.8499
   23MOL    H78 5842   5.610   0.556   2.982  0.2352 -0.2212  0.7585
   23MOL    H79 5843   5.471   0.587   3.077 -1.5899 -0.7695 -0.2962
   23MOL    C80 5844   5.427   0.503   2.882 -0.3070  0.6466 -0.0083
   23MOL    C81 5845   5.389   0.645   2.835  0.0046  1.0530 -0.4139
   23MOL    C82 5846   5.286   0.672   2.752  0.8759  0.0357 -0.0693
   23MOL    C83 5847   5.187   0.557   2.703 -0.6724 -1.1081 -0.8246
   23MOL    C84 5848   5.236   0.815   2.713  0.1264  0.1147  0.5629
   23MOL    H85 5849   5.335   0.445   2.890  0.2870 -0.3652 -0.3746
   23MOL    H86 5850   5.480   0.450   2.803  1.6503  0.1235  1.5919
   23MOL    H87 5851   5.439   0.728   2.882  1.3137 -0.0927  0.2260
   23MOL    H88 5852   5.116   0.536   2.783 -0.3413 -1.4981 -0.6302
   23MOL    H89 5853   5.247   0.472   2.671  0.5537 -0.8077  0.6051
   23MOL    H90 5854   5.126   0.589   2.619 -1.1783  0.3311  0.0648
   23MOL    H91 5855   5.290   0.897   2.760  0.4828 -0.4222  1.1113
   23MOL    H92 5856   5.134   0.823   2.751  0.7327 -2.7439  2.9935
   23MOL    C93 5857   5.233   0.840   2.567 -0.3790 -0.7251 -0.1050
   23MOL    C94 5858   5.204   0.986   2.536  0.1213 -0.7186  0.1262
   23MOL    C95 5859   5.094   1.039   2.490  0.1583 -0.0804 -0.1582
   23MOL    C96 5860   4.972   0.953   2.457 -0.6551  0.0002  0.3503
   23MOL    C97 5861   5.064   1.188   2.461  0.7064 -0.0755 -0.4260
   23MOL    H98 5862   5.167   0.780   2.504 -1.7377 -0.6981  1.2751
   23MOL    H99 5863   5.331   0.819   2.524 -0.0023  0.7573  0.0311
   23MOL   H100 5864   5.286   1.053   2.556 -1.1673  0.4787  1.5314
   23MOL   H101 5865   4.982   0.844   2.457  0.2754 -0.0461 -4.5372
   23MOL   H102 5866   4.956   0.970   2.350 -1.2353 -1.0713  0.2542
   23MOL   H103 5867   4.891   0.990   2.519 -0.2922  1.1849  0.1268
   23MOL   H104 5868   5.005   1.230   2.543  1.7950 -0.1435  0.3972
   23MOL   H105 5869   5.018   1.199   2.362 -0.8479  1.7570  0.4626
   23MOL   C106 5870   5.187   1.280   2.453 -0.3066 -0.3027  1.4963
   23MOL   C107 5871   5.161   1.427   2.438 -0.1346  0.6949  0.2842
   23MOL   C108 5872   5.133   1.486   2.321 -0.2490  0.1610 -0.1227
   23MOL   C109 5873   5.150   1.405   2.191  0.0783  0.1036 -0.2842
   23MOL   C110 5874   5.089   1.626   2.309  0.1989  0.5286 -0.2693
   23MOL   H111 5875   5.249   1.245   2.371 -2.6425 -2.4642  0.6104
   23MOL   H112 5876   5.244   1.266   2.545  0.7704 -0.1949  0.8561
   23MOL   H113 5877   5.147   1.477   2.533 -1.4465  0.7076  0.0962
   23MOL   H114 5878   5.251   1.369   2.176  0.4280  0.5407  0.9345
   23MOL   H115 5879   5.127   1.472   2.108  1.1943 -0.7691 -1.2940
   23MOL   H116 5880   5.077   1.324   2.194 -0.8380  0.9289  0.1209
   23MOL   H117 5881   5.067   1.670   2.407 -2.9978 -2.1106  0.2991
   23MOL   H118 5882   4.992   1.613   2.261  0.2712 -0.3222 -0.1881
   23MOL   C119 5883   5.176   1.715   2.230  0.2646 -0.0709 -0.2648
   23MOL   C120 5884   5.126   1.859   2.223  0.4901  0.5515  1.2820
   23MOL   C121 5885   5.036   1.908   2.140  0.4189 -0.0502  0.0924
   23MOL   C122 5886   4.972   1.831   2.026 -0.6382 -0.3221 -0.1131
   23MOL   C123 5887   4.978   2.048   2.159  0.2491 -0.1339  0.1876
   23MOL   H124 5888   5.189   1.671   2.131  1.1491  1.3590 -0.8030
   23MOL   H125 5889   5.268   1.712   2.287  0.3645  0.6444 -0.3788
   23MOL   H126 5890   5.146   1.917   2.311  2.3993  1.7328  0.0969
   23MOL   H127 5891   4.987   1.724   2.026 -0.3914 -0.2882 -0.2582
   23MOL   H128 5892   4.999   1.859   1.924 -0.2339 -1.2765 -0.2630
   23MOL   H129 5893   4.864   1.843   2.011 -0.5642 -1.2641 -1.4216
   23MOL   H130 5894   4.980   2.112   2.071 -0.0004  0.8967  0.9154
   23MOL   H131 5895   5.044   2.101   2.227 -0.0078  2.3279 -1.4453
   23MOL   C132 5896   4.848   2.060   2.239  0.2673 -0.9049  0.3630
   23MOL   C133 5897   4.787   2.202   2.229  0.0834  0.1096 -0.0385
   23MOL   C134 5898   4.706   2.249   2.326  0.3755 -0.6197  0.0900
   23MOL   C135 5899   4.697   2.191   2.465  0.3299 -0.2780  0.2574
   23MOL   C136 5900   4.623   2.382   2.305 -0.3640 -0.5058  0.2139
   23MOL   H137 5901   4.865   2.022   2.340  0.2504 -1.2445  0.2365
   23MOL   H138 5902   4.782   1.982   2.201  0.1739  0.1229 -1.6436
   23MOL   H139 5903   4.777   2.254   2.135 -0.5051  1.2772  0.6630
   23MOL   H140 5904   4.625   2.240   2.531  0.3143  0.4079 -0.2592
   23MOL   H141 5905   4.793   2.226   2.503  0.9941 -1.9883  0.1754
   23MOL   H142 5906   4.687   2.083   2.475 -0.5505 -0.2424 -0.1858
   23MOL   H143 5907   4.690   2.467   2.314 -0.2298 -0.5666 -0.2145
   23MOL   H144 5908   4.559   2.378   2.393 -1.2462  1.3854 -0.2921
   23MOL   C145 5909   4.529   2.386   2.181 -0.1121 -0.1237  0.2935
   23MOL   C146 5910   4.402   2.462   2.219 -0.1286 -0.0655 -0.0943
   23MOL   C147 5911   4.397   2.596   2.238  0.2709 -0.0283  0.1348
   23MOL   C148 5912   4.511   2.696   2.217  0.6590  1.1226 -0.1042
   23MOL   C149 5913   4.276   2.675   2.281 -0.1282  0.3725 -0.6454
   23MOL   H150 5914   4.492   2.290   2.144  1.9277  0.1258 -2.5830
   23MOL   H151 5915   4.569   2.435   2.093 -0.4495 -1.7308 -0.7735
   23MOL   H152 5916   4.317   2.395   2.222  3.1255 -4.4251 -0.7545
   23MOL   H153 5917   4.612   2.655   2.211  0.4380  0.5385  0.0944
   23MOL   H154 5918   4.517   2.772   2.294 -1.4353  0.0458  1.1355
   23MOL   H155 5919   4.491   2.758   2.129  2.4545  2.6867  0.5473
   23MOL   H156 5920   4.177   2.632   2.266  0.1316 -1.2173  1.9545
   23MOL   H157 5921   4.278   2.771   2.230  0.6408  0.7155  0.0269
   23MOL   C158 5922   4.272   2.701   2.429 -0.3927  0.1621 -0.9770
   23MOL   C159 5923   4.175   2.817   2.466  0.6765  0.8033  0.1725
   23MOL   C160 5924   4.195   2.930   2.542 -0.1617 -0.8288  0.2152
   23MOL   C161 5925   4.323   2.967   2.609 -0.2035  0.0915 -0.4238
   23MOL   C162 5926   4.088   3.032   2.564 -0.1089  0.2342 -0.2328
   23MOL   H163 5927   4.369   2.737   2.463 -0.1351  0.6791 -2.2294
   23MOL   H164 5928   4.246   2.611   2.486  1.6450 -0.4288 -0.9530
   23MOL   H165 5929   4.077   2.810   2.420  0.8815 -3.0090  0.1119
   23MOL   H166 5930   4.379   3.037   2.547 -0.0271  1.2080  0.9766
   23MOL   H167 5931   4.390   2.888   2.643 -0.6655  0.2533  0.9109
   23MOL   H168 5932   4.295   3.010   2.706  0.4917  1.7606 -0.9482
   23MOL   H169 5933   4.081   3.033   2.673  2.4125 -1.5614 -0.0112
   23MOL   H170 5934   3.990   2.999   2.528 -0.8448  1.3625  0.6813
   23MOL   C171 5935   4.108   3.177   2.518 -0.1637 -0.2705 -0.0533
   23MOL   C172 5936   3.990   3.262   2.564  0.7082  0.0552  0.0905
   23MOL   C173 5937   3.913   3.329   2.479  0.1064  0.1361  0.7945
   23MOL   C174 5938   3.937   3.349   2.328  0.5921  0.3856 -0.2800
   23MOL   C175 5939   3.797   3.416   2.539  0.4825 -0.4005 -0.1034
   23MOL   H176 5940   4.120   3.171   2.410 -0.8040 -2.0955 -0.0554
   23MOL   H177 5941   4.200   3.212   2.566 -0.8800  3.8473 -1.5168
   23MOL   H178 5942   3.958   3.265   2.667 -0.5478 -0.1689 -0.2755
   23MOL   H179 5943   3.977   3.260   2.280 -0.2649  0.4682 -1.1646
   23MOL   H180 5944   4.014   3.424   2.313  0.5682  0.5274  0.2890
   23MOL   H181 5945   3.842   3.385   2.287 -0.4560 -1.5367  0.3714
   23MOL   H182 5946   3.770   3.379   2.638  0.0437 -0.5935 -0.2922
   23MOL   H183 5947   3.704   3.410   2.482  0.0620 -0.1258  0.5492
   23MOL   C184 5948   3.827   3.565   2.556 -0.2871 -0.4223  0.7464
   23MOL   C185 5949   3.710   3.646   2.599 -0.0564 -0.5829 -0.0136
   23MOL   C186 5950   3.645   3.749   2.541  0.8732  0.6004 -0.1489
   23MOL   C187 5951   3.679   3.801   2.405 -0.0535 -0.3079 -0.4966
   23MOL   C188 5952   3.535   3.816   2.617  0.5731  0.0571 -0.2642
   23MOL   H189 5953   3.851   3.601   2.455 -1.1553 -2.1125 -0.0838
   23MOL   H190 5954   3.903   3.566   2.634  0.1312 -0.4168  0.3439
   23MOL   H191 5955   3.665   3.610   2.690 -1.7561 -0.3466 -0.7368
   23MOL   H192 5956   3.632   3.745   2.325  2.7963 -2.2465 -0.9010
   23MOL   H193 5957   3.785   3.781   2.388  0.2896 -0.7976  1.9646
   23MOL   H194 5958   3.672   3.907   2.380  1.8827 -0.7348 -2.9849
   23MOL   H195 5959   3.577   3.911   2.649  2.1457 -0.2460 -1.4267
   23MOL   H196 5960   3.504   3.760   2.706  0.6544 -0.6942 -0.7079
   23MOL   C197 5961   3.414   3.856   2.537 -0.4783  0.2421  1.0009
   23MOL   C198 5962   3.310   3.920   2.628 -0.1406 -0.4166 -0.5257
   23MOL   C199 5963   3.243   4.037   2.617 -0.3313  0.2967 -0.1446
   23MOL   C200 5964   3.274   4.140   2.511  0.4037 -0.1879  0.5527
   23MOL   C201 5965   3.126   4.059   2.713  0.1114 -0.6745  0.4397
   23MOL   H202 5966   3.371   3.769   2.488  1.1099  0.0954 -0.1659
   23MOL   H203 5967   3.416   3.922   2.450 -0.9392 -2.2344 -0.9397
   23MOL   H204 5968   3.274   3.846   2.698 -0.1852 -0.5207 -0.6574
   23MOL   H205 5969   3.226   4.116   2.416 -0.8603  1.3675  0.7761
   23MOL   H206 5970   3.378   4.155   2.484  0.0124 -2.7943 -2.7315
   23MOL   H207 5971   3.226   4.235   2.536 -1.1101 -1.2197  1.6900
   23MOL   H208 5972   3.088   3.962   2.747 -2.3148  0.2151  0.3576
   23MOL   H209 5973   3.041   4.088   2.651  0.5238 -0.1038  0.1379
   23MOL   C210 5974   3.141   4.156   2.831 -0.3695  0.4548 -0.0744
   23MOL   C211 5975   3.009   4.192   2.887  0.6734 -0.6610  0.5213
   23MOL   C212 5976   2.991   4.296   2.968 -0.5030  0.9882 -0.5121
   23MOL   C213 5977   3.107   4.382   3.023  0.0367  0.5950  0.0653
   23MOL   C214 5978   2.855   4.323   3.028 -0.5118 -0.1395 -0.4169
   23MOL   H215 5979   3.192   4.245   2.794  1.4242 -1.0811 -1.4022
   23MOL   H216 5980   3.203   4.115   2.911  1.1421  2.3890 -0.2150
   23MOL   H217 5981   2.929   4.125   2.858 -0.4222  0.0987  1.7647
   23MOL   H218 5982   3.113   4.479   2.974  1.6649 -0.3493 -1.6723
   23MOL   H219 5983   3.201   4.329   3.004 -0.5172  0.2919 -1.9692
   23MOL   H220 5984   3.111   4.401   3.130 -0.7043  2.6083 -0.2343
   23MOL   H221 5985   2.873   4.296   3.133 -2.3198  2.3097  0.5818
   23MOL   H222 5986   2.779   4.255   2.992 -0.7453 -0.7560  1.1838
   23MOL   C223 5987   2.801   4.467   3.036  0.2026  1.0742 -0.1777
   23MOL   C224 5988   2.707   4.494   3.150  0.2171 -0.1520 -0.3288
   23MOL   C225 5989   2.724   4.589   3.246 -0.2958  0.0655 -0.1070
   23MOL   C226 5990   2.825   4.699   3.244  0.1765  0.0383 -0.0884
   23MOL   C227 5991   2.626   4.599   3.365 -0.8664 -0.2763  0.6815
   23MOL   H228 5992   2.752   4.496   2.943  1.1459 -1.0060 -1.3575
   23MOL   H229 5993   2.891   4.526   3.055  0.3467  1.4032 -1.8167
   23MOL   H230 5994   2.621   4.429   3.158 -1.3887  2.1338  2.3390
   23MOL   H231 5995   2.862   4.740   3.338  1.5711 -0.3251 -0.4513
   23MOL   H232 5996   2.788   4.780   3.182 -2.6297  0.0076  1.4888
   23MOL   H233 5997   2.911   4.663   3.188 -0.4553  0.7725 -1.5492
   23MOL   H234 5998   2.690   4.583   3.451  0.8360 -0.8774 -0.6662
   23MOL   H235 5999   2.560   4.512   3.359 -0.3988 -0.6173  0.4383
   23MOL   C236 6000   2.541   4.727   3.360  0.3576  0.6422 -0.5952
   23MOL   C237 6001   2.439   4.737   3.476 -0.2129  0.0882  0.2169
   23MOL   C238 6002   2.414   4.841   3.550  0.5017  0.1411  0.1760
   23MOL   C239 6003   2.489   4.970   3.535  0.2868  0.5631  0.4337
   23MOL   C240 6004   2.311   4.831   3.664  0.1579  0.4136  0.0438
   23MOL   H241 6005   2.482   4.727   3.268  1.0501 -2.3548 -1.1096
   23MOL   H242 6006   2.601   4.817   3.343 -0.0026  1.4049  1.9884
   23MOL   H243 6007   2.387   4.643   3.487 -1.0561  0.7400  1.8121
   23MOL   H244 6008   2.594   4.955   3.559  0.2621  0.3049  0.3805
   23MOL   H245 6009   2.452   5.043   3.607 -1.3765 -0.0562  0.2352
   23MOL   H246 6010   2.474   5.004   3.432  0.4474  0.8700  0.5114
   23MOL   H247 6011   2.354   4.838   3.764  1.3897  0.5186 -0.4897
   23MOL   H248 6012   2.260   4.734   3.663 -0.0865  0.5292  0.8072
   23MOL   C249 6013   2.201   4.930   3.632 -0.5241  0.0127 -0.0334
   23MOL   C250 6014   2.091   4.961   3.731  0.0842  0.5806 -0.6452
   23MOL   C251 6015   2.029   5.078   3.749 -1.1459  0.0539 -0.4994
   23MOL   C252 6016   2.044   5.203   3.657  0.9264 -0.4497  0.2823
   23MOL   C253 6017   1.910   5.079   3.850 -0.4444 -0.5205  0.3195
   23MOL   H254 6018   2.145   4.902   3.543  2.2458  0.4398 -1.9742
   23MOL   H255 6019   2.242   5.026   3.601 -1.7095  0.7001  0.4730
   23MOL   H256 6020   2.059   4.872   3.783  0.0067  0.6202 -0.6248
   23MOL   H257 6021   2.062   5.180   3.552 -0.9638  2.1546 -0.6645
   23MOL   H258 6022   2.134   5.254   3.692 -0.5719  2.0242  0.6760
   23MOL   H259 6023   1.959   5.271   3.665 -0.1879 -1.6771 -0.8800
   23MOL   H260 6024   1.938   5.013   3.931 -2.0552 -0.2743  1.1055
   23MOL   H261 6025   1.815   5.040   3.815  0.1405 -1.4194 -0.2703
   23MOL   H262 6026   1.893   5.175   3.900 -1.7138  0.2872 -1.5796
   24MOL     C1 6027   4.359   6.414   4.826 -0.5754  0.2619  0.4968
   24MOL     C2 6028   4.267   6.405   4.705  0.3360  0.0967 -0.3026
   24MOL     C3 6029   4.229   6.285   4.651 -0.0612  0.5005  0.1373
   24MOL     C4 6030   4.273   6.155   4.722 -0.6897  0.6162 -0.4859
   24MOL     C5 6031   4.134   6.276   4.527  0.2489 -0.3360  0.0397
   24MOL     H6 6032   4.441   6.343   4.824 -1.2349 -0.5194  0.8598
   24MOL     H7 6033   4.403   6.514   4.826 -0.1671  0.0875  0.0442
   24MOL     H8 6034   4.222   6.495   4.668  2.5385  1.4701  0.2374
   24MOL     H9 6035   4.265   6.145   4.830 -2.1135 -0.4798 -0.6765
   24MOL    H10 6036   4.375   6.143   4.686 -1.0445 -0.3324 -1.1772
   24MOL    H11 6037   4.234   6.062   4.681  1.0538 -1.0630  1.5638
   24MOL    H12 6038   4.096   6.373   4.494 -0.7998 -0.8079 -0.1791
   24MOL    H13 6039   4.048   6.211   4.545  0.1802 -0.3295 -0.2557
   24MOL    H14 6040   4.293   6.397   4.911 -1.9363 -0.3007 -0.6538
   24MOL    C15 6041   4.219   6.217   4.408  0.4922 -0.1544  0.3790
   24MOL    C16 6042   4.337   6.309   4.366 -0.9119 -0.5912  0.5437
   24MOL    C17 6043   4.397   6.321   4.250 -0.2021 -0.4323 -0.1866
   24MOL    C18 6044   4.365   6.232   4.134 -0.1072  0.5394  0.1626
   24MOL    C19 6045   4.503   6.425   4.212 -0.7142  0.2729  0.5051
   24MOL    H20 6046   4.152   6.173   4.333 -0.1022  0.1565  0.7248
   24MOL    H21 6047   4.270   6.127   4.444 -0.6305 -0.9482  0.0234
   24MOL    H22 6048   4.364   6.374   4.448 -0.0299 -0.5224  0.2031
   24MOL    H23 6049   4.273   6.177   4.149 -0.8755  1.2138 -1.8883
   24MOL    H24 6050   4.445   6.161   4.112 -0.8676 -0.3627  0.2834
   24MOL    H25 6051   4.346   6.288   4.042  0.3482 -0.0368 -0.2880
   24MOL    H26 6052   4.506   6.503   4.288 -1.4829 -0.0478  0.8635
   24MOL    H27 6053   4.465   6.464   4.117 -3.0323 -0.0091  1.2839
   24MOL    C28 6054   4.641   6.369   4.179  0.4088 -0.0684  0.1161
   24MOL    C29 6055   4.745   6.465   4.137 -0.3222  0.2796 -0.2627
   24MOL    C30 6056   4.814   6.477   4.021  0.1067  0.1280  0.2355
   24MOL    C31 6057   4.811   6.371   3.906 -0.6123 -0.1866 -0.4590
   24MOL    C32 6058   4.902   6.598   3.993 -0.3420  0.0443 -0.1151
   24MOL    H33 6059   4.636   6.289   4.105 -0.5631 -2.9315  3.1848
   24MOL    H34 6060   4.684   6.320   4.266 -0.8158 -0.7044  0.3636
   24MOL    H35 6061   4.752   6.561   4.186  0.7817  1.1352 -2.0555
   24MOL    H36 6062   4.867   6.415   3.823 -0.4981  3.3559  1.3826
   24MOL    H37 6063   4.708   6.348   3.878 -0.7202 -0.7359  0.3931
   24MOL    H38 6064   4.863   6.279   3.933  2.0174  1.5233  0.4797
   24MOL    H39 6065   5.005   6.571   3.971  0.2525  2.4999 -0.5991
   24MOL    H40 6066   4.907   6.658   4.084  0.8756  1.2338 -0.9512
   24MOL    C41 6067   4.846   6.677   3.871 -0.8027  0.1347  0.0569
   24MOL    C42 6068   4.724   6.756   3.914 -0.4014 -0.3852 -0.0104
   24MOL    C43 6069   4.596   6.733   3.871 -0.1187 -0.1669 -0.0089
   24MOL    C44 6070   4.559   6.607   3.787 -0.0246 -1.4102 -0.7549
   24MOL    C45 6071   4.479   6.822   3.904  1.2572 -0.0090 -0.6532
   24MOL    H46 6072   4.836   6.613   3.783 -0.2946  1.2893 -0.8643
   24MOL    H47 6073   4.920   6.749   3.835 -0.6347 -0.3009 -0.4750
   24MOL    H48 6074   4.751   6.840   3.977  0.2410 -0.5730 -0.0328
   24MOL    H49 6075   4.485   6.631   3.710 -1.8846  1.9596  1.9154
   24MOL    H50 6076   4.500   6.535   3.843 -0.0858 -0.9720 -0.2490
   24MOL    H51 6077   4.643   6.574   3.727  0.4063  0.1294 -1.0138
   24MOL    H52 6078   4.482   6.854   4.008 -2.2675  1.7864 -1.0540
   24MOL    H53 6079   4.399   6.748   3.911  2.6901 -1.7796 -2.6410
   24MOL    C54 6080   4.441   6.940   3.810 -0.1331 -0.1557  0.2668
   24MOL    C55 6081   4.557   7.035   3.797  0.7994 -0.1110  0.0353
   24MOL    C56 6082   4.568   7.139   3.717  0.5726  0.2209 -0.4542
   24MOL    C57 6083   4.450   7.184   3.629 -0.2283  0.2674  0.1761
   24MOL    C58 6084   4.681   7.235   3.730  0.5900  0.1675 -0.3644
   24MOL    H59 6085   4.353   6.990   3.851  0.7482 -0.5163  2.6709
   24MOL    H60 6086   4.424   6.912   3.706  1.0924  1.8766 -0.5182
   24MOL    H61 6087   4.638   7.011   3.865  0.6251 -1.1760 -0.1169
   24MOL    H62 6088   4.505   7.208   3.538  2.0373 -3.3202  0.4623
   24MOL    H63 6089   4.406   7.277   3.664 -0.6511  0.0821  0.1316
   24MOL    H64 6090   4.394   7.095   3.600  1.9699 -1.2180  0.3276
   24MOL    H65 6091   4.741   7.230   3.639 -0.1813 -0.9881 -0.8194
   24MOL    H66 6092   4.747   7.195   3.808  0.0866  0.3631  0.1678
   24MOL    C67 6093   4.639   7.377   3.762  0.6317  0.1845 -0.0915
   24MOL    C68 6094   4.764   7.467   3.771 -0.3960  0.6463 -0.3143
   24MOL    C69 6095   4.782   7.557   3.867 -0.9108 -0.0829  0.1778
   24MOL    C70 6096   4.692   7.587   3.983 -0.2674 -0.9748  0.1022
   24MOL    C71 6097   4.911   7.639   3.873 -0.2289 -0.6168 -0.0322
   24MOL    H72 6098   4.596   7.380   3.862 -0.0823  2.8312 -0.4380
   24MOL    H73 6099   4.559   7.409   3.696 -0.0748  1.0966  1.1877
   24MOL    H74 6100   4.830   7.451   3.687 -0.6603  1.0561 -0.6048
   24MOL    H75 6101   4.729   7.580   4.085  1.4888  1.2529 -0.3420
   24MOL    H76 6102   4.601   7.528   3.995 -0.5912 -0.1882  1.6174
   24MOL    H77 6103   4.649   7.686   3.974  2.4126  0.3492  1.1145
   24MOL    H78 6104   4.959   7.593   3.959 -3.5234 -2.8842  0.6780
   24MOL    H79 6105   4.892   7.742   3.906  2.0802 -0.6823  1.6654
   24MOL    C80 6106   5.007   7.650   3.745  0.0171  0.3010  0.3728
   24MOL    C81 6107   4.938   7.726   3.630  0.9939 -0.0081  0.1364
   24MOL    C82 6108   4.939   7.694   3.496 -0.9511  0.3452  0.4321
   24MOL    C83 6109   5.022   7.578   3.439 -0.3629  0.0828 -0.6264
   24MOL    C84 6110   4.858   7.766   3.398  0.5628 -0.2823 -0.0623
   24MOL    H85 6111   5.035   7.549   3.716  1.1811 -0.1089  2.7501
   24MOL    H86 6112   5.101   7.703   3.762 -1.0949  2.0180  1.3961
   24MOL    H87 6113   4.865   7.802   3.655  1.3924 -0.2208  2.0088
   24MOL    H88 6114   5.120   7.590   3.485 -0.3462 -0.7268 -0.4463
   24MOL    H89 6115   5.032   7.588   3.331 -1.8256 -2.0574 -0.9836
   24MOL    H90 6116   4.973   7.484   3.465  2.0753 -1.0450 -0.0276
   24MOL    H91 6117   4.915   7.772   3.306  1.1265 -2.2066  0.1351
   24MOL    H92 6118   4.842   7.868   3.432  2.0295 -0.1412  0.2311
   24MOL    C93 6119   4.723   7.693   3.364  0.0574 -0.3696 -0.3162
   24MOL    C94 6120   4.643   7.794   3.278 -0.4107 -0.3454  0.5268
   24MOL    C95 6121   4.515   7.825   3.284  0.5295 -0.1430  0.1119
   24MOL    C96 6122   4.424   7.767   3.393 -0.2365  0.2666  0.9622
   24MOL    C97 6123   4.444   0.031   3.180 -1.2017  0.4697  0.9568
   24MOL    H98 6124   4.675   7.652   3.453 -0.9367 -0.1590 -0.7466
   24MOL    H99 6125   4.746   7.605   3.304 -2.5987 -1.4658  0.2279
   24MOL   H100 6126   4.708   7.834   3.202 -2.1069  0.2266 -0.6468
   24MOL   H101 6127   4.475   7.762   3.489  1.1691 -2.1224  0.1190
   24MOL   H102 6128   4.395   7.666   3.363  1.6030  0.5684 -2.0497
   24MOL   H103 6129   4.332   7.825   3.396 -0.6212 -0.2251 -0.7885
   24MOL   H104 6130   4.344   0.056   3.214 -0.8026 -0.0974  2.5698
   24MOL   H105 6131   4.431   7.847   3.095  0.0287  1.2236  0.1534
   24MOL   C106 6132   4.515   0.163   3.136 -0.2419 -0.1171  0.1801
   24MOL   C107 6133   4.436   0.238   3.033  0.0863 -0.4730  0.4104
   24MOL   C108 6134   4.379   0.363   3.035  0.0727 -0.1189 -0.3877
   24MOL   C109 6135   4.380   0.454   3.157 -0.1000  0.2069  0.5914
   24MOL   C110 6136   4.307   0.413   2.909  0.5090  0.3546  0.5176
   24MOL   H111 6137   4.609   0.141   3.085  1.0418  0.8820  2.0527
   24MOL   H112 6138   4.539   0.223   3.224 -1.0290  1.2521 -0.5298
   24MOL   H113 6139   4.421   0.174   2.947 -1.6470  0.8369 -0.3054
   24MOL   H114 6140   4.308   0.422   3.233 -0.3589 -3.0372 -0.9186
   24MOL   H115 6141   4.373   0.562   3.150 -1.5422  0.2576  2.4700
   24MOL   H116 6142   4.481   0.443   3.196  0.2131  0.6172 -0.1052
   24MOL   H117 6143   4.212   0.452   2.945 -0.2658 -0.1577 -0.9666
   24MOL   H118 6144   4.287   0.332   2.840 -0.2435 -0.7367  1.9749
   24MOL   C119 6145   4.381   0.527   2.835 -0.1398 -0.1932 -0.7743
   24MOL   C120 6146   4.322   0.578   2.707  0.0990 -0.1709  0.3113
   24MOL   C121 6147   4.373   0.570   2.579 -1.1416 -0.2571 -0.6667
   24MOL   C122 6148   4.511   0.518   2.553 -0.1397  0.1628 -0.1244
   24MOL   C123 6149   4.304   0.650   2.469  0.3175  0.6808 -0.4267
   24MOL   H124 6150   4.483   0.497   2.811  0.7995  0.5105  2.2078
   24MOL   H125 6151   4.385   0.610   2.905 -1.6563 -2.6317  2.3388
   24MOL   H126 6152   4.218   0.607   2.709  0.0524 -0.3826  1.2483
   24MOL   H127 6153   4.513   0.479   2.452 -3.9396 -0.1246 -0.1697
   24MOL   H128 6154   4.518   0.426   2.610  1.5865  0.9968  1.0516
   24MOL   H129 6155   4.602   0.570   2.584 -0.1022 -0.4178  0.7400
   24MOL   H130 6156   4.368   0.735   2.449  0.7801  1.0473  2.4412
   24MOL   H131 6157   4.211   0.685   2.515 -0.3543 -1.7617  0.1446
   24MOL   C132 6158   4.258   0.575   2.338  0.5837 -0.7399  0.2287
   24MOL   C133 6159   4.201   0.671   2.233  0.1778  0.7710  0.1172
   24MOL   C134 6160   4.226   0.650   2.100 -0.3287  0.2958 -0.1984
   24MOL   C135 6161   4.315   0.540   2.037  0.3062  0.1974  0.2156
   24MOL   C136 6162   4.160   0.738   1.998 -0.2348  0.3952 -0.3975
   24MOL   H137 6163   4.179   0.513   2.382 -1.2405  1.3707  0.0385
   24MOL   H138 6164   4.338   0.514   2.296  1.8530  1.3246 -0.4320
   24MOL   H139 6165   4.138   0.752   2.265  0.2547  1.1919 -0.7786
   24MOL   H140 6166   4.423   0.552   2.047  0.6110 -1.6675 -0.7383
   24MOL   H141 6167   4.292   0.517   1.933  3.7690 -1.3204 -0.2939
   24MOL   H142 6168   4.299   0.447   2.092  2.3401 -0.8328 -0.8695
   24MOL   H143 6169   4.075   0.684   1.955 -1.0792  0.8186  0.7443
   24MOL   H144 6170   4.228   0.741   1.912  1.0017  0.5242  0.5803
   24MOL   C145 6171   4.137   0.888   2.027  0.0684  0.1752  0.1758
   24MOL   C146 6172   4.069   0.967   1.918  0.1440  0.4182 -1.1253
   24MOL   C147 6173   4.106   1.077   1.850 -0.5411 -0.0461  0.3183
   24MOL   C148 6174   4.231   1.157   1.888 -0.2670  0.6328  0.1714
   24MOL   C149 6175   4.030   1.125   1.728  0.5670  0.4097  0.1284
   24MOL   H150 6176   4.235   0.933   2.043 -0.4031  1.4446 -0.4264
   24MOL   H151 6177   4.073   0.888   2.115  0.2303 -1.2978  0.2951
   24MOL   H152 6178   3.973   0.926   1.890 -0.1984 -0.6491  1.4198
   24MOL   H153 6179   4.195   1.260   1.892  0.8664  1.0601 -0.2770
   24MOL   H154 6180   4.310   1.142   1.814 -1.4915 -0.3781 -0.9518
   24MOL   H155 6181   4.278   1.127   1.982 -0.9034  2.0972  0.9748
   24MOL   H156 6182   3.975   1.046   1.677 -0.6198  1.0795  0.3466
   24MOL   H157 6183   4.109   1.169   1.667  0.6060 -1.0354 -0.8875
   24MOL   C158 6184   3.924   1.237   1.755 -0.1093  0.2829 -0.4968
   24MOL   C159 6185   3.784   1.182   1.784 -0.2733  0.0047 -0.1411
   24MOL   C160 6186   3.690   1.247   1.854  0.2251 -0.4904 -0.1478
   24MOL   C161 6187   3.706   1.377   1.919 -0.0765 -0.1959  0.2334
   24MOL   C162 6188   3.553   1.186   1.869 -0.0050 -0.4305  0.2053
   24MOL   H163 6189   3.911   1.297   1.665 -0.1878  2.0438  0.6693
   24MOL   H164 6190   3.965   1.303   1.831  0.4704 -1.0618  0.3878
   24MOL   H165 6191   3.760   1.092   1.729 -0.3987 -0.8099  1.2083
   24MOL   H166 6192   3.785   1.438   1.877  0.3033 -1.3171 -0.6989
   24MOL   H167 6193   3.727   1.371   2.026  1.0188  0.6598  0.0673
   24MOL   H168 6194   3.619   1.439   1.898  0.0570  0.8047  2.4728
   24MOL   H169 6195   3.560   1.087   1.825 -1.3989  0.4357 -2.0351
   24MOL   H170 6196   3.486   1.249   1.811  1.2774  0.0691 -0.7420
   24MOL   C171 6197   3.498   1.184   2.012 -0.5968 -0.1233 -0.4321
   24MOL   C172 6198   3.370   1.093   2.016  0.1284 -0.3265 -0.0289
   24MOL   C173 6199   3.243   1.133   2.020 -0.2279  0.1616  0.6611
   24MOL   C174 6200   3.209   1.281   2.049  0.2841  0.0642  0.4477
   24MOL   C175 6201   3.132   1.025   2.018  0.2913 -0.5527 -0.1348
   24MOL   H176 6202   3.479   1.285   2.049  1.0430  0.2303 -0.5099
   24MOL   H177 6203   3.577   1.137   2.071 -0.1698  1.0609 -0.0310
   24MOL   H178 6204   3.402   0.990   2.011  1.5602 -0.0435  2.2671
   24MOL   H179 6205   3.208   1.307   2.155  0.0198  1.9181  0.0018
   24MOL   H180 6206   3.110   1.288   2.006  1.5253  0.2050 -2.5121
   24MOL   H181 6207   3.266   1.352   1.989  0.3784  0.5988  1.1599
   24MOL   H182 6208   3.045   1.078   2.055  0.6170 -0.2342  0.1883
   24MOL   H183 6209   3.170   0.937   2.071  0.1872  0.7524  2.1755
   24MOL   C184 6210   3.095   0.988   1.882  0.0183  0.7869  0.1551
   24MOL   C185 6211   2.954   0.931   1.875  0.3145  0.0229 -0.2789
   24MOL   C186 6212   2.911   0.821   1.817 -0.8342  0.0929 -0.4604
   24MOL   C187 6213   2.995   0.709   1.744 -0.8654  1.4615  0.8066
   24MOL   C188 6214   2.759   0.799   1.794 -0.0088 -0.0905  0.0133
   24MOL   H189 6215   3.170   0.925   1.835  0.3303  0.9502  0.4356
   24MOL   H190 6216   3.088   1.074   1.815 -2.9737 -0.1741 -0.8514
   24MOL   H191 6217   2.878   1.000   1.910  2.3882  1.3472  1.7262
   24MOL   H192 6218   2.960   0.694   1.642  0.7720 -1.2796  0.5904
   24MOL   H193 6219   2.996   0.612   1.795 -1.0921  0.3065 -1.3279
   24MOL   H194 6220   3.096   0.747   1.739 -0.0991 -0.5942  0.1973
   24MOL   H195 6221   2.727   0.808   1.691 -2.7867 -1.4216  0.7228
   24MOL   H196 6222   2.707   0.883   1.842  0.1930 -0.3380  0.6753
   24MOL   C197 6223   2.708   0.672   1.854  0.6028  0.3069  0.4304
   24MOL   C198 6224   2.558   0.647   1.845 -0.5767  0.2689  0.3733
   24MOL   C199 6225   2.479   0.602   1.947 -0.4191  0.1336  0.5133
   24MOL   C200 6226   2.540   0.591   2.090  0.0915 -0.3918  0.9006
   24MOL   C201 6227   2.331   0.566   1.927 -0.3509  0.7066 -0.2730
   24MOL   H202 6228   2.746   0.668   1.956  2.0255  2.5854  0.0257
   24MOL   H203 6229   2.762   0.597   1.796 -1.4051 -1.8021  1.2076
   24MOL   H204 6230   2.520   0.663   1.745  2.0886  1.6318 -0.4799
   24MOL   H205 6231   2.593   0.682   2.119  1.0483 -0.7191  0.1987
   24MOL   H206 6232   2.607   0.506   2.104 -1.0353 -1.4360  0.0065
   24MOL   H207 6233   2.456   0.567   2.155 -2.2481  0.6401 -1.6220
   24MOL   H208 6234   2.324   0.470   1.979 -3.0505 -0.0676 -2.0101
   24MOL   H209 6235   2.324   0.553   1.819  2.1064 -2.3175 -0.1466
   24MOL   C210 6236   2.236   0.678   1.990 -0.2842 -0.1130  0.2132
   24MOL   C211 6237   2.085   0.653   1.989 -0.0157  0.5108  0.0914
   24MOL   C212 6238   1.998   0.752   1.985 -0.0269  0.3803  0.2513
   24MOL   C213 6239   2.034   0.904   1.989 -0.1311 -0.2583  0.0178
   24MOL   C214 6240   1.852   0.710   1.980 -0.0115  0.5267  0.0141
   24MOL   H215 6241   2.249   0.765   1.925 -0.1614 -1.1729 -1.2116
   24MOL   H216 6242   2.270   0.722   2.084 -1.4838 -0.6232  0.8979
   24MOL   H217 6243   2.044   0.554   2.007 -1.7897  1.3455  0.7157
   24MOL   H218 6244   1.968   0.955   2.059 -0.4827  1.1443 -1.3171
   24MOL   H219 6245   2.013   0.953   1.894 -2.0661 -1.1801 -0.0371
   24MOL   H220 6246   2.138   0.923   2.017  0.1838  0.2839 -1.4725
   24MOL   H221 6247   1.789   0.777   2.038  0.9087  0.6095  0.9317
   24MOL   H222 6248   1.842   0.607   2.015  3.2346 -0.2836 -1.2873
   24MOL   C223 6249   1.798   0.711   1.843  0.4285  0.0125  0.5966
   24MOL   C224 6250   1.660   0.650   1.843  0.0545  0.5755  0.4748
   24MOL   C225 6251   1.542   0.708   1.810  0.3019  0.2819  0.1626
   24MOL   C226 6252   1.525   0.859   1.787 -0.1318 -0.2532 -0.4121
   24MOL   C227 6253   1.417   0.632   1.807  0.0736 -0.3892  0.3930
   24MOL   H228 6254   1.860   0.648   1.779  2.6166  2.0689  0.6413
   24MOL   H229 6255   1.798   0.811   1.798 -0.7029  0.5659  1.7966
   24MOL   H230 6256   1.660   0.546   1.872  0.6138  0.4235 -0.0586
   24MOL   H231 6257   1.473   0.897   1.875 -1.1537  0.0197 -1.1297
   24MOL   H232 6258   1.452   0.877   1.709  0.1084  0.3537 -0.4999
   24MOL   H233 6259   1.619   0.913   1.771  0.1523 -0.5924  0.0881
   24MOL   H234 6260   1.384   0.655   1.706  1.7779 -0.1147 -0.1274
   24MOL   H235 6261   1.358   0.683   1.883 -1.2043  2.6150 -2.4523
   24MOL   C236 6262   1.418   0.480   1.818  0.1753  0.1413  0.9973
   24MOL   C237 6263   1.277   0.422   1.777 -0.2596 -0.0584  0.0002
   24MOL   C238 6264   1.190   0.364   1.861  0.4977  0.3525 -0.8149
   24MOL   C239 6265   1.209   0.349   2.011 -0.6418 -0.5649  0.3044
   24MOL   C240 6266   1.061   0.305   1.809  0.3978 -0.1135 -0.1346
   24MOL   H241 6267   1.447   0.442   1.917  1.6529 -1.2246  0.0566
   24MOL   H242 6268   1.488   0.430   1.751 -1.2007  0.1994 -0.5048
   24MOL   H243 6269   1.247   0.435   1.674 -0.2701  1.0582  0.1408
   24MOL   H244 6270   1.270   0.428   2.055  1.1418 -1.4545 -0.5318
   24MOL   H245 6271   1.265   0.260   2.038  0.7598  0.2395  0.1210
   24MOL   H246 6272   1.118   0.329   2.068 -0.2790  0.7079  1.3678
   24MOL   H247 6273   1.047   0.344   1.708  0.5642 -0.8405 -0.4438
   24MOL   H248 6274   0.976   0.340   1.868 -1.0214 -0.8046 -1.7164
   24MOL   C249 6275   1.063   0.159   1.809  1.0805 -1.0552  0.1068
   24MOL   C250 6276   0.940   0.115   1.733  0.1330  0.5855 -0.0175
   24MOL   C251 6277   0.931   0.013   1.644  0.0641 -0.1972 -0.0734
   24MOL   C252 6278   1.046   7.803   1.602 -0.8504  0.3694 -0.2027
   24MOL   C253 6279   0.804   7.868   1.560 -0.4598 -0.1506  0.2903
   24MOL   H254 6280   1.058   0.132   1.915  1.6498 -1.0106  0.1435
   24MOL   H255 6281   1.157   0.113   1.779  1.2848 -2.3137  2.5349
   24MOL   H256 6282   0.854   0.173   1.761 -0.0341  0.3871 -0.1191
   24MOL   H257 6283   1.122   7.828   1.528 -0.7354  1.8049  0.4023
   24MOL   H258 6284   1.006   7.702   1.587 -1.2699  0.7876 -1.9456
   24MOL   H259 6285   1.097   7.779   1.696  0.0127 -1.2170 -1.0474
   24MOL   H260 6286   0.723   0.043   1.605 -0.7527 -0.6364  0.3891
   24MOL   H261 6287   0.776   7.762   1.555 -2.1634  0.3907 -2.2313
   24MOL   H262 6288   0.822   0.018   1.458  0.5836 -2.0955 -0.1781
   25MOL     C1 6289   1.541   4.951   7.530 -0.8058 -0.3333 -0.0197
   25MOL     C2 6290   1.409   5.026   7.563 -0.4969 -1.2002  0.3004
   25MOL     C3 6291   1.339   5.024   7.676  0.4873 -0.4278 -0.6349
   25MOL     C4 6292   1.366   4.918   7.792  0.9220 -0.3151  0.0335
   25MOL     C5 6293   1.207   5.098   7.700 -0.1849 -0.0005 -0.2746
   25MOL     H6 6294   1.596   5.011   7.458  0.7774 -1.4657  0.2259
   25MOL     H7 6295   1.604   4.932   7.617 -1.4792 -2.2988  0.0598
   25MOL     H8 6296   1.376   5.084   7.477  1.5299  0.3009  0.5059
   25MOL     H9 6297   1.298   4.833   7.786 -1.2473  1.3123  0.7021
   25MOL    H10 6298   1.357   4.966   0.007  0.3584 -0.2111 -0.0663
   25MOL    H11 6299   1.471   4.890   7.781  1.1228  0.8221 -1.1225
   25MOL    H12 6300   1.132   5.019   7.705  1.3995 -1.5354 -0.3147
   25MOL    H13 6301   1.197   5.154   7.607  1.7362  0.3996 -0.2593
   25MOL    H14 6302   1.524   4.854   7.483  0.5166 -0.3181 -0.5359
   25MOL    C15 6303   1.219   5.188   7.819 -0.2919  0.3495 -0.5449
   25MOL    C16 6304   1.095   5.272   7.824 -0.3950  0.4551 -0.5465
   25MOL    C17 6305   1.082   5.396   7.775  0.4040 -0.0869 -0.2904
   25MOL    C18 6306   1.203   5.473   7.723  0.0275  0.2152  0.2639
   25MOL    C19 6307   0.954   5.472   7.763 -0.6201  0.6039 -0.1525
   25MOL    H20 6308   1.310   5.248   7.806  0.0175  0.5321  2.1322
   25MOL    H21 6309   1.237   5.127   0.024  2.0696  0.8473 -0.6299
   25MOL    H22 6310   1.012   5.221   7.871  0.5496  0.4036  1.1309
   25MOL    H23 6311   1.159   5.550   7.659  1.0356  0.2374 -0.4152
   25MOL    H24 6312   1.260   5.410   7.654  1.1698 -0.9838  2.2741
   25MOL    H25 6313   1.268   5.511   7.802  0.0208 -1.1467  0.9424
   25MOL    H26 6314   0.875   5.403   7.793  0.7956 -0.1840  1.8604
   25MOL    H27 6315   0.930   5.500   7.661  2.4654 -1.6274 -1.5568
   25MOL    C28 6316   0.946   5.589   7.866 -0.5154  0.6191 -0.1594
   25MOL    C29 6317   0.822   5.671   7.841  0.0552  0.3341 -0.4539
   25MOL    C30 6318   0.808   5.799   7.819 -0.4606 -0.0433 -0.4688
   25MOL    C31 6319   0.921   5.891   7.805  0.7173  0.1643  0.1685
   25MOL    C32 6320   0.669   5.853   7.788  0.3958  0.6533 -0.0550
   25MOL    H33 6321   1.037   5.650   7.861  0.0773 -0.3147 -1.0146
   25MOL    H34 6322   0.938   5.552   0.086 -2.6873 -0.8708 -0.8289
   25MOL    H35 6323   0.733   5.611   7.831 -0.0987  0.0855  2.0425
   25MOL    H36 6324   0.888   5.976   7.744  0.4672 -0.2360 -0.2569
   25MOL    H37 6325   1.015   5.845   7.776 -0.3895 -1.0774 -1.5465
   25MOL    H38 6326   0.941   5.924   0.025 -0.8285  0.4588  0.4015
   25MOL    H39 6327   0.671   5.962   7.790 -0.7732  0.6684  1.7294
   25MOL    H40 6328   0.593   5.811   7.853  2.7768  1.5763  3.4641
   25MOL    C41 6329   0.627   5.816   7.636 -0.0314  0.6482 -0.0322
   25MOL    C42 6330   0.489   5.865   7.595  0.1602  0.1151  0.3677
   25MOL    C43 6331   0.403   5.806   7.509  1.1603 -0.7379 -0.0850
   25MOL    C44 6332   0.428   5.667   7.443  0.1433 -0.5686 -0.0637
   25MOL    C45 6333   0.280   5.880   7.450 -0.0358 -0.0359  0.8124
   25MOL    H46 6334   0.642   5.709   7.624  3.4570  0.9488  1.2502
   25MOL    H47 6335   0.696   5.872   7.573  1.0090 -0.2342  0.3273
   25MOL    H48 6336   0.469   5.965   7.629 -1.4297 -0.0670  0.0044
   25MOL    H49 6337   0.519   5.623   7.484  0.1783  0.0444  0.5386
   25MOL    H50 6338   0.429   5.687   7.336  2.5468 -0.0669  0.0112
   25MOL    H51 6339   0.353   5.591   7.463  1.2441 -1.6348  0.0781
   25MOL    H52 6340   0.256   5.974   7.501  1.4496  0.6908  0.2206
   25MOL    H53 6341   0.193   5.821   7.478 -1.7383  1.7711 -0.5028
   25MOL    C54 6342   0.287   5.908   7.304  0.4341  0.0164  0.1902
   25MOL    C55 6343   0.194   6.030   7.270 -0.0890 -0.0143  0.8514
   25MOL    C56 6344   0.234   6.147   7.222  0.3675  1.0137 -0.5307
   25MOL    C57 6345   0.383   6.167   7.178 -0.2998 -0.0216 -0.5857
   25MOL    C58 6346   0.138   6.267   7.217  0.2200  0.6111  0.3282
   25MOL    H59 6347   0.261   5.818   7.249 -0.9533 -0.0913  0.9935
   25MOL    H60 6348   0.393   5.924   7.285 -0.1767  2.1915 -1.6634
   25MOL    H61 6349   0.091   6.012   7.295  0.5367 -2.2726  2.0156
   25MOL    H62 6350   0.387   6.201   7.075  2.4180  0.0403 -0.4757
   25MOL    H63 6351   0.445   6.078   7.190 -0.7962 -0.1954  0.7452
   25MOL    H64 6352   0.430   6.247   7.235 -0.3017 -0.5231  0.1264
   25MOL    H65 6353   0.039   6.221   7.210 -0.9649  3.1620 -0.1487
   25MOL    H66 6354   0.157   6.320   7.124  2.0183 -0.1261  0.2677
   25MOL    C67 6355   0.139   6.361   7.339  0.0296  0.0431 -0.0087
   25MOL    C68 6356   0.074   6.312   7.462  0.4444  0.4269  0.1892
   25MOL    C69 6357   7.830   6.323   7.506 -0.0701  0.6013  0.3627
   25MOL    C70 6358   7.720   6.397   7.436 -0.4085 -0.7849 -0.1294
   25MOL    C71 6359   7.785   6.257   7.637  0.4392 -0.4490 -0.4225
   25MOL    H72 6360   0.096   6.458   7.313 -1.1926 -1.2821 -3.1587
   25MOL    H73 6361   0.240   6.384   7.371 -1.0664  3.6210  1.1681
   25MOL    H74 6362   0.142   6.247   7.514 -0.8386  0.2878  1.7187
   25MOL    H75 6363   7.634   6.330   7.436 -1.1787  0.1961  0.5220
   25MOL    H76 6364   7.745   6.409   7.330 -1.4481  1.8285 -0.1141
   25MOL    H77 6365   7.706   6.497   7.477  0.9088 -1.1979  1.3940
   25MOL    H78 6366   7.861   6.193   7.680 -0.0876  0.9987  2.7888
   25MOL    H79 6367   7.706   6.190   7.604 -0.6194  1.3359 -1.6559
   25MOL    C80 6368   7.748   6.364   7.745 -0.2483 -0.3126 -0.1002
   25MOL    C81 6369   7.720   6.291   7.873  0.7571  0.6420 -0.4229
   25MOL    C82 6370   7.741   6.336   0.115  0.0845 -0.2486 -0.1749
   25MOL    C83 6371   7.791   6.481   0.142 -0.4307  0.2549 -0.3688
   25MOL    C84 6372   7.706   6.255   0.231 -0.2764  0.3051  0.0483
   25MOL    H85 6373   7.673   6.432   7.707  1.1850  1.2560 -0.1913
   25MOL    H86 6374   7.834   6.429   7.762  0.4644 -1.3504  0.3013
   25MOL    H87 6375   7.660   6.202   7.869  0.0276  1.0867  0.3843
   25MOL    H88 6376   7.743   6.522   0.230  0.9050  0.5369  0.2430
   25MOL    H89 6377   7.783   6.542   0.052  2.8315 -0.0637 -0.9617
   25MOL    H90 6378   0.012   6.491   0.175 -0.1159 -2.0649 -0.5186
   25MOL    H91 6379   7.664   6.160   0.198 -0.3830  0.4989 -0.3836
   25MOL    H92 6380   7.640   6.304   0.302 -0.9118 -2.3752  1.3636
   25MOL    C93 6381   7.837   6.223   0.302 -0.2335 -1.2024  0.3965
   25MOL    C94 6382   7.821   6.118   0.406  0.0385  0.1660  0.0577
   25MOL    C95 6383   0.035   6.084   0.493 -0.5904  0.3944  0.5703
   25MOL    C96 6384   0.159   6.158   0.514 -0.5156 -0.8385 -0.5404
   25MOL    C97 6385   0.010   5.969   0.590 -0.5346 -0.3462  0.8177
   25MOL    H98 6386   7.854   6.321   0.346  0.1337 -1.7991  1.5961
   25MOL    H99 6387   0.044   6.202   0.243  0.9784  0.3542  1.6176
   25MOL   H100 6388   7.722   6.075   0.408  0.0371  0.1911  0.4374
   25MOL   H101 6389   0.142   6.265   0.501  1.3201 -0.5310 -0.5353
   25MOL   H102 6390   0.237   6.115   0.451  0.3054  1.2081 -0.9797
   25MOL   H103 6391   0.200   6.153   0.614  1.5020 -0.8474 -1.3311
   25MOL   H104 6392   7.793   5.926   0.587  0.1184 -1.7981 -1.4825
   25MOL   H105 6393   0.011   6.015   0.688 -1.4761 -0.6670  0.9849
   25MOL   C106 6394   0.116   5.853   0.568  0.7008 -0.0690 -0.8955
   25MOL   C107 6395   0.104   5.767   0.443 -1.3769  0.9016  0.5676
   25MOL   C108 6396   0.072   5.638   0.436 -0.1585 -0.2351  0.5142
   25MOL   C109 6397   0.039   5.544   0.552 -0.1395 -0.6261  0.1746
   25MOL   C110 6398   0.065   5.566   0.302 -0.6075  0.0680  0.1356
   25MOL   H111 6399   0.142   5.805   0.663 -3.9998  1.4718  1.2833
   25MOL   H112 6400   0.218   5.890   0.553  0.5563  0.2514 -1.0696
   25MOL   H113 6401   0.127   5.815   0.349 -0.1646 -3.2344 -1.3764
   25MOL   H114 6402   7.843   5.476   0.519  0.8535 -0.7551 -1.9862
   25MOL   H115 6403   7.881   5.603   0.635 -0.0312  0.0593 -0.2518
   25MOL   H116 6404   0.113   5.470   0.581  1.8084  0.5486 -1.6923
   25MOL   H117 6405   0.049   5.641   0.224  1.8011 -1.8027 -2.2378
   25MOL   H118 6406   7.854   5.510   0.309 -0.3062 -0.2445  2.0114
   25MOL   C119 6407   0.185   5.475   0.273 -0.2942 -0.2053  0.2936
   25MOL   C120 6408   0.205   5.444   0.124 -0.3956 -0.5056 -0.2019
   25MOL   C121 6409   0.288   5.508   0.039 -0.8976 -0.4378 -0.7643
   25MOL   C122 6410   0.376   5.628   0.074 -0.1373  0.3840 -0.5815
   25MOL   C123 6411   0.291   5.470   7.775  0.0264  0.0970 -0.1619
   25MOL   H124 6412   0.163   5.383   0.328 -0.0268  0.1464  0.9981
   25MOL   H125 6413   0.268   5.526   0.323  1.3414 -1.1667 -1.3710
   25MOL   H126 6414   0.142   5.367   0.081 -0.8147 -0.1833 -0.1715
   25MOL   H127 6415   0.344   5.702   0.000 -1.0624  2.4074  1.7514
   25MOL   H128 6416   0.485   5.621   0.075 -0.0449  1.6749 -0.5468
   25MOL   H129 6417   0.344   5.670   0.170  2.0609 -0.1165  0.3956
   25MOL   H130 6418   0.311   5.562   7.720  0.8670 -1.8448 -3.2123
   25MOL   H131 6419   0.206   5.416   7.733  1.2436 -0.8439 -1.4707
   25MOL   C132 6420   0.408   5.383   7.750  0.3454  1.3348 -0.2789
   25MOL   C133 6421   0.417   5.329   7.601 -0.0524  0.0251  0.2755
   25MOL   C134 6422   0.531   5.326   7.524  0.0612 -0.4713 -0.3054
   25MOL   C135 6423   0.674   5.350   7.575  0.2221 -0.6553 -0.8229
   25MOL   C136 6424   0.516   5.288   7.378 -0.2408 -0.1499  0.7143
   25MOL   H137 6425   0.397   5.294   7.812 -1.1227  2.5507  1.2191
   25MOL   H138 6426   0.503   5.432   7.773  0.7988  0.2743  0.1467
   25MOL   H139 6427   0.320   5.299   7.564 -0.2624  0.5503  0.4066
   25MOL   H140 6428   0.743   5.265   7.567  2.3670  0.9810 -0.1172
   25MOL   H141 6429   0.684   5.375   7.680  0.2541 -0.1401 -0.9466
   25MOL   H142 6430   0.724   5.437   7.533 -3.1478  0.9507 -1.6756
   25MOL   H143 6431   0.582   5.353   7.321  0.8874 -1.7126  0.1824
   25MOL   H144 6432   0.411   5.298   7.350  0.3048 -0.1360 -1.4135
   25MOL   C145 6433   0.558   5.137   7.351  0.0001  0.0524  0.2167
   25MOL   C146 6434   0.563   5.110   7.199 -0.2704  0.2751  0.0863
   25MOL   C147 6435   0.618   4.998   7.152 -0.7217 -0.0951 -1.2996
   25MOL   C148 6436   0.671   4.888   7.242  0.0210 -0.0798  0.9738
   25MOL   C149 6437   0.615   4.969   7.006 -0.8584  0.2353  0.0685
   25MOL   H150 6438   0.490   5.059   7.384  0.8561 -0.2263  1.3139
   25MOL   H151 6439   0.656   5.113   7.392 -0.9781 -2.2175  1.2899
   25MOL   H152 6440   0.515   5.179   7.132  1.3686 -0.7748 -2.2032
   25MOL   H153 6441   0.773   4.912   7.272  0.0737 -0.0445  0.7636
   25MOL   H154 6442   0.683   4.801   7.178 -0.1274 -0.7797  1.8850
   25MOL   H155 6443   0.619   4.865   7.336  0.0286  1.2743  1.3236
   25MOL   H156 6444   0.555   5.047   6.959 -1.4867 -0.7292 -0.7554
   25MOL   H157 6445   0.552   4.882   6.990  0.7635 -0.8272 -0.7209
   25MOL   C158 6446   0.761   4.951   6.941 -0.8873  0.0791 -0.2376
   25MOL   C159 6447   0.752   4.951   6.794  0.0762 -0.7130 -0.7882
   25MOL   C160 6448   0.817   4.869   6.704 -0.2686 -0.0767 -0.1036
   25MOL   C161 6449   0.906   4.749   6.747  0.8988 -0.2657 -0.2122
   25MOL   C162 6450   0.823   4.904   6.556  0.1614  0.2892 -0.4196
   25MOL   H163 6451   0.813   4.863   6.981 -0.4096  1.2430  1.7741
   25MOL   H164 6452   0.818   5.038   6.972  0.0249 -0.3761 -0.6324
   25MOL   H165 6453   0.702   5.041   6.760 -0.1359 -0.0446  1.2019
   25MOL   H166 6454   1.012   4.772   6.755  0.6000  0.9100  0.5255
   25MOL   H167 6455   0.892   4.667   6.678  1.0768  0.1882 -0.7902
   25MOL   H168 6456   0.873   4.718   6.846 -0.2680  0.5336 -0.3327
   25MOL   H169 6457   0.732   4.959   6.530 -1.3230 -1.4614  0.9332
   25MOL   H170 6458   0.834   4.807   6.506  0.2576  0.0763  0.0131
   25MOL   C171 6459   0.949   4.985   6.520  0.3229  0.5890  0.0310
   25MOL   C172 6460   0.974   5.122   6.592  0.5253 -0.0670 -0.0297
   25MOL   C173 6461   1.068   5.144   6.686  0.1080  0.2888 -0.1454
   25MOL   C174 6462   1.153   5.029   6.747  0.0079 -0.0932  0.0190
   25MOL   C175 6463   1.091   5.279   6.751  0.0424  0.5327 -1.0881
   25MOL   H176 6464   0.939   5.008   6.414 -0.7962  0.6189  0.1349
   25MOL   H177 6465   1.033   4.916   6.523 -0.7269 -0.6730  1.1129
   25MOL   H178 6466   0.906   5.202   6.566  1.3272  0.6696  0.1141
   25MOL   H179 6467   1.258   5.055   6.733 -0.1694  0.0498 -1.0379
   25MOL   H180 6468   1.134   4.934   6.698  0.3700 -0.7744  1.1880
   25MOL   H181 6469   1.131   5.014   6.853 -0.5125 -1.3013 -0.2599
   25MOL   H182 6470   1.025   5.345   6.693 -2.1105 -0.5309  0.1092
   25MOL   H183 6471   1.197   5.301   6.743  0.0953  0.9972  0.6906
   25MOL   C184 6472   1.056   5.273   6.901 -0.1944 -0.9584  0.2480
   25MOL   C185 6473   0.998   5.410   6.945 -0.5470  0.0869 -0.4699
   25MOL   C186 6474   0.866   5.432   6.970 -0.0943  0.6035  0.6238
   25MOL   C187 6475   0.755   5.336   6.934  0.2766  0.3074  0.4700
   25MOL   C188 6476   0.834   5.561   7.038  0.0172 -0.4529 -0.6782
   25MOL   H189 6477   1.148   5.261   6.959  0.5421  0.4002 -0.5932
   25MOL   H190 6478   0.999   5.189   6.940 -2.4818 -0.2170 -1.4060
   25MOL   H191 6479   1.076   5.477   6.977 -0.6150  1.1584 -2.4326
   25MOL   H192 6480   0.792   5.250   6.878 -1.0044  0.7012 -1.0289
   25MOL   H193 6481   0.691   5.396   6.869  2.5796  0.7454 -1.4483
   25MOL   H194 6482   0.702   5.303   7.023  0.7276 -1.2621  0.1763
   25MOL   H195 6483   0.772   5.627   6.977  0.1069 -0.2035 -0.5032
   25MOL   H196 6484   0.925   5.621   7.038 -1.4211  1.9311  2.8030
   25MOL   C197 6485   0.780   5.559   7.182 -0.0583  0.7898 -0.1990
   25MOL   C198 6486   0.780   5.698   7.240  0.1016  0.0609 -0.4288
   25MOL   C199 6487   0.866   5.747   7.329  0.1169 -0.3922 -0.0168
   25MOL   C200 6488   0.975   5.669   7.399  0.6234  0.2529 -0.4140
   25MOL   C201 6489   0.872   5.894   7.373  0.8551 -0.3119  0.3227
   25MOL   H202 6490   0.841   5.493   7.245 -0.6785  1.6446  1.3134
   25MOL   H203 6491   0.677   5.526   7.174  0.3617 -0.3996 -0.8304
   25MOL   H204 6492   0.716   5.764   7.184  1.2157  1.1272 -0.4763
   25MOL   H205 6493   0.990   5.569   7.357  0.2213 -0.1442  0.3540
   25MOL   H206 6494   0.958   5.645   7.504  1.2556  2.6621  0.2522
   25MOL   H207 6495   1.073   5.715   7.386  1.1234 -0.7159 -0.1864
   25MOL   H208 6496   0.967   5.932   7.334 -0.6926  1.4008 -1.9100
   25MOL   H209 6497   0.875   5.903   7.481  1.2830 -0.0339  0.2898
   25MOL   C210 6498   0.770   5.985   7.310  0.0585 -0.3692  0.4077
   25MOL   C211 6499   0.801   6.135   7.325 -0.1921  0.5447  0.1033
   25MOL   C212 6500   0.759   6.217   7.423 -0.5047  0.0217  0.2095
   25MOL   C213 6501   0.658   6.179   7.524 -0.1716 -0.1596 -0.4203
   25MOL   C214 6502   0.815   6.363   7.445  0.3932  0.0509  0.5089
   25MOL   H215 6503   0.672   5.949   7.342 -0.1855 -0.8243 -0.8393
   25MOL   H216 6504   0.782   5.971   7.203  0.7374  0.2109  0.4084
   25MOL   H217 6505   0.883   6.166   7.262 -1.6288  1.5028 -1.3001
   25MOL   H218 6506   0.700   6.104   7.592  0.2171 -0.1135 -0.6087
   25MOL   H219 6507   0.562   6.145   7.486 -1.6796  0.3666  2.7351
   25MOL   H220 6508   0.636   6.256   7.598 -1.2598  0.4630 -1.3717
   25MOL   H221 6509   0.849   6.358   7.548  1.5793 -2.4827  0.0374
   25MOL   H222 6510   0.733   6.435   7.449 -0.2829 -0.5768 -1.6313
   25MOL   C223 6511   0.915   6.413   7.337 -0.6862 -0.0770  0.0469
   25MOL   C224 6512   0.970   6.550   7.370 -0.0964 -0.8823  0.3750
   25MOL   C225 6513   1.097   6.589   7.360 -0.1507 -0.3202 -0.0639
   25MOL   C226 6514   1.209   6.499   7.311  0.3704 -0.2994  0.2840
   25MOL   C227 6515   1.150   6.721   7.413  0.0919 -0.2922 -0.2147
   25MOL   H228 6516   0.867   6.415   7.239 -1.0170  0.7297  0.2285
   25MOL   H229 6517   0.991   6.338   7.316  0.9797  2.3694 -3.1108
   25MOL   H230 6518   0.900   6.625   7.404  0.7741  0.5853 -0.9955
   25MOL   H231 6519   1.266   6.551   7.234 -0.4309 -0.4701 -0.4375
   25MOL   H232 6520   1.174   6.404   7.271  2.4330 -1.1937  0.5904
   25MOL   H233 6521   1.286   6.481   7.386  0.9767  0.1930 -0.2187
   25MOL   H234 6522   1.181   6.783   7.329  0.6604 -0.3220 -0.0260
   25MOL   H235 6523   1.241   6.700   7.468  0.1334 -2.6567 -1.0856
   25MOL   C236 6524   1.061   6.801   7.505  0.1460 -0.6020  0.1003
   25MOL   C237 6525   1.023   6.739   7.639  0.2359  0.3408 -0.0027
   25MOL   C238 6526   0.902   6.751   7.707 -0.2205  0.8978  0.3747
   25MOL   C239 6527   0.782   6.827   7.648 -0.1679  0.7634 -0.3699
   25MOL   C240 6528   0.884   6.685   7.840  0.3032  0.2445  0.5017
   25MOL   H241 6529   0.976   6.829   7.443  1.4316 -0.5982 -1.7205
   25MOL   H242 6530   1.105   6.898   7.532  1.0128 -1.2607  1.1087
   25MOL   H243 6531   1.097   6.673   7.680  0.8789 -0.5330 -2.4968
   25MOL   H244 6532   0.798   6.827   7.540  1.0123 -1.3255 -0.2256
   25MOL   H245 6533   0.792   6.930   7.681  0.2202 -0.2938  2.9956
   25MOL   H246 6534   0.680   6.790   7.658 -1.0361  3.3529  0.7611
   25MOL   H247 6535   0.835   6.748   0.032  1.1199 -1.5985  2.6728
   25MOL   H248 6536   0.985   6.671   7.878  0.7484  2.4411  0.1790
   25MOL   C249 6537   0.804   6.557   7.817  0.5608 -0.3533  0.4199
   25MOL   C250 6538   0.775   6.481   0.064  0.7019 -0.5814  0.2357
   25MOL   C251 6539   0.782   6.351   0.083  0.0361  0.4781  0.0503
   25MOL   C252 6540   0.845   6.248   7.870 -0.0358  0.1409 -0.5332
   25MOL   C253 6541   0.733   6.299   0.213  0.3089 -0.7030 -0.2975
   25MOL   H254 6542   0.850   6.479   7.757  0.5981  1.5376 -2.1050
   25MOL   H255 6543   0.718   6.592   7.759  1.5961  0.0080 -0.9190
   25MOL   H256 6544   0.732   6.547   0.138  0.2658 -0.1921 -0.3605
   25MOL   H257 6545   0.911   6.198   0.059 -0.8566  0.9554  0.8136
   25MOL   H258 6546   0.904   6.282   7.785 -2.0851  0.3231 -1.9027
   25MOL   H259 6547   0.784   6.161   7.844 -0.0237 -0.5897  1.7057
   25MOL   H260 6548   0.711   6.377   0.285  0.0309  0.5558 -1.7313
   25MOL   H261 6549   0.813   6.238   0.255  1.2118 -0.0875 -1.1231
   25MOL   H262 6550   0.644   6.236   0.200  0.4920 -0.9518 -0.3601
   26MOL     C1 6551   0.044   6.414   1.857 -0.2698 -0.0915  0.2888
   26MOL     C2 6552   0.180   6.457   1.916 -0.2842 -0.6887  1.4057
   26MOL     C3 6553   0.283   6.372   1.932  0.2233 -0.8919 -0.6125
   26MOL     C4 6554   0.288   6.225   1.884 -0.4373 -0.7107  0.0503
   26MOL     C5 6555   0.411   6.436   1.977 -0.3508 -0.5492 -0.0909
   26MOL     H6 6556   0.027   6.335   1.784 -0.0663  2.3194 -2.4881
   26MOL     H7 6557   7.858   6.379   1.934 -0.8517 -0.4999 -0.4073
   26MOL     H8 6558   0.193   6.558   1.950 -2.8499  1.0246 -2.3362
   26MOL     H9 6559   0.313   6.223   1.778 -1.6439 -1.4525 -0.2280
   26MOL    H10 6560   0.191   6.177   1.898 -1.1957  0.1468 -2.0943
   26MOL    H11 6561   0.359   6.159   1.934  0.6308 -0.5232 -1.2004
   26MOL    H12 6562   0.446   6.376   2.061 -1.2834 -2.5068 -1.0563
   26MOL    H13 6563   0.387   6.534   2.018 -3.0175 -0.6453 -1.3149
   26MOL    H14 6564   7.882   6.503   1.813 -1.6817 -1.0505 -0.2453
   26MOL    C15 6565   0.519   6.435   1.867  0.3551  0.6818 -0.0077
   26MOL    C16 6566   0.638   6.529   1.893 -0.9155 -0.3786 -0.2305
   26MOL    C17 6567   0.761   6.497   1.954  0.2095  0.2482  0.0273
   26MOL    C18 6568   0.798   6.355   1.998 -0.3857 -0.6067  0.4459
   26MOL    C19 6569   0.867   6.604   1.976  0.0464  0.6559  0.0473
   26MOL    H20 6570   0.471   6.471   1.777  2.4215 -0.6984 -1.7125
   26MOL    H21 6571   0.551   6.334   1.841 -3.3592 -1.1780  2.1214
   26MOL    H22 6572   0.619   6.631   1.863 -0.6014  0.2771  1.7463
   26MOL    H23 6573   0.846   6.344   2.095  0.7527 -2.5640 -0.3242
   26MOL    H24 6574   0.883   6.322   1.939  0.2614  0.4952  0.7517
   26MOL    H25 6575   0.717   6.283   1.981 -1.7437  1.6126 -2.9751
   26MOL    H26 6576   0.953   6.578   1.914 -0.6947  0.1197 -0.7691
   26MOL    H27 6577   0.908   6.605   2.077 -1.1467  3.1077  0.5323
   26MOL    C28 6578   0.824   6.747   1.936 -0.0876 -1.0044  0.4894
   26MOL    C29 6579   0.930   6.853   1.955  0.3362  0.3143 -0.1815
   26MOL    C30 6580   1.033   6.877   1.874 -0.8933 -0.3997 -0.2271
   26MOL    C31 6581   1.068   6.811   1.741 -0.2081  0.3384  0.4242
   26MOL    C32 6582   1.129   6.983   1.930  1.3836 -0.0652  0.6925
   26MOL    H33 6583   0.729   6.774   1.982 -0.4238 -0.8519 -0.2933
   26MOL    H34 6584   0.801   6.751   1.830  3.1144 -0.7243 -0.2591
   26MOL    H35 6585   0.922   6.917   2.041  0.4744  0.9360 -0.6309
   26MOL    H36 6586   1.174   6.786   1.740  0.2276  1.9010 -4.2412
   26MOL    H37 6587   1.059   6.882   1.660  0.5928  0.7230  0.6646
   26MOL    H38 6588   1.005   6.727   1.712 -1.9750  1.1834  1.7001
   26MOL    H39 6589   1.214   6.927   1.971  0.7424 -0.6407  1.2665
   26MOL    H40 6590   1.088   7.045   2.010 -1.7549 -1.2056  0.0351
   26MOL    C41 6591   1.187   7.070   1.818  0.3015 -1.0115  0.1185
   26MOL    C42 6592   1.259   7.183   1.882  0.5647 -0.0180  1.2227
   26MOL    C43 6593   1.387   7.178   1.914 -0.3294 -0.1266 -0.0628
   26MOL    C44 6594   1.483   7.059   1.889  0.0972  0.2929 -0.2967
   26MOL    C45 6595   1.449   7.290   1.984 -0.9240  0.0229 -0.3716
   26MOL    H46 6596   1.114   7.118   1.754  1.1884  1.0834  0.6443
   26MOL    H47 6597   1.256   7.003   1.765  2.0592  0.9749 -0.2056
   26MOL    H48 6598   1.212   7.280   1.894 -2.1375 -1.0746 -0.3340
   26MOL    H49 6599   1.482   6.985   1.970 -1.8972  1.6672  0.9752
   26MOL    H50 6600   1.585   7.093   1.872  0.8081 -1.3456  0.5851
   26MOL    H51 6601   1.464   7.011   1.794  1.8403 -2.0388  0.4919
   26MOL    H52 6602   1.519   7.252   2.058 -1.5787 -0.2007  0.1442
   26MOL    H53 6603   1.379   7.342   2.050  1.4095 -0.2449  2.4340
   26MOL    C54 6604   1.529   7.375   1.887  0.4109 -0.4847  0.5246
   26MOL    C55 6605   1.620   7.469   1.959 -0.1771 -0.3787  0.0393
   26MOL    C56 6606   1.728   7.539   1.905 -0.2022 -0.9323  0.2634
   26MOL    C57 6607   1.784   7.502   1.774 -0.3937  0.2238  0.5078
   26MOL    C58 6608   1.809   7.629   1.991 -0.1414 -0.2314 -0.2197
   26MOL    H59 6609   1.465   7.435   1.822 -0.5986 -0.0520  1.8872
   26MOL    H60 6610   1.589   7.308   1.827 -2.0886 -1.2153 -1.2274
   26MOL    H61 6611   1.600   7.489   2.063 -1.4223  0.7190 -0.3856
   26MOL    H62 6612   1.705   7.491   1.700  0.5667  3.3449 -1.0564
   26MOL    H63 6613   1.845   7.413   1.770 -2.5647 -1.2646 -0.2457
   26MOL    H64 6614   1.848   7.582   1.737 -0.7436 -0.2522 -1.1528
   26MOL    H65 6615   1.748   7.668   2.073  0.3677 -1.9090  0.9898
   26MOL    H66 6616   1.829   7.719   1.933  0.0725  2.1157  3.3755
   26MOL    C67 6617   1.940   7.574   2.035 -0.1911 -0.3965  0.1350
   26MOL    C68 6618   2.042   7.666   2.104 -0.3997  0.3993 -0.0598
   26MOL    C69 6619   2.113   7.645   2.217 -0.7096  0.8625 -0.2430
   26MOL    C70 6620   2.102   7.519   2.306 -0.1116 -0.0720  0.1971
   26MOL    C71 6621   2.212   7.750   2.258  0.4006  0.1951 -0.6217
   26MOL    H72 6622   1.992   7.550   1.943 -0.8209 -2.1347  0.2095
   26MOL    H73 6623   1.920   7.481   2.089  1.2684 -0.8585 -0.0917
   26MOL    H74 6624   2.038   7.758   2.048 -2.6213 -0.1106 -0.7747
   26MOL    H75 6625   2.108   7.551   2.410 -1.7651 -0.4756  0.4403
   26MOL    H76 6626   2.185   7.452   2.287  0.4417  1.1249 -1.7347
   26MOL    H77 6627   2.012   7.459   2.294  0.8897 -1.6309  0.4067
   26MOL    H78 6628   2.197   7.761   2.365  1.9595 -0.7708 -0.2871
   26MOL    H79 6629   2.197   7.849   2.215  2.0524  0.6297 -0.2297
   26MOL    C80 6630   2.355   7.693   2.241  0.0669 -0.3037 -0.1945
   26MOL    C81 6631   2.466   7.792   2.263 -0.1076  0.7347  0.0669
   26MOL    C82 6632   2.586   7.797   2.200  0.3048  0.0870  0.4570
   26MOL    C83 6633   2.617   7.701   2.093 -0.4373  0.5053 -0.1951
   26MOL    C84 6634   2.683   0.028   2.219 -0.4237  0.3472 -0.6492
   26MOL    H85 6635   2.357   7.662   2.137 -1.0671 -1.6778  0.1724
   26MOL    H86 6636   2.368   7.604   2.303  1.1063  0.5022  0.7591
   26MOL    H87 6637   2.456   7.861   2.345 -2.2365  1.3540 -0.6978
   26MOL    H88 6638   2.724   7.683   2.090 -0.5959 -0.9774  1.6818
   26MOL    H89 6639   2.598   7.750   1.998 -0.7708 -1.3485 -1.1008
   26MOL    H90 6640   2.577   7.602   2.114 -0.5216  0.1692 -1.8769
   26MOL    H91 6641   2.782   7.866   2.210 -0.1074  0.7260  0.7860
   26MOL    H92 6642   2.680   0.077   2.317 -2.0764  0.8524 -0.9459
   26MOL    C93 6643   2.667   0.136   2.112 -0.3790 -0.3504 -0.0155
   26MOL    C94 6644   2.763   0.249   2.153 -0.6316  0.2640  0.2633
   26MOL    C95 6645   2.890   0.270   2.103 -0.3520  0.0634 -0.1984
   26MOL    C96 6646   2.948   0.193   1.993  0.1455  0.1151  0.1499
   26MOL    C97 6647   2.974   0.389   2.146  0.3584 -0.2562  0.2575
   26MOL    H98 6648   2.570   0.186   2.106  1.1448  2.9520  1.4204
   26MOL    H99 6649   2.678   0.114   2.006  2.2026  0.9569 -0.0455
   26MOL   H100 6650   2.715   0.308   2.230  1.1685  0.0885  1.5639
   26MOL   H101 6651   3.056   0.185   2.004 -0.2613 -0.5981  4.7555
   26MOL   H102 6652   2.913   0.238   1.901  0.0762 -0.6612 -0.2104
   26MOL   H103 6653   2.908   0.091   1.992  1.6131 -0.4664 -0.9966
   26MOL   H104 6654   3.067   0.351   2.189  1.6394  0.7056 -1.6078
   26MOL   H105 6655   2.914   0.444   2.219  0.6449  0.4570 -0.0393
   26MOL   C106 6656   3.010   0.486   2.038 -0.3128 -0.1088 -0.0710
   26MOL   C107 6657   3.106   0.595   2.083 -0.5339 -0.6894 -0.1587
   26MOL   C108 6658   3.237   0.590   2.072 -0.9031  0.3886  0.1954
   26MOL   C109 6659   3.306   0.481   1.997  0.1937  0.4426  0.1226
   26MOL   C110 6660   3.329   0.697   2.123  0.2640  0.3983  0.0689
   26MOL   H111 6661   2.921   0.542   2.008  0.3038  0.9391  0.0049
   26MOL   H112 6662   3.060   0.433   1.957 -0.6061  0.2511 -0.4953
   26MOL   H113 6663   3.052   0.666   2.143  2.7353 -0.1340  2.2949
   26MOL   H114 6664   3.245   0.393   1.979  0.4564  0.2838  0.0150
   26MOL   H115 6665   3.385   0.436   2.057 -1.6807  0.6596  2.8555
   26MOL   H116 6666   3.348   0.518   1.904 -0.3473  1.3206  0.2237
   26MOL   H117 6667   3.270   0.780   2.164  0.7589  0.6107  0.3561
   26MOL   H118 6668   3.388   0.723   2.035 -1.6064 -3.2484 -2.3428
   26MOL   C119 6669   3.426   0.650   2.227 -0.5259  0.4517  0.6629
   26MOL   C120 6670   3.489   0.770   2.296 -0.2173  0.3539  0.1304
   26MOL   C121 6671   3.621   0.806   2.306 -0.3120 -0.1439 -0.6803
   26MOL   C122 6672   3.733   0.729   2.246 -0.2811 -0.2116 -0.4854
   26MOL   C123 6673   3.668   0.935   2.375 -0.5177  0.4278 -0.4359
   26MOL   H124 6674   3.500   0.583   2.184  1.0999 -0.5883  4.8028
   26MOL   H125 6675   3.367   0.601   2.305  1.1059 -0.7530  1.1710
   26MOL   H126 6676   3.418   0.840   2.338  2.3014  3.3409 -0.4455
   26MOL   H127 6677   3.692   0.665   2.168  0.4387 -1.1537 -0.0953
   26MOL   H128 6678   3.782   0.660   2.314 -2.3436 -0.3165  0.9579
   26MOL   H129 6679   3.805   0.797   2.201 -0.3875  0.2658  0.0636
   26MOL   H130 6680   3.586   0.999   2.408 -1.2862 -0.5906 -0.3332
   26MOL   H131 6681   3.735   0.995   2.314  0.8846  2.1795  2.7112
   26MOL   C132 6682   3.765   0.906   2.501  0.5599 -0.0155  1.1290
   26MOL   C133 6683   3.806   1.025   2.574  0.0222 -0.3895 -0.5767
   26MOL   C134 6684   3.932   1.075   2.575  0.1723  0.1303  0.1470
   26MOL   C135 6685   4.048   1.017   2.496 -0.2364 -0.4846  0.4137
   26MOL   C136 6686   3.984   1.190   2.661  0.9014 -0.2207 -0.0051
   26MOL   H137 6687   3.847   0.849   2.457 -0.7011 -0.9478 -0.0900
   26MOL   H138 6688   3.719   0.833   2.568  0.6873 -1.3109 -0.1607
   26MOL   H139 6689   3.728   1.077   2.628  2.0714  2.3971 -0.1928
   26MOL   H140 6690   4.034   0.915   2.460  0.0758  0.3950 -2.3003
   26MOL   H141 6691   4.134   1.010   2.563 -0.2390 -0.1796  0.4471
   26MOL   H142 6692   4.076   1.073   2.406  1.4238 -0.7936  0.7212
   26MOL   H143 6693   4.054   1.247   2.600 -0.9022  0.7920 -1.1789
   26MOL   H144 6694   4.042   1.143   2.740  2.1728  2.8674  0.9685
   26MOL   C145 6695   3.869   1.269   2.722 -0.6217 -0.0356 -0.1697
   26MOL   C146 6696   3.904   1.402   2.795  0.8647  0.1378 -0.2806
   26MOL   C147 6697   3.847   1.446   2.912  0.4837  0.3460  0.6712
   26MOL   C148 6698   3.736   1.371   2.983 -1.0440 -0.0338 -0.3030
   26MOL   C149 6699   3.883   1.584   2.964  0.2089  0.5475 -0.3632
   26MOL   H150 6700   3.815   1.203   2.789  1.5391 -0.6793  0.9490
   26MOL   H151 6701   3.799   1.300   2.644  2.1843 -0.4226 -2.9401
   26MOL   H152 6702   3.978   1.468   2.753  2.3526 -1.1874  0.2053
   26MOL   H153 6703   3.719   1.272   2.940  1.6440 -0.8511  0.4112
   26MOL   H154 6704   3.643   1.428   2.975 -0.5449  0.5762 -2.1638
   26MOL   H155 6705   3.768   1.348   3.084  1.9639 -1.7085 -1.5718
   26MOL   H156 6706   3.971   1.619   2.912 -0.7097 -0.6187 -2.7952
   26MOL   H157 6707   3.909   1.589   3.070  2.8277  1.7991 -1.0421
   26MOL   C158 6708   3.773   1.686   2.930 -0.4599 -0.9423 -0.9341
   26MOL   C159 6709   3.732   1.682   2.786 -0.6871 -0.1686  0.2779
   26MOL   C160 6710   3.758   1.775   2.691 -0.4753  0.1538 -0.1099
   26MOL   C161 6711   3.831   1.904   2.706 -1.0099  0.2775  0.1910
   26MOL   C162 6712   3.698   1.760   2.551 -0.0997 -0.6372  0.3306
   26MOL   H163 6713   3.812   1.783   2.961 -0.3929 -0.4531 -2.5033
   26MOL   H164 6714   3.686   1.667   2.993  0.4338 -0.5661  0.4342
   26MOL   H165 6715   3.690   1.591   2.745 -1.2675  0.6163 -0.8813
   26MOL   H166 6716   3.881   1.927   2.801 -0.2423  1.1277 -0.4100
   26MOL   H167 6717   3.766   1.986   2.675 -1.5369  0.5730  1.9734
   26MOL   H168 6718   3.910   1.910   2.632 -3.6447  0.6758 -2.6712
   26MOL   H169 6719   3.641   1.851   2.533  2.5121  0.6416 -1.9386
   26MOL   H170 6720   3.620   1.684   2.546 -0.4944 -0.2158  0.0568
   26MOL   C171 6721   3.802   1.758   2.438  0.2081 -0.2400 -0.9237
   26MOL   C172 6722   3.746   1.723   2.298 -0.3154  0.7463  0.2839
   26MOL   C173 6723   3.758   1.785   2.179 -0.3133 -0.3365  0.5652
   26MOL   C174 6724   3.825   1.924   2.158  0.4337 -0.2165  0.0600
   26MOL   C175 6725   3.700   1.724   2.052 -0.6005 -0.1484 -0.2205
   26MOL   H176 6726   3.873   1.679   2.465 -1.2652 -0.8531  1.2905
   26MOL   H177 6727   3.861   1.849   2.429 -0.9276  0.7547  1.3347
   26MOL   H178 6728   3.688   1.633   2.298  1.7700 -0.6342 -0.0813
   26MOL   H179 6729   3.847   1.981   2.248  1.9717  1.0257 -1.0658
   26MOL   H180 6730   3.754   1.988   2.105 -0.5652 -0.7910  0.7099
   26MOL   H181 6731   3.916   1.908   2.100 -1.1627  1.1500 -2.9417
   26MOL   H182 6732   3.668   1.623   2.075 -4.3293  0.4158 -2.6298
   26MOL   H183 6733   3.780   1.708   1.980 -0.1204 -2.2530  0.7271
   26MOL   C184 6734   3.584   1.800   1.984  0.4704  0.0779  0.7655
   26MOL   C185 6735   3.500   1.707   1.901  0.5207 -0.2623  0.2655
   26MOL   C186 6736   3.485   1.692   1.769 -0.0393 -0.4723  0.7345
   26MOL   C187 6737   3.570   1.782   1.671 -0.1862 -0.8061 -0.0418
   26MOL   C188 6738   3.391   1.591   1.704  0.2198  0.0362 -0.4668
   26MOL   H189 6739   3.610   1.890   1.928  0.8096 -1.9489 -2.4430
   26MOL   H190 6740   3.529   1.846   2.067  0.7341  0.3078  0.8140
   26MOL   H191 6741   3.441   1.634   1.955 -2.2435  1.6535 -0.0455
   26MOL   H192 6742   3.641   1.723   1.612 -0.2276 -0.6353 -0.2614
   26MOL   H193 6743   3.631   1.860   1.716 -1.4122 -0.4711  1.0698
   26MOL   H194 6744   3.524   1.830   1.585  2.0154 -0.4572 -1.0671
   26MOL   H195 6745   3.309   1.643   1.655 -1.8155 -1.9237  0.7485
   26MOL   H196 6746   3.351   1.526   1.783 -0.1352 -0.4571 -1.0518
   26MOL   C197 6747   3.454   1.497   1.597  0.4454 -0.0128 -0.7447
   26MOL   C198 6748   3.350   1.402   1.547  0.6710 -0.2227  0.3801
   26MOL   C199 6749   3.264   1.429   1.440  0.0351 -0.1018 -0.4199
   26MOL   C200 6750   3.281   1.555   1.356  0.1710 -0.4616 -0.1304
   26MOL   C201 6751   3.163   1.326   1.399  0.0844  0.1981 -0.4447
   26MOL   H202 6752   3.538   1.439   1.637  2.9178  2.0442 -2.7837
   26MOL   H203 6753   3.503   1.549   1.515  1.7495  0.0945  0.0727
   26MOL   H204 6754   3.343   1.315   1.610 -0.3257  1.3200  2.4371
   26MOL   H205 6755   3.333   1.638   1.403  2.0605 -1.3373 -0.6121
   26MOL   H206 6756   3.181   1.598   1.349 -0.5803 -1.8914  1.3873
   26MOL   H207 6757   3.332   1.546   1.260  0.1880  0.5986 -0.2221
   26MOL   H208 6758   3.152   1.256   1.481  0.0660 -0.4921 -1.0319
   26MOL   H209 6759   3.205   1.267   1.318  0.0561 -0.2931 -0.1033
   26MOL   C210 6760   3.025   1.363   1.342  0.7484  0.4478 -0.0276
   26MOL   C211 6761   2.920   1.258   1.372 -0.1972 -0.5210 -0.5517
   26MOL   C212 6762   2.831   1.211   1.279 -0.4231  0.3526 -0.6778
   26MOL   C213 6763   2.824   1.258   1.136 -0.1967  0.3051 -0.0663
   26MOL   C214 6764   2.729   1.102   1.322 -0.4073  0.8427  0.1728
   26MOL   H215 6765   3.028   1.386   1.235  0.1739  1.0213  0.0747
   26MOL   H216 6766   2.990   1.443   1.407  1.8297  0.2815  0.7651
   26MOL   H217 6767   2.918   1.227   1.475  0.2359  0.8700 -0.1167
   26MOL   H218 6768   2.909   1.238   1.070 -0.0409  2.0826 -0.4542
   26MOL   H219 6769   2.812   1.367   1.138 -1.0234  0.2267 -0.7338
   26MOL   H220 6770   2.745   1.204   1.085 -0.7118  2.0963 -1.2383
   26MOL   H221 6771   2.745   1.014   1.260  0.4262  2.1382 -1.4810
   26MOL   H222 6772   2.629   1.133   1.292 -1.7570 -0.3570  3.1468
   26MOL   C223 6773   2.726   1.072   1.472  0.3230 -0.9456  0.2453
   26MOL   C224 6774   2.610   0.971   1.495  0.7101 -0.2633  0.8357
   26MOL   C225 6775   2.500   0.980   1.572  0.0283  0.2203  0.0458
   26MOL   C226 6776   2.472   1.112   1.650  0.1385  0.4001 -0.2872
   26MOL   C227 6777   2.401   0.863   1.575 -0.4418  0.3647  0.2086
   26MOL   H228 6778   2.714   1.167   1.524  0.0857 -1.9203  1.9876
   26MOL   H229 6779   2.818   1.019   1.495  1.0554  0.2723  0.1948
   26MOL   H230 6780   2.615   0.880   1.437 -0.1950  0.3918 -0.2903
   26MOL   H231 6781   2.374   1.150   1.623 -0.3371 -0.5068  0.1370
   26MOL   H232 6782   2.530   1.198   1.616 -1.9743  1.7894 -0.4417
   26MOL   H233 6783   2.476   1.089   1.757 -0.6603 -0.1009 -0.3641
   26MOL   H234 6784   2.349   0.859   1.671  0.5759 -0.2744  0.7400
   26MOL   H235 6785   2.465   0.775   1.569  0.4082  0.9032  1.2075
   26MOL   C236 6786   2.305   0.880   1.455 -0.2727  0.7900 -0.0827
   26MOL   C237 6787   2.218   0.760   1.436  0.0879 -0.7165  0.2348
   26MOL   C238 6788   2.092   0.760   1.393 -0.7114 -0.3680 -0.5739
   26MOL   C239 6789   2.016   0.885   1.347  0.1910  0.1892  0.5183
   26MOL   C240 6790   2.031   0.625   1.362  0.2413 -0.3584  0.1563
   26MOL   H241 6791   2.359   0.891   1.361 -2.5379 -1.3592 -1.7203
   26MOL   H242 6792   2.243   0.969   1.468 -0.9874  0.2870 -0.0316
   26MOL   H243 6793   2.267   0.666   1.455 -1.1613 -1.0724  1.8232
   26MOL   H244 6794   1.921   0.886   1.400 -2.5452 -3.2418 -3.9016
   26MOL   H245 6795   2.001   0.881   1.239 -1.1002  0.9951  0.6583
   26MOL   H246 6796   2.064   0.983   1.355 -0.0438  0.3984 -0.5236
   26MOL   H247 6797   2.107   0.548   1.372  0.0917 -0.1951  2.6954
   26MOL   H248 6798   1.998   0.620   1.258 -1.0303  0.3757  0.5100
   26MOL   C249 6799   1.910   0.602   1.452 -0.7306 -0.7876  0.0632
   26MOL   C250 6800   1.868   0.460   1.433  0.7945 -0.0277 -0.7212
   26MOL   C251 6801   1.742   0.407   1.431  0.9592  0.0116 -0.0206
   26MOL   C252 6802   1.618   0.493   1.441 -0.7981  0.5905 -0.8862
   26MOL   C253 6803   1.718   0.258   1.418  0.3872 -0.0743  0.3861
   26MOL   H254 6804   1.835   0.680   1.438 -0.9506 -0.9482  0.3472
   26MOL   H255 6805   1.945   0.604   1.555  0.5871 -1.0647 -0.3727
   26MOL   H256 6806   1.948   0.387   1.434  0.4632 -0.3959  2.0960
   26MOL   H257 6807   1.634   0.576   1.511 -3.1205  0.9384 -0.7296
   26MOL   H258 6808   1.534   0.444   1.489 -2.4743  1.8291 -2.4679
   26MOL   H259 6809   1.578   0.524   1.344 -0.7520  1.1579 -0.7300
   26MOL   H260 6810   1.658   0.216   1.499 -0.8423  1.2128  0.1751
   26MOL   H261 6811   1.815   0.211   1.402  0.2647 -0.6187  1.2541
   26MOL   H262 6812   1.649   0.249   1.333  2.0530  0.3875 -1.0462
   27MOL     C1 6813   7.272   2.606   3.014 -0.2321 -0.3260  0.2608
   27MOL     C2 6814   7.413   2.672   3.012 -0.3391 -0.0809  0.3405
   27MOL     C3 6815   7.512   2.642   2.925 -0.3364  1.0537 -0.4296
   27MOL     C4 6816   7.515   2.535   2.823  0.0098  0.5631  0.3363
   27MOL     C5 6817   7.633   2.732   2.930 -0.2849  0.1557  0.4773
   27MOL     H6 6818   7.263   2.526   2.940  1.1277  0.4549 -0.7715
   27MOL     H7 6819   7.236   2.564   3.109 -1.0610  0.1652  0.1743
   27MOL     H8 6820   7.417   2.751   3.086 -2.2291 -1.1749  1.6379
   27MOL     H9 6821   7.559   2.566   2.728  2.1513  1.0963  1.4534
   27MOL    H10 6822   7.417   2.498   2.794  0.7275 -0.5678 -0.7287
   27MOL    H11 6823   7.577   2.452   2.856 -0.8817 -0.0472  0.4920
   27MOL    H12 6824   7.602   2.829   2.968  0.7966  0.0287  1.7135
   27MOL    H13 6825   7.668   2.733   2.827 -0.0226  0.3943  0.5684
   27MOL    H14 6826   7.199   2.675   2.971  0.6003 -0.8892 -2.1087
   27MOL    C15 6827   7.740   2.678   3.021  0.2045 -0.2801  0.2594
   27MOL    C16 6828   7.874   2.752   3.023 -0.3761 -0.2834 -0.4474
   27MOL    C17 6829   0.056   2.810   3.131  0.0328  0.3519  0.6071
   27MOL    C18 6830   0.001   2.799   3.278  0.2099  0.2208  1.0022
   27MOL    C19 6831   0.190   2.883   3.118 -0.2915  0.3537 -0.5188
   27MOL    H20 6832   7.749   2.570   3.013  0.6358 -0.4798  2.7476
   27MOL    H21 6833   7.698   2.685   3.122  2.9915 -2.1929  1.6211
   27MOL    H22 6834   0.036   2.763   2.926  0.3075 -1.2510 -0.2432
   27MOL    H23 6835   0.054   2.721   3.331  2.4271 -0.9250 -2.7139
   27MOL    H24 6836   7.775   2.785   3.285  0.1998  1.2687  3.3648
   27MOL    H25 6837   0.006   2.894   3.332 -2.5746  1.0921 -0.1502
   27MOL    H26 6838   0.241   2.813   3.052  0.1057  0.0941  0.0613
   27MOL    H27 6839   0.241   2.896   3.213  0.0251  1.9604 -0.8978
   27MOL    C28 6840   0.179   3.022   3.057  0.8878  0.1048 -0.0365
   27MOL    C29 6841   0.304   3.098   3.049 -0.2758 -0.5577 -0.6771
   27MOL    C30 6842   0.385   3.096   2.949  0.8836  0.0606 -0.1861
   27MOL    C31 6843   0.362   3.017   2.820  0.1231 -0.1204  0.6931
   27MOL    C32 6844   0.512   3.181   2.953  0.9064 -0.2325  0.0770
   27MOL    H33 6845   0.110   3.096   3.098  1.7981  0.2395  1.2770
   27MOL    H34 6846   0.135   2.993   2.962  1.3844  2.0807 -0.8799
   27MOL    H35 6847   0.332   3.161   3.132 -0.4940 -1.0893 -0.1988
   27MOL    H36 6848   0.448   2.959   2.786  1.2148  0.3500  2.5717
   27MOL    H37 6849   0.346   3.084   2.736 -1.7653  1.7253  2.4446
   27MOL    H38 6850   0.274   2.953   2.819 -1.1016  1.5175  0.0489
   27MOL    H39 6851   0.502   3.269   3.017 -0.4173  0.8065 -1.5363
   27MOL    H40 6852   0.525   3.223   2.854  0.7573 -1.0968 -0.3187
   27MOL    C41 6853   0.633   3.102   2.996  0.7124  0.3082 -0.2074
   27MOL    C42 6854   0.757   3.179   3.017  0.6448 -0.4220 -0.4366
   27MOL    C43 6855   0.866   3.139   3.088 -0.0212  0.2972  0.2498
   27MOL    C44 6856   0.884   3.010   3.159  0.0283 -0.6351 -0.0842
   27MOL    C45 6857   0.983   3.228   3.122 -0.0021  0.1841 -0.3287
   27MOL    H46 6858   0.652   3.027   2.920  0.1488 -0.9142  0.8413
   27MOL    H47 6859   0.601   3.053   3.088  0.0443  0.3817 -0.3998
   27MOL    H48 6860   0.756   3.276   2.969 -1.2789  0.1311  0.6498
   27MOL    H49 6861   0.988   2.978   3.156  0.2407 -0.0853  0.9383
   27MOL    H50 6862   0.825   2.925   3.124 -0.0807 -1.4028  1.8565
   27MOL    H51 6863   0.863   3.017   3.266  0.2698  0.7656 -0.1144
   27MOL    H52 6864   0.991   3.228   3.230 -0.9431  2.3173 -0.2144
   27MOL    H53 6865   0.958   3.332   3.096 -3.4579 -0.4475  0.1524
   27MOL    C54 6866   1.115   3.196   3.044 -0.1294  0.9571  0.4310
   27MOL    C55 6867   1.229   3.263   3.115  0.5111 -0.1127 -0.4920
   27MOL    C56 6868   1.354   3.250   3.091  0.8173 -0.2726  0.1104
   27MOL    C57 6869   1.396   3.173   2.971  0.1820  0.2458  0.0462
   27MOL    C58 6870   1.470   3.299   3.169  0.5999 -0.0006 -0.4178
   27MOL    H59 6871   1.107   3.226   2.940  1.2429 -3.4328 -1.0425
   27MOL    H60 6872   1.135   3.089   3.034 -0.0385  1.1064 -1.0991
   27MOL    H61 6873   1.205   3.317   3.205  1.0762 -0.0411 -0.3863
   27MOL    H62 6874   1.332   3.175   2.883 -2.7698 -2.2095  2.0402
   27MOL    H63 6875   1.411   3.069   3.001  0.1982  0.0809 -0.5210
   27MOL    H64 6876   1.490   3.202   2.924  0.2510 -0.3250 -0.1671
   27MOL    H65 6877   1.540   3.339   3.095  0.6152  1.1055  0.1929
   27MOL    H66 6878   1.512   3.213   3.222  0.2953 -0.2207 -0.5320
   27MOL    C67 6879   1.433   3.408   3.276  0.0394  0.2690  0.1001
   27MOL    C68 6880   1.553   3.477   3.333 -0.1341 -0.2594 -0.4713
   27MOL    C69 6881   1.605   3.466   3.457  1.1871  0.0923 -0.5975
   27MOL    C70 6882   1.537   3.376   3.552  0.3545 -0.4393  0.2454
   27MOL    C71 6883   1.736   3.528   3.500 -0.3268 -0.9083  0.6582
   27MOL    H72 6884   1.360   3.376   3.350 -1.4757  2.9527 -0.1496
   27MOL    H73 6885   1.375   3.486   3.226  0.9790  0.1351 -1.2432
   27MOL    H74 6886   1.609   3.531   3.258  0.7090 -2.8323 -1.7623
   27MOL    H75 6887   1.539   3.279   3.504  0.6782 -0.8464  1.0632
   27MOL    H76 6888   1.433   3.408   3.551  0.6155  0.4357 -1.6810
   27MOL    H77 6889   1.582   3.353   3.649 -0.4793 -0.9980  0.4983
   27MOL    H78 6890   1.754   3.594   3.415  0.9198 -1.6100  0.3553
   27MOL    H79 6891   1.813   3.451   3.513 -0.1599 -0.7485  0.6184
   27MOL    C80 6892   1.730   3.625   3.623 -0.5404  0.0750 -0.4439
   27MOL    C81 6893   1.662   3.751   3.597  0.0596  0.8769  0.1047
   27MOL    C82 6894   1.707   3.877   3.625 -0.5325  0.0271  0.3181
   27MOL    C83 6895   1.822   3.908   3.710  0.4365 -0.1166 -0.9153
   27MOL    C84 6896   1.640   3.995   3.566  0.2702 -0.1053 -0.3161
   27MOL    H85 6897   1.835   3.632   3.650 -0.0060 -1.8123 -1.8808
   27MOL    H86 6898   1.678   3.566   3.699 -1.7385 -0.4263 -1.6349
   27MOL    H87 6899   1.575   3.743   3.533  1.8388 -1.2741 -2.1419
   27MOL    H88 6900   1.873   3.821   3.749  0.6751  0.2869 -0.3132
   27MOL    H89 6901   1.794   3.962   3.801 -2.6635 -0.9279 -1.3454
   27MOL    H90 6902   1.894   3.982   3.675  0.8590  0.8275  1.8485
   27MOL    H91 6903   1.614   3.968   3.463 -0.8435 -1.1131  0.2073
   27MOL    H92 6904   1.721   4.063   3.542  2.0054 -0.9587  2.9160
   27MOL    C93 6905   1.534   4.066   3.659 -0.4534  0.2258 -0.0216
   27MOL    C94 6906   1.472   4.188   3.599 -0.1857 -0.2996 -0.2580
   27MOL    C95 6907   1.358   4.200   3.533 -0.0583  0.6548 -0.0978
   27MOL    C96 6908   1.272   4.086   3.488  0.1127  0.2139  0.3472
   27MOL    C97 6909   1.303   4.329   3.485 -0.3364 -0.8788 -0.5017
   27MOL    H98 6910   1.583   4.090   3.753 -0.4032  2.1157 -0.5108
   27MOL    H99 6911   1.457   3.994   3.687 -0.0739 -0.5204 -0.8988
   27MOL   H100 6912   1.533   4.272   3.629 -1.0994 -0.2557  1.5861
   27MOL   H101 6913   1.308   3.985   3.510  1.0260  0.2390 -1.0060
   27MOL   H102 6914   1.278   4.092   3.380 -1.3018 -1.1452  0.1679
   27MOL   H103 6915   1.171   4.090   3.530 -0.4953  0.2338 -1.0701
   27MOL   H104 6916   1.202   4.327   3.525  0.0308 -0.0137  0.4827
   27MOL   H105 6917   1.300   4.323   3.376 -0.9578 -1.9750 -0.4352
   27MOL   C106 6918   1.350   4.470   3.525 -0.2771 -0.0525  0.1727
   27MOL   C107 6919   1.267   4.571   3.450  0.4700  0.2213 -0.6056
   27MOL   C108 6920   1.211   4.685   3.501  0.4903 -0.2650 -0.6658
   27MOL   C109 6921   1.235   4.726   3.652  0.3483  0.0616  0.0247
   27MOL   C110 6922   1.125   4.778   3.410  0.1022  0.3132  0.2821
   27MOL   H111 6923   1.456   4.494   3.515  0.2063 -0.8536  2.9292
   27MOL   H112 6924   1.342   4.483   3.633  2.4647 -0.3850  0.4628
   27MOL   H113 6925   1.251   4.545   3.347  1.2960 -1.6349 -0.2702
   27MOL   H114 6926   1.327   4.688   3.695  0.1813  1.6881  1.9175
   27MOL   H115 6927   1.160   4.685   3.720 -1.0924 -0.3524 -1.7399
   27MOL   H116 6928   1.234   4.834   3.670  0.2952  0.6423 -3.1378
   27MOL   H117 6929   1.122   4.730   3.312 -2.0114 -0.5666  0.7527
   27MOL   H118 6930   1.179   4.872   3.410  0.9480 -0.1628 -0.1002
   27MOL   C119 6931   0.986   4.826   3.451  0.7476  0.1252  0.0991
   27MOL   C120 6932   0.907   4.888   3.334  0.0807 -0.3864  0.1903
   27MOL   C121 6933   0.778   4.911   3.324  0.2334 -0.3719 -0.8088
   27MOL   C122 6934   0.674   4.866   3.428  0.5720  0.9369  0.0257
   27MOL   C123 6935   0.715   4.987   3.209  0.5619 -0.2405 -0.5693
   27MOL   H124 6936   1.000   4.895   3.535  1.4350 -0.3680  0.3941
   27MOL   H125 6937   0.935   4.740   3.495  0.2831  0.0896 -0.5089
   27MOL   H126 6938   0.967   4.925   3.252  1.3632 -2.2120  0.2891
   27MOL   H127 6939   0.713   4.800   3.505 -1.5612  1.5488  1.6892
   27MOL   H128 6940   0.610   4.805   3.365 -0.0422  0.6566  0.9134
   27MOL   H129 6941   0.611   4.944   3.472 -1.8240 -1.0528  0.2036
   27MOL   H130 6942   0.630   4.928   3.175 -0.4211  2.1812 -2.4644
   27MOL   H131 6943   0.790   4.993   3.130  3.3306 -0.5732  1.9175
   27MOL   C132 6944   0.666   5.129   3.246 -0.7195 -0.3078 -0.2609
   27MOL   C133 6945   0.574   5.199   3.150  1.0181 -0.2661  0.2253
   27MOL   C134 6946   0.602   5.266   3.037 -0.2370  0.4731  0.0819
   27MOL   C135 6947   0.750   5.271   2.986 -0.2537 -0.1054 -0.1326
   27MOL   C136 6948   0.501   5.346   2.954 -0.5845 -0.1109  0.1274
   27MOL   H137 6949   0.748   5.194   3.277  1.3942 -1.7695 -2.6243
   27MOL   H138 6950   0.604   5.134   3.336 -1.5640  1.3236 -0.9058
   27MOL   H139 6951   0.472   5.200   3.184  0.3380  0.0296 -1.7430
   27MOL   H140 6952   0.784   5.375   2.987 -0.5039 -0.0121  1.6722
   27MOL   H141 6953   0.754   5.235   2.884 -0.9878 -1.0154  0.1579
   27MOL   H142 6954   0.815   5.222   3.059  0.9496  2.7919  0.8454
   27MOL   H143 6955   0.540   5.443   2.919 -0.5420  0.0135  0.5209
   27MOL   H144 6956   0.411   5.367   3.011 -1.8065 -1.5837 -1.2246
   27MOL   C145 6957   0.455   5.261   2.835  0.5540 -0.1287  0.2187
   27MOL   C146 6958   0.352   5.315   2.727 -0.2945 -0.4885 -0.5016
   27MOL   C147 6959   0.242   5.251   2.685 -0.0548 -0.0386  1.0029
   27MOL   C148 6960   0.204   5.106   2.708 -0.4295 -0.7673 -0.0045
   27MOL   C149 6961   0.166   5.333   2.579  0.1339  0.2979 -0.0564
   27MOL   H150 6962   0.432   5.163   2.876 -0.0349  0.8960  2.3967
   27MOL   H151 6963   0.547   5.252   2.776 -0.4679 -2.9570 -1.0628
   27MOL   H152 6964   0.371   5.416   2.695  1.6404 -0.2603  1.2642
   27MOL   H153 6965   0.192   5.043   2.620  3.6538 -0.8137 -0.6149
   27MOL   H154 6966   0.113   5.111   2.768 -1.8539  3.0709 -2.3074
   27MOL   H155 6967   0.274   5.057   2.775 -1.2519 -1.7966  0.1197
   27MOL   H156 6968   0.122   5.272   2.500 -1.2865  2.2346 -0.7769
   27MOL   H157 6969   0.243   5.392   2.530  0.3190 -0.8128 -1.1480
   27MOL   C158 6970   0.057   5.416   2.646 -0.0361 -0.5223  0.1523
   27MOL   C159 6971   7.847   5.470   2.538 -0.0247  0.1088  0.0976
   27MOL   C160 6972   7.795   5.600   2.530 -0.2419  0.6988  0.3500
   27MOL   C161 6973   7.845   5.713   2.617  0.0463  0.6442 -0.2869
   27MOL   C162 6974   7.694   5.633   2.417 -0.5101  0.0115 -0.2331
   27MOL   H163 6975   0.111   5.492   2.702  1.1492 -2.2792  1.4698
   27MOL   H164 6976   0.000   5.364   2.722 -0.1797 -1.0333 -0.2967
   27MOL   H165 6977   7.818   5.397   2.464 -1.1881  0.2359  0.4274
   27MOL   H166 6978   7.833   5.814   2.576 -2.5569  0.2021 -0.7249
   27MOL   H167 6979   0.065   5.712   2.653  0.1505  0.0695 -0.5908
   27MOL   H168 6980   7.781   5.724   2.704 -0.2481  2.8465 -0.7345
   27MOL   H169 6981   7.685   5.552   2.346  2.2169 -0.1346 -0.4365
   27MOL   H170 6982   7.733   5.710   2.351  0.9843 -1.3615 -0.9762
   27MOL   C171 6983   7.556   5.662   2.467  0.1908 -0.1839 -0.4000
   27MOL   C172 6984   7.561   5.787   2.550  0.0756 -0.9956 -0.0303
   27MOL   C173 6985   7.581   5.910   2.512 -0.0660 -0.8289  1.7688
   27MOL   C174 6986   7.629   5.953   2.370  0.1630  0.3268  0.5444
   27MOL   C175 6987   7.578   6.027   2.618 -0.7485 -0.9145 -0.3560
   27MOL   H176 6988   7.523   5.576   2.526 -0.0430  0.8090  0.9311
   27MOL   H177 6989   7.502   5.680   2.374 -0.0468  2.1619  0.1692
   27MOL   H178 6990   7.537   5.776   2.655  0.7104 -2.0212  0.0158
   27MOL   H179 6991   7.736   5.946   2.387 -0.1099  0.6664  2.6171
   27MOL   H180 6992   7.600   6.054   2.340  2.1784  0.7558  0.0194
   27MOL   H181 6993   7.589   5.881   2.299  1.8614 -0.6139  0.5161
   27MOL   H182 6994   7.519   5.981   2.697  0.7308  0.1361  1.3841
   27MOL   H183 6995   7.512   6.106   2.582 -2.6234 -1.6862  1.3118
   27MOL   C184 6996   7.711   6.064   2.679  0.6171  0.4861  0.2526
   27MOL   C185 6997   7.694   6.156   2.790  0.4213 -0.0796 -0.5707
   27MOL   C186 6998   7.735   6.285   2.811 -0.1024  1.0598  0.0015
   27MOL   C187 6999   7.816   6.359   2.701  0.5925 -0.4005 -0.5142
   27MOL   C188 7000   7.691   6.366   2.927 -0.2926 -0.1331 -0.0208
   27MOL   H189 7001   7.790   6.082   2.605 -0.6601  1.7094 -0.8424
   27MOL   H190 7002   7.746   5.974   2.730  2.4367  0.6039 -0.7335
   27MOL   H191 7003   7.629   6.104   2.859  0.3892  2.1421  1.0894
   27MOL   H192 7004   0.038   6.345   2.726  0.2406  0.6159  1.6104
   27MOL   H193 7005   7.788   6.464   2.706  0.6799 -0.4732  1.9013
   27MOL   H194 7006   7.799   6.318   2.601 -1.6155 -0.6904 -0.0446
   27MOL   H195 7007   7.630   6.304   2.993  1.0062 -2.0350 -0.5588
   27MOL   H196 7008   7.634   6.452   2.894  1.9715  0.5571 -2.3247
   27MOL   C197 7009   7.813   6.404   3.017  0.1748 -0.0389 -0.3523
   27MOL   C198 7010   7.785   6.476   3.143 -0.4929  0.0284  0.2099
   27MOL   C199 7011   7.878   6.493   3.241  0.9364  0.1544 -0.7614
   27MOL   C200 7012   0.136   6.445   3.226 -0.0407 -0.0564  0.3969
   27MOL   C201 7013   7.832   6.549   3.377 -0.3358 -0.0067 -0.1642
   27MOL   H202 7014   7.882   6.464   2.958 -0.0035  2.1264  1.5519
   27MOL   H203 7015   7.871   6.314   3.035  0.7060 -0.3443 -3.2950
   27MOL   H204 7016   7.683   6.509   3.158  0.0783  1.8639  0.0425
   27MOL   H205 7017   0.197   6.533   3.206 -0.5116  0.0403 -0.6161
   27MOL   H206 7018   0.151   6.365   3.154  0.0800 -0.0183  0.3803
   27MOL   H207 7019   0.154   6.393   3.320 -0.7347  1.2618  1.2784
   27MOL   H208 7020   7.852   6.469   3.447  2.7415  2.8375  2.4246
   27MOL   H209 7021   7.724   6.566   3.382 -0.3344 -0.5690  2.2101
   27MOL   C210 7022   0.007   6.678   3.416  0.2117 -0.9153  0.0694
   27MOL   C211 7023   7.830   6.723   3.548 -0.3324  0.2176  0.5286
   27MOL   C212 7024   7.739   6.820   3.568 -0.1351  0.0232  0.0909
   27MOL   C213 7025   7.672   6.897   3.458  0.1313 -0.0857  0.2582
   27MOL   C214 7026   7.681   6.844   3.709  0.2417 -0.2997  0.5459
   27MOL   H215 7027   7.871   6.752   3.338 -1.7991  1.1041  2.3839
   27MOL   H216 7028   0.115   6.689   3.423  0.0726 -1.3909  3.8751
   27MOL   H217 7029   7.860   6.655   3.626 -1.8536  0.2765  1.1772
   27MOL   H218 7030   7.709   6.883   3.356 -0.0593 -2.4218  0.4757
   27MOL   H219 7031   7.652   7.002   3.477  1.5005  0.2467 -0.1404
   27MOL   H220 7032   7.574   6.855   3.434  0.9547 -1.1941 -1.2421
   27MOL   H221 7033   7.677   6.950   3.732  1.3784  0.1793 -1.3611
   27MOL   H222 7034   7.746   6.794   3.780  1.7041  0.6093 -0.1363
   27MOL   C223 7035   7.534   6.802   3.717 -0.7277 -0.6332  0.5422
   27MOL   C224 7036   7.472   6.807   3.859  0.0626 -0.5273  0.1953
   27MOL   C225 7037   7.347   6.777   3.887 -0.3959 -0.7761 -0.3872
   27MOL   C226 7038   7.238   6.750   3.790 -0.0997 -0.0065  0.6661
   27MOL   C227 7039   7.288   6.782   4.025 -0.2839  0.1459  0.3159
   27MOL   H228 7040   7.519   6.703   3.675  2.2865 -1.4690  1.3570
   27MOL   H229 7041   7.476   6.871   3.656 -0.4617 -0.4791  0.4621
   27MOL   H230 7042   7.531   6.856   3.934  4.1380 -2.3082 -1.6653
   27MOL   H231 7043   7.199   6.648   3.796  1.5457 -0.5974  1.8752
   27MOL   H232 7044   7.271   6.760   3.687 -2.4768 -1.0845 -0.2238
   27MOL   H233 7045   7.158   6.824   3.798 -0.2403  0.3545 -3.2116
   27MOL   H234 7046   7.206   6.853   4.022  0.5139  1.2047  2.3531
   27MOL   H235 7047   7.360   6.814   4.100  0.4812  0.6132 -0.6051
   27MOL   C236 7048   7.214   6.650   4.062 -0.3809  0.2912  0.1175
   27MOL   C237 7049   7.189   6.626   4.211 -0.8971  0.9345  0.2131
   27MOL   C238 7050   7.232   6.517   4.286  0.7266 -0.2666  0.1604
   27MOL   C239 7051   7.310   6.405   4.223 -0.0222 -0.6250  0.5698
   27MOL   C240 7052   7.192   6.509   4.432  0.7477 -0.1103 -0.4400
   27MOL   H241 7053   7.267   6.573   4.006 -0.9781  2.4430 -3.6204
   27MOL   H242 7054   7.111   6.655   4.026 -0.4282  0.6684  0.3022
   27MOL   H243 7055   7.138   6.706   4.263 -0.7876  1.2159 -0.1100
   27MOL   H244 7056   7.288   6.385   4.118 -1.1733  0.2512  0.6473
   27MOL   H245 7057   7.300   6.309   4.273  0.0235 -0.8394  0.1711
   27MOL   H246 7058   7.415   6.434   4.236  0.5505 -1.3989 -1.9600
   27MOL   H247 7059   7.139   6.601   4.460  2.8274  1.5873 -1.9216
   27MOL   H248 7060   7.269   6.497   4.508 -1.8259  0.9913  2.4434
   27MOL   C249 7061   7.099   6.400   4.465 -0.1630  0.4219 -0.5554
   27MOL   C250 7062   7.054   6.402   4.609 -0.4275  0.2083 -0.0052
   27MOL   C251 7063   7.085   6.315   4.709  0.3009  0.3664 -0.7616
   27MOL   C252 7064   7.181   6.196   4.696 -0.5282 -0.7881 -0.3743
   27MOL   C253 7065   7.049   6.340   4.858 -0.1228  0.5559 -0.0306
   27MOL   H254 7066   7.146   6.304   4.443  0.5322  0.5442  0.3742
   27MOL   H255 7067   7.009   6.412   4.406 -0.9527 -0.5252  0.4265
   27MOL   H256 7068   7.005   6.494   4.638 -2.0812 -0.8548  0.6089
   27MOL   H257 7069   7.182   6.156   4.594 -0.2223 -0.8321 -0.3559
   27MOL   H258 7070   7.160   6.118   4.769 -1.8644  0.8384  1.0108
   27MOL   H259 7071   7.276   6.243   4.721 -0.6531 -0.2649 -0.8830
   27MOL   H260 7072   6.989   6.258   4.898  1.1686 -0.5583 -0.3372
   27MOL   H261 7073   6.999   6.435   4.881  1.2184  0.8418  1.8463
   27MOL   H262 7074   7.146   6.332   4.907  1.2173 -1.5722 -2.8859
   28MOL     C1 7075   1.940   4.342   6.241 -0.4224 -1.0608 -0.4522
   28MOL     C2 7076   2.083   4.318   6.270 -0.4830  0.3171  0.1426
   28MOL     C3 7077   2.180   4.409   6.251  0.2307 -0.7993  0.3602
   28MOL     C4 7078   2.150   4.553   6.200 -0.6708  0.0220 -0.1815
   28MOL     C5 7079   2.326   4.378   6.260  0.0288 -0.0521 -0.6513
   28MOL     H6 7080   1.887   4.248   6.225 -1.2216 -0.2780 -2.5212
   28MOL     H7 7081   1.888   4.395   6.322 -3.3140 -3.1436 -0.8563
   28MOL     H8 7082   2.108   4.218   6.302  2.5442  1.6403  2.0865
   28MOL     H9 7083   2.207   4.628   6.254 -1.4358  0.1276  0.4987
   28MOL    H10 7084   2.045   4.578   6.219 -0.0133  1.2484  2.0153
   28MOL    H11 7085   2.172   4.555   6.093  2.0207 -0.9826  0.3196
   28MOL    H12 7086   2.373   4.383   6.161 -0.1107 -0.0870 -0.7196
   28MOL    H13 7087   2.332   4.275   6.294  1.6425  0.1846 -0.1599
   28MOL    H14 7088   1.928   4.396   6.147  0.1938  1.7654  1.0203
   28MOL    C15 7089   2.400   4.453   6.371 -0.1116  0.6423 -0.7086
   28MOL    C16 7090   2.332   4.451   6.507  0.3646  0.3580 -0.3126
   28MOL    C17 7091   2.349   4.551   6.601  0.1302  0.5173 -0.4494
   28MOL    C18 7092   2.427   4.676   6.580  0.5044  0.6577  0.8510
   28MOL    C19 7093   2.266   4.553   6.724  0.2648  1.1694 -0.1556
   28MOL    H20 7094   2.429   4.552   6.338  0.5691  0.0738 -1.8486
   28MOL    H21 7095   2.490   4.393   6.381 -0.3121  0.7174  1.9046
   28MOL    H22 7096   2.275   4.364   6.535  1.0834 -0.5188 -1.5301
   28MOL    H23 7097   2.366   4.751   6.530 -0.8380 -0.4207  0.8629
   28MOL    H24 7098   2.512   4.663   6.513  0.1143 -1.9971  0.8075
   28MOL    H25 7099   2.460   4.716   6.676  0.9075  0.6015  0.7380
   28MOL    H26 7100   2.182   4.485   6.713  1.9589 -1.4083  2.2509
   28MOL    H27 7101   2.219   4.648   6.750 -2.1742  0.0477 -0.4245
   28MOL    C28 7102   2.347   4.513   6.849  0.3780 -0.9481 -0.2577
   28MOL    C29 7103   2.270   4.533   6.974 -0.5387  0.6953 -0.4139
   28MOL    C30 7104   2.228   4.431   7.059 -0.4708 -0.4062  0.0331
   28MOL    C31 7105   2.273   4.288   7.042  0.0685  0.0728  0.3978
   28MOL    C32 7106   2.154   4.455   7.195  0.8461 -0.2695  0.0256
   28MOL    H33 7107   2.423   4.589   6.867 -1.2511  1.1642 -2.0328
   28MOL    H34 7108   2.394   4.415   6.847  1.9563 -0.1749 -1.7728
   28MOL    H35 7109   2.236   4.634   6.990  0.0064  0.7859  0.1680
   28MOL    H36 7110   2.215   4.214   7.097 -1.3743 -0.7205 -2.0732
   28MOL    H37 7111   2.379   4.293   7.064 -0.0612  1.1954  0.7701
   28MOL    H38 7112   2.262   4.251   6.940 -0.1818 -0.2191  0.5306
   28MOL    H39 7113   2.152   4.564   7.199 -0.4045 -0.3487  2.5044
   28MOL    H40 7114   2.220   4.425   7.276 -2.4442  0.1805  3.0085
   28MOL    C41 7115   2.019   4.388   7.202  0.0098  0.6435  0.3888
   28MOL    C42 7116   1.938   4.424   7.326 -0.1255 -0.3817  0.3584
   28MOL    C43 7117   1.846   4.529   7.336  0.2483 -0.0872 -0.9486
   28MOL    C44 7118   1.821   4.626   7.222 -0.4960 -0.2842 -0.5044
   28MOL    C45 7119   1.770   4.556   7.467 -0.5006  0.0558 -0.0698
   28MOL    H46 7120   2.005   4.280   7.199 -1.7846  0.8783 -0.4478
   28MOL    H47 7121   1.961   4.421   7.116 -0.1042 -0.8751 -0.1381
   28MOL    H48 7122   1.955   4.367   7.415  0.1948 -0.5996  0.1586
   28MOL    H49 7123   1.881   4.715   7.236  0.7055 -1.1854  0.1287
   28MOL    H50 7124   1.716   4.656   7.219  0.1623  1.9946 -1.8109
   28MOL    H51 7125   1.849   4.582   7.127 -2.6918 -1.8771 -0.4605
   28MOL    H52 7126   1.761   4.664   7.473  2.7293  0.2837  2.2804
   28MOL    H53 7127   1.842   4.519   7.540 -1.8164 -2.5156 -0.0181
   28MOL    C54 7128   1.629   4.490   7.469 -0.7719  0.5955  0.4520
   28MOL    C55 7129   1.564   4.531   7.595  0.6279  0.5647  0.4511
   28MOL    C56 7130   1.501   4.447   7.682 -0.5551 -0.0625  0.0636
   28MOL    C57 7131   1.476   4.299   7.644  0.6543  1.0408 -0.1891
   28MOL    C58 7132   1.437   4.487   7.815  0.3133 -0.4405  0.7711
   28MOL    H59 7133   1.641   4.386   7.439 -2.2330  0.0509  1.7445
   28MOL    H60 7134   1.577   4.534   7.383  1.2106 -0.2068 -1.2123
   28MOL    H61 7135   1.580   4.635   7.620  1.8288 -0.2159  3.0761
   28MOL    H62 7136   1.378   4.261   7.675 -0.1230  1.7331 -1.7411
   28MOL    H63 7137   1.557   4.232   7.673 -0.5524 -0.4197 -0.1256
   28MOL    H64 7138   1.472   4.294   7.536  1.0002 -1.3757 -0.1160
   28MOL    H65 7139   1.331   4.463   7.804  0.0699  0.4621  1.1485
   28MOL    H66 7140   1.455   4.592   7.838 -1.3250  0.0599 -0.1011
   28MOL    C67 7141   1.492   4.402   0.037 -0.2657  0.3099  0.2829
   28MOL    C68 7142   1.456   4.444   0.180  0.5898  0.6541 -0.0794
   28MOL    C69 7143   1.398   4.361   0.270  0.2222  0.0066  0.1125
   28MOL    C70 7144   1.377   4.215   0.239 -0.2370 -0.5433  0.6420
   28MOL    C71 7145   1.358   4.395   0.418 -0.4903 -0.0441 -0.1621
   28MOL    H72 7146   1.601   4.395   0.036 -0.2913  0.0227 -0.6113
   28MOL    H73 7147   1.455   4.301   0.018  0.0772  0.2341  0.0245
   28MOL    H74 7148   1.478   4.548   0.201 -0.6118  0.6017  1.5246
   28MOL    H75 7149   1.283   4.204   0.185 -1.2048 -3.0047  2.7531
   28MOL    H76 7150   1.384   4.145   0.321 -2.2693 -1.1183  0.3490
   28MOL    H77 7151   1.446   4.165   0.171  0.9930 -0.0592  1.5098
   28MOL    H78 7152   1.251   4.382   0.434 -1.0040  2.2516 -1.4620
   28MOL    H79 7153   1.372   4.503   0.412 -0.8823 -0.0744 -2.3063
   28MOL    C80 7154   1.435   4.334   0.524 -0.0631  0.3689 -0.3078
   28MOL    C81 7155   1.427   4.408   0.662 -0.5031 -0.6176  0.0129
   28MOL    C82 7156   1.384   4.349   0.777 -0.4588  0.0853 -0.3400
   28MOL    C83 7157   1.333   4.207   0.774 -0.4351 -0.1352 -0.3848
   28MOL    C84 7158   1.383   4.416   0.918 -0.1480 -0.0827 -0.6100
   28MOL    H85 7159   1.542   4.344   0.503  0.0731 -1.6422 -0.6888
   28MOL    H86 7160   1.407   4.229   0.534  0.2411  0.2595 -0.5834
   28MOL    H87 7161   1.463   4.510   0.656  0.9115 -1.2830 -4.0222
   28MOL    H88 7162   1.404   4.125   0.786 -0.4130 -0.5695 -3.0566
   28MOL    H89 7163   1.273   4.187   0.685  0.7441  0.2524 -1.2839
   28MOL    H90 7164   1.262   4.188   0.854 -1.0582  2.5869 -0.2477
   28MOL    H91 7165   1.421   4.345   0.992  2.6586 -0.0732 -1.9886
   28MOL    H92 7166   1.276   4.421   0.937 -0.1879  2.0780 -1.2641
   28MOL    C93 7167   1.438   4.558   0.915 -0.2461 -0.0968 -0.0453
   28MOL    C94 7168   1.593   4.554   0.901 -0.4215  0.3437 -0.0498
   28MOL    C95 7169   1.677   4.660   0.910  0.1323  0.3787  0.5289
   28MOL    C96 7170   1.623   4.792   0.934  0.5052 -0.5334  0.1039
   28MOL    C97 7171   1.828   4.654   0.909 -0.8099 -0.0421  0.3054
   28MOL    H98 7172   1.418   4.610   1.009  0.3183 -2.4373  1.4054
   28MOL    H99 7173   1.402   4.624   0.836  3.1974  0.5334 -1.1392
   28MOL   H100 7174   1.639   4.461   0.873 -1.1688  0.2117 -0.8960
   28MOL   H101 7175   1.621   4.814   1.041  0.2280  1.0517 -0.2278
   28MOL   H102 7176   1.519   4.793   0.902  0.6098  0.2610 -0.2071
   28MOL   H103 7177   1.670   4.876   0.884 -0.7165  0.4654  0.6204
   28MOL   H104 7178   1.871   4.564   0.952 -0.7023  0.5883  1.5134
   28MOL   H105 7179   1.877   4.720   0.980 -1.0966 -2.1391  2.5238
   28MOL   C106 7180   1.897   4.690   0.773  0.0831 -0.2749  0.3587
   28MOL   C107 7181   1.835   4.619   0.659  0.3850 -0.7887 -0.2117
   28MOL   C108 7182   1.902   4.593   0.542 -0.0974  0.1346 -0.2995
   28MOL   C109 7183   2.056   4.632   0.520  0.2116 -0.0044  0.3318
   28MOL   C110 7184   1.829   4.515   0.434 -0.2551  0.4651  0.7087
   28MOL   H111 7185   1.996   4.648   0.792  0.3202  0.6462  1.2321
   28MOL   H112 7186   1.910   4.796   0.755  3.1737 -0.6552  0.2038
   28MOL   H113 7187   1.732   4.592   0.677 -0.3340  0.4937 -2.1500
   28MOL   H114 7188   2.058   4.654   0.414  1.4979 -0.9044  0.1584
   28MOL   H115 7189   2.129   4.551   0.526  1.2419  0.3818 -4.7671
   28MOL   H116 7190   2.094   4.711   0.585  0.8240 -0.4240  0.4931
   28MOL   H117 7191   1.801   4.584   0.354  1.8318 -0.2831 -0.7241
   28MOL   H118 7192   1.732   4.476   0.463 -1.0683  2.4025  0.7087
   28MOL   C119 7193   1.923   4.405   0.384 -0.3344  0.1960 -0.2041
   28MOL   C120 7194   1.852   4.294   0.313 -0.0573  0.4587 -0.4616
   28MOL   C121 7195   1.821   4.178   0.370 -0.1906  0.3726 -0.8756
   28MOL   C122 7196   1.833   4.154   0.520  0.1939  0.0591  0.0671
   28MOL   C123 7197   1.774   4.060   0.289 -0.2682 -0.5320 -0.0073
   28MOL   H124 7198   1.981   4.364   0.467 -0.7450  1.1034  0.5474
   28MOL   H125 7199   2.005   4.437   0.320 -0.5812 -3.0730 -2.2877
   28MOL   H126 7200   1.840   4.296   0.206 -1.0819 -1.4775 -0.4157
   28MOL   H127 7201   1.754   4.087   0.554 -0.6018  1.4520  1.0556
   28MOL   H128 7202   1.829   4.250   0.573 -1.7086  0.3363 -0.5312
   28MOL   H129 7203   1.931   4.108   0.535  0.7095  1.2765  0.5102
   28MOL   H130 7204   1.735   4.092   0.192  0.5465  1.0093  0.1510
   28MOL   H131 7205   1.684   4.013   0.329 -0.4282 -0.8716 -0.7660
   28MOL   C132 7206   1.880   3.954   0.279 -0.7449  0.1200  0.7533
   28MOL   C133 7207   1.987   3.984   0.178 -0.3448 -0.5027 -1.0283
   28MOL   C134 7208   2.013   3.930   0.060 -0.0217  0.1810  0.1622
   28MOL   C135 7209   1.929   3.827   7.877  0.1615 -0.0869  0.2569
   28MOL   C136 7210   2.133   3.957   7.855 -1.0529 -0.5253 -0.0121
   28MOL   H137 7211   1.827   3.867   0.240  1.3218 -1.0020  0.3803
   28MOL   H138 7212   1.925   3.923   0.374 -2.2092 -0.5091  1.2587
   28MOL   H139 7213   2.059   4.056   0.212 -1.8639  0.4467  0.2628
   28MOL   H140 7214   1.877   3.863   7.788 -1.0897  0.2646  1.1094
   28MOL   H141 7215   1.841   3.808   0.056  0.9142  0.2236  1.4510
   28MOL   H142 7216   1.985   3.736   7.859  1.2231  0.7171 -0.6082
   28MOL   H143 7217   2.094   3.964   7.754 -1.4434  0.1109  0.1821
   28MOL   H144 7218   2.195   3.867   7.853 -0.6624 -0.2384 -0.8886
   28MOL   C145 7219   2.215   4.080   0.002 -0.0506 -0.5114  0.5869
   28MOL   C146 7220   2.314   4.096   7.770 -0.0434 -0.0134 -0.6809
   28MOL   C147 7221   2.341   4.213   7.712  0.4297 -0.5912 -0.4534
   28MOL   C148 7222   2.268   4.343   7.752 -0.1064 -0.8910  0.3266
   28MOL   C149 7223   2.449   4.231   7.603 -0.2184  0.1487  0.2101
   28MOL   H150 7224   2.259   4.079   0.102  1.2951 -2.3654 -0.0054
   28MOL   H151 7225   2.146   4.165   0.002 -1.8454 -1.9522  0.9646
   28MOL   H152 7226   2.373   4.010   7.745  1.6502  0.4437  1.6244
   28MOL   H153 7227   2.319   4.423   7.698 -2.5855  0.8382  0.4397
   28MOL   H154 7228   2.275   4.375   7.857  0.2189 -1.3256  0.4372
   28MOL   H155 7229   2.172   4.355   7.703  0.4029 -2.4771 -1.1000
   28MOL   H156 7230   2.488   4.133   7.573 -0.9900  0.0687 -0.5490
   28MOL   H157 7231   2.528   4.299   7.636 -0.9863  0.5831  1.1542
   28MOL   C158 7232   2.391   4.264   7.468  0.1697  0.7717 -0.8407
   28MOL   C159 7233   2.495   4.308   7.368 -0.1005  0.5721 -0.4808
   28MOL   C160 7234   2.518   4.432   7.328  0.1490  0.2354  0.5603
   28MOL   C161 7235   2.457   4.550   7.398  0.3704  0.2543 -0.0449
   28MOL   C162 7236   2.624   4.459   7.219 -1.0314 -0.1655 -0.3141
   28MOL   H163 7237   2.308   4.333   7.479 -1.1261 -0.6430 -1.4620
   28MOL   H164 7238   2.336   4.182   7.421 -0.3581  0.5017  0.2336
   28MOL   H165 7239   2.541   4.230   7.309 -1.0974  0.2922 -0.8825
   28MOL   H166 7240   2.457   4.527   7.504  1.4779 -0.0425 -0.1038
   28MOL   H167 7241   2.360   4.587   7.365 -0.8461 -2.0543  0.8113
   28MOL   H168 7242   2.516   4.640   7.380 -0.7497  1.5024  2.3755
   28MOL   H169 7243   2.579   4.522   7.143 -0.5819 -1.5085 -1.7445
   28MOL   H170 7244   2.642   4.359   7.178 -0.9271 -1.3170  2.4335
   28MOL   C171 7245   2.760   4.516   7.270 -0.1361 -0.8165  0.3922
   28MOL   C172 7246   2.808   4.418   7.378 -0.7731 -0.6068  0.1812
   28MOL   C173 7247   2.869   4.299   7.371  0.2519  0.7238  0.0178
   28MOL   C174 7248   2.915   4.234   7.247 -0.1346 -0.3965 -0.5920
   28MOL   C175 7249   2.883   4.216   7.501  0.1503  0.2824 -0.1392
   28MOL   H176 7250   2.752   4.610   7.325  4.3632  1.7098 -2.9855
   28MOL   H177 7251   2.838   4.514   7.194 -0.4129  0.5141  0.0592
   28MOL   H178 7252   2.774   4.446   7.476 -0.5229  0.2944  0.0199
   28MOL   H179 7253   3.020   4.205   7.261 -0.2283  0.0363  1.1975
   28MOL   H180 7254   2.912   4.292   7.155  0.3905  1.9119  0.7956
   28MOL   H181 7255   2.857   4.144   7.226  0.5028 -1.6826  2.7744
   28MOL   H182 7256   2.871   4.265   7.598 -2.1029 -0.6564  0.0851
   28MOL   H183 7257   2.981   4.169   7.508 -0.3398 -0.5706  1.1811
   28MOL   C184 7258   2.792   4.085   7.510 -0.7723  0.1134 -0.0977
   28MOL   C185 7259   2.848   3.958   7.444 -0.2880 -0.0482  0.2352
   28MOL   C186 7260   2.932   3.862   7.486 -0.0224 -1.1066 -1.0106
   28MOL   C187 7261   2.983   3.863   7.629  0.6039 -0.0266 -0.1521
   28MOL   C188 7262   2.987   3.757   7.391 -0.5057 -0.4410  0.3605
   28MOL   H189 7263   2.688   4.105   7.485 -1.3742 -0.7499  1.6383
   28MOL   H190 7264   2.787   4.061   7.616 -0.9291  0.7886  0.0492
   28MOL   H191 7265   2.822   3.954   7.339 -0.7008  1.6447  0.2560
   28MOL   H192 7266   2.979   3.761   7.668  0.3974 -0.7698 -2.0611
   28MOL   H193 7267   2.911   3.910   7.696  0.4061  0.9478 -1.0215
   28MOL   H194 7268   3.079   3.914   7.638 -0.7316  2.0894  3.0324
   28MOL   H195 7269   2.949   3.769   7.290  0.3742 -0.4443  0.0203
   28MOL   H196 7270   2.948   3.660   7.422  1.9341 -2.1008 -1.5045
   28MOL   C197 7271   3.144   3.766   7.388  0.0968  0.0853 -0.1391
   28MOL   C198 7272   3.199   3.679   7.275 -0.1870 -0.0424 -0.1991
   28MOL   C199 7273   3.303   3.593   7.279  0.6945  0.0936  0.1869
   28MOL   C200 7274   3.390   3.556   7.398 -0.0048 -0.2951 -0.7051
   28MOL   C201 7275   3.340   3.523   7.147  0.0805  0.5360  0.1816
   28MOL   H202 7276   3.189   3.761   7.487 -0.9931  0.6292  0.3980
   28MOL   H203 7277   3.168   3.867   7.353 -0.5573  1.4214  3.0723
   28MOL   H204 7278   3.146   3.690   7.182  0.6225 -0.3651 -0.6957
   28MOL   H205 7279   3.366   3.602   7.494  2.2558  2.2139 -1.2753
   28MOL   H206 7280   3.492   3.591   7.383 -0.2672  1.1220  0.7335
   28MOL   H207 7281   3.405   3.449   7.407  1.1248 -0.1258 -0.4746
   28MOL   H208 7282   3.250   3.526   7.085 -0.0790 -1.8378  0.2342
   28MOL   H209 7283   3.366   3.419   7.167 -0.0896  0.6099  0.8217
   28MOL   C210 7284   3.452   3.581   7.062 -0.1624 -0.2226  0.2393
   28MOL   C211 7285   3.479   3.518   6.925 -0.0330  0.3778 -0.6311
   28MOL   C212 7286   3.600   3.480   6.885  0.2909  0.5098 -0.4826
   28MOL   C213 7287   3.736   3.511   6.950  0.3173 -0.4900  0.1074
   28MOL   C214 7288   3.607   3.398   6.752  0.3966  0.5163  0.0278
   28MOL   H215 7289   3.541   3.577   7.125  0.2047 -1.2533 -0.3225
   28MOL   H216 7290   3.432   3.687   7.046 -1.3539 -0.6507 -1.2097
   28MOL   H217 7291   3.389   3.477   6.882 -0.1356 -1.2106  1.0054
   28MOL   H218 7292   3.798   3.557   6.873 -0.7307 -0.5570 -0.7964
   28MOL   H219 7293   3.775   3.413   6.978  2.1416  0.2688  0.3115
   28MOL   H220 7294   3.743   3.575   7.037 -1.8622  0.3380 -0.2848
   28MOL   H221 7295   3.700   3.341   6.755  1.0114  1.4829 -0.4159
   28MOL   H222 7296   3.605   3.473   6.673  2.8931  0.9278  0.3071
   28MOL   C223 7297   3.495   3.289   6.731 -0.7614 -0.2568  0.4027
   28MOL   C224 7298   3.520   3.199   6.610  0.4765 -0.1891 -1.0549
   28MOL   C225 7299   3.431   3.105   6.566 -0.0945 -0.6680  0.5267
   28MOL   C226 7300   3.291   3.085   6.619 -0.0039  0.0303  0.2426
   28MOL   C227 7301   3.476   3.008   6.459 -0.6613 -0.0964  0.0311
   28MOL   H228 7302   3.395   3.332   6.726 -0.3279  0.5627 -1.6468
   28MOL   H229 7303   3.499   3.223   6.818  0.0788  1.9229  2.0714
   28MOL   H230 7304   3.622   3.201   6.576  0.6135 -0.4669 -0.6708
   28MOL   H231 7305   3.284   3.125   6.720  0.1170 -0.1890  0.3373
   28MOL   H232 7306   3.264   2.980   6.629  0.6740  0.0147  1.9350
   28MOL   H233 7307   3.211   3.130   6.561  1.5866  1.5448 -0.8529
   28MOL   H234 7308   3.471   2.908   6.501 -0.0880  1.0498  2.9822
   28MOL   H235 7309   3.580   3.032   6.437 -1.2226  0.5842 -2.0327
   28MOL   C236 7310   3.395   3.020   6.331 -0.1062  0.4464 -0.6856
   28MOL   C237 7311   3.405   2.897   6.245 -0.2637  0.1552  0.2548
   28MOL   C238 7312   3.483   2.884   6.136  0.0410 -0.3716  0.4913
   28MOL   C239 7313   3.570   3.001   6.089 -0.0363 -0.1129 -0.2677
   28MOL   C240 7314   3.490   2.752   6.060  0.6527 -0.0326 -0.0812
   28MOL   H241 7315   3.420   3.116   6.286 -1.0956  0.2814 -1.6052
   28MOL   H242 7316   3.291   3.028   6.365  0.3133  0.5462  0.5975
   28MOL   H243 7317   3.351   2.811   6.283 -0.6747 -0.6882 -2.1710
   28MOL   H244 7318   3.659   2.969   6.036 -0.6048 -1.7338 -0.2586
   28MOL   H245 7319   3.605   3.077   6.160  1.1469 -0.0644 -0.8876
   28MOL   H246 7320   3.515   3.054   6.011 -0.3020 -0.3575 -0.2445
   28MOL   H247 7321   3.460   2.757   5.956 -0.2459  1.1629  0.2300
   28MOL   H248 7322   3.409   2.687   6.093  0.4724  0.6957  0.9497
   28MOL   C249 7323   3.630   2.689   6.078 -0.0222 -0.3723  1.3461
   28MOL   C250 7324   3.684   2.672   6.221  0.4169  0.9797  0.7017
   28MOL   C251 7325   3.728   2.565   6.286  0.6001 -0.0539  0.6518
   28MOL   C252 7326   3.722   2.427   6.230 -0.1990  0.3828  0.1031
   28MOL   C253 7327   3.810   2.585   6.407 -0.1576  0.0809  0.4383
   28MOL   H254 7328   3.701   2.754   6.028  2.0259 -0.3927  4.0660
   28MOL   H255 7329   3.621   2.588   6.038 -1.7978  0.6929 -1.0696
   28MOL   H256 7330   3.698   2.770   6.263  0.5427  1.9104 -1.4491
   28MOL   H257 7331   3.646   2.424   6.152 -0.9530 -1.7350  0.8802
   28MOL   H258 7332   3.705   2.354   6.309 -1.2825 -0.5118 -0.9326
   28MOL   H259 7333   3.819   2.408   6.184  0.1285  2.1299  0.0402
   28MOL   H260 7334   3.786   2.681   6.453 -1.1031  0.3796 -0.6613
   28MOL   H261 7335   3.916   2.584   6.383 -0.4493 -0.3509 -0.8629
   28MOL   H262 7336   3.805   2.498   6.473 -1.3062 -2.1873 -2.5168
   29MOL     C1 7337   5.230   5.701   0.029  0.2292 -1.1107 -0.5738
   29MOL     C2 7338   5.190   5.692   7.764  0.3181  0.4089 -0.1109
   29MOL     C3 7339   5.079   5.627   7.719 -0.3236 -0.5642  0.4428
   29MOL     C4 7340   4.971   5.551   7.797 -0.2979 -0.4160  0.1841
   29MOL     C5 7341   5.053   5.639   7.571  0.6894 -0.0783  0.5965
   29MOL     H6 7342   5.320   5.640   0.045 -1.1843 -2.4602  2.7907
   29MOL     H7 7343   5.230   5.807   0.052  0.2815 -1.4474  1.0341
   29MOL     H8 7344   5.248   5.740   7.686 -1.0066 -0.2038 -1.4863
   29MOL     H9 7345   5.021   5.506   7.883  1.1150  1.3764  0.3255
   29MOL    H10 7346   4.917   5.477   7.737  0.4663 -0.4838 -0.4343
   29MOL    H11 7347   4.894   5.623   7.824  0.1242 -0.0410  0.3820
   29MOL    H12 7348   5.123   5.709   7.527 -0.0430 -0.1814 -0.7723
   29MOL    H13 7349   4.951   5.673   7.550  1.3178  0.9886 -0.8075
   29MOL    H14 7350   5.151   5.662   0.093  0.5278  0.9782  1.1317
   29MOL    C15 7351   5.093   5.504   7.503 -0.6968 -0.2569  0.5707
   29MOL    C16 7352   5.120   5.528   7.353 -0.4466 -0.1101  0.4063
   29MOL    C17 7353   5.238   5.522   7.289 -0.3366  0.6657  0.0776
   29MOL    C18 7354   5.364   5.475   7.356 -0.3202  0.3149  0.0794
   29MOL    C19 7355   5.245   5.554   7.137  0.6417 -0.3089  0.0299
   29MOL    H20 7356   5.006   5.438   7.495 -0.1094 -0.9314 -0.4384
   29MOL    H21 7357   5.174   5.446   7.546  1.5250  1.8121 -0.6589
   29MOL    H22 7358   5.035   5.564   7.297  0.5515 -0.9061 -1.6604
   29MOL    H23 7359   5.446   5.543   7.336 -0.8102  0.2243 -2.4038
   29MOL    H24 7360   5.399   5.377   7.321 -1.8653  0.0719 -0.8405
   29MOL    H25 7361   5.358   5.471   7.464  2.8955 -0.3734  0.2740
   29MOL    H26 7362   5.327   5.624   7.122 -0.3194  1.0222  0.8772
   29MOL    H27 7363   5.159   5.613   7.105  1.0186 -0.0632 -0.5386
   29MOL    C28 7364   5.278   5.434   7.050  0.4393  0.8442 -0.3281
   29MOL    C29 7365   5.304   5.465   6.904  0.0888  0.1313  0.1321
   29MOL    C30 7366   5.415   5.455   6.837 -0.4086  0.1089  0.4618
   29MOL    C31 7367   5.555   5.441   6.894 -0.2585  0.0913 -1.1338
   29MOL    C32 7368   5.421   5.481   6.690 -0.1530  0.7802 -0.4255
   29MOL    H33 7369   5.209   5.351   7.064  0.4187  1.1049  1.2719
   29MOL    H34 7370   5.370   5.397   7.095 -0.7167 -2.3947 -0.5025
   29MOL    H35 7371   5.219   5.495   6.844  0.0359  2.2110  1.1902
   29MOL    H36 7372   5.554   5.447   7.003 -1.7126  0.6129 -1.1747
   29MOL    H37 7373   5.610   5.530   6.865  0.6958  0.3968  1.4830
   29MOL    H38 7374   5.609   5.349   6.870  1.8740  0.8027  0.6923
   29MOL    H39 7375   5.323   5.446   6.658 -0.7907 -1.4070  3.4830
   29MOL    H40 7376   5.506   5.425   6.650 -0.7119 -1.7607  1.7840
   29MOL    C41 7377   5.444   5.622   6.658 -0.4733  0.0884  0.4126
   29MOL    C42 7378   5.442   5.644   6.510 -0.1904  0.1162  0.0821
   29MOL    C43 7379   5.482   5.752   6.441  0.8232 -0.2199  0.1312
   29MOL    C44 7380   5.566   5.861   6.508  0.2632  0.1604  0.2663
   29MOL    C45 7381   5.474   5.752   6.284 -0.0385  0.1967 -0.3044
   29MOL    H46 7382   5.540   5.655   6.697 -0.7448  2.4662 -0.8784
   29MOL    H47 7383   5.363   5.687   6.691 -0.6224 -0.3268  0.8726
   29MOL    H48 7384   5.391   5.561   6.462 -0.2195 -0.1272  0.5339
   29MOL    H49 7385   5.641   5.818   6.575  0.9773  0.4236 -0.3601
   29MOL    H50 7386   5.515   5.953   6.538 -1.0496  0.4837 -2.8142
   29MOL    H51 7387   5.634   5.900   6.433  0.6966 -2.0838 -0.5598
   29MOL    H52 7388   5.434   5.654   6.257 -1.7751  0.3532  1.6369
   29MOL    H53 7389   5.573   5.761   6.239 -1.0951  0.9373 -2.5961
   29MOL    C54 7390   5.396   5.873   6.232  0.5331  0.0766 -0.0335
   29MOL    C55 7391   5.384   5.881   6.079 -0.1799  0.0627  0.0222
   29MOL    C56 7392   5.271   5.875   6.005 -0.4081 -0.4660 -0.2375
   29MOL    C57 7393   5.126   5.869   6.055 -0.4532  0.3995  0.4086
   29MOL    C58 7394   5.282   5.901   5.856  0.3728  0.0920  0.0750
   29MOL    H59 7395   5.450   5.958   6.273  0.9283 -0.5658  0.7987
   29MOL    H60 7396   5.301   5.884   6.285  2.3317  0.9264  3.1093
   29MOL    H61 7397   5.481   5.889   6.032  0.0819 -1.0285  0.3563
   29MOL    H62 7398   5.109   5.807   6.144  2.2418 -1.5091 -0.3365
   29MOL    H63 7399   5.073   5.814   5.977  0.3753 -0.4269  0.4156
   29MOL    H64 7400   5.084   5.968   6.074  0.4455  0.9326 -0.3632
   29MOL    H65 7401   5.385   5.923   5.830  0.8103 -2.7506 -0.8004
   29MOL    H66 7402   5.223   5.991   5.838  1.3922  0.7192 -0.1450
   29MOL    C67 7403   5.250   5.774   5.768  0.8072  0.6082  0.2545
   29MOL    C68 7404   5.360   5.672   5.796  0.7281  0.4746 -0.2819
   29MOL    C69 7405   5.463   5.638   5.725  0.1487  0.4417  0.3618
   29MOL    C70 7406   5.498   5.707   5.592  0.3319  0.1096 -0.6873
   29MOL    C71 7407   5.564   5.526   5.765 -0.3281  0.4848 -0.2804
   29MOL    H72 7408   5.252   5.788   5.660 -1.5946 -0.3529  0.0631
   29MOL    H73 7409   5.151   5.732   5.781  0.7635  0.3263 -0.9762
   29MOL    H74 7410   5.365   5.625   5.893 -1.4382  2.0119  0.6219
   29MOL    H75 7411   5.605   5.719   5.580 -0.0143  3.1171 -1.2194
   29MOL    H76 7412   5.446   5.803   5.589 -0.5838 -0.3516 -0.0228
   29MOL    H77 7413   5.467   5.638   5.514 -1.5002  0.6892 -0.5076
   29MOL    H78 7414   5.591   5.470   5.675 -2.7799 -0.1175 -0.6655
   29MOL    H79 7415   5.514   5.464   5.840 -0.4847 -2.6662 -2.8699
   29MOL    C80 7416   5.693   5.588   5.822  0.5850 -0.1875  0.2032
   29MOL    C81 7417   5.804   5.487   5.821 -0.0042 -0.0088  0.8463
   29MOL    C82 7418   5.931   5.496   5.771  0.6791 -0.5881  0.5830
   29MOL    C83 7419   5.985   5.615   5.700  0.5088 -0.4990 -0.0148
   29MOL    C84 7420   6.031   5.386   5.781 -0.5133 -0.1676 -0.0781
   29MOL    H85 7421   5.671   5.631   5.920 -0.8145 -0.1188 -0.1304
   29MOL    H86 7422   5.732   5.675   5.769  2.4293  0.4001  2.4467
   29MOL    H87 7423   5.771   5.400   5.875 -1.3288 -0.0398  0.0029
   29MOL    H88 7424   6.078   5.631   5.754  0.5162 -2.4069  0.5869
   29MOL    H89 7425   5.933   5.709   5.721  2.3910 -0.0051  2.6635
   29MOL    H90 7426   6.002   5.597   5.594  2.4575  0.9311  0.0355
   29MOL    H91 7427   6.083   5.358   5.690  0.5843 -1.0178  0.7904
   29MOL    H92 7428   5.974   5.294   5.792  0.5200 -0.7916  0.0564
   29MOL    C93 7429   6.129   5.386   5.908  0.0203 -0.3395  0.6025
   29MOL    C94 7430   6.170   5.241   5.926  0.4019 -0.2969 -0.1660
   29MOL    C95 7431   6.160   5.164   6.038 -0.9250  0.4524  0.3662
   29MOL    C96 7432   6.083   5.202   6.165  0.3978  0.0738 -0.0560
   29MOL    C97 7433   6.216   5.022   6.052  0.0046 -0.9336  0.5089
   29MOL    H98 7434   6.075   5.431   5.992 -2.0671 -0.3640 -0.6776
   29MOL    H99 7435   6.211   5.458   5.902  0.3635 -0.8136 -0.3904
   29MOL   H100 7436   6.225   5.199   5.844  0.6882  0.2416 -0.2558
   29MOL   H101 7437   6.049   5.306   6.158 -1.5691 -0.6633 -2.4421
   29MOL   H102 7438   6.137   5.191   6.258 -1.4846  0.4439  1.1020
   29MOL   H103 7439   5.989   5.147   6.170 -0.1536  0.9360 -0.6271
   29MOL   H104 7440   6.245   4.983   5.955  0.4361 -3.1156  1.4962
   29MOL   H105 7441   6.133   4.965   6.093 -1.4108  1.6223  1.3035
   29MOL   C106 7442   6.340   5.018   6.139 -0.5504  0.1996 -0.2010
   29MOL   C107 7443   6.397   4.881   6.173 -0.0408  0.0341  0.5015
   29MOL   C108 7444   6.521   4.833   6.132 -0.7085 -0.4601 -0.0002
   29MOL   C109 7445   6.620   4.897   6.038  0.4964 -0.3134  0.2839
   29MOL   C110 7446   6.567   4.695   6.174 -0.2089 -0.3022 -0.3336
   29MOL   H111 7447   6.328   5.070   6.234  0.4511 -0.9078  0.5517
   29MOL   H112 7448   6.413   5.084   6.092 -0.4756  2.3118  2.7552
   29MOL   H113 7449   6.332   4.812   6.225 -0.9778  1.5233  1.3519
   29MOL   H114 7450   6.719   4.900   6.085  1.3479 -1.1806 -1.4377
   29MOL   H115 7451   6.592   5.001   6.023  0.6532 -0.3983 -0.6321
   29MOL   H116 7452   6.630   4.849   5.941  0.2659  0.7877 -0.2895
   29MOL   H117 7453   6.583   4.616   6.101 -2.5114 -0.8512 -0.2596
   29MOL   H118 7454   6.493   4.655   6.243 -1.8849 -0.8578 -2.4264
   29MOL   C119 7455   6.696   4.685   6.252  0.6299  0.0156 -0.1325
   29MOL   C120 7456   6.702   4.552   6.323 -0.6516 -0.5583 -0.2969
   29MOL   C121 7457   6.756   4.531   6.443 -0.0509 -0.7991 -0.0997
   29MOL   C122 7458   6.820   4.646   6.519  0.2183  0.0651  0.0498
   29MOL   C123 7459   6.739   4.396   6.519  0.6202  1.0003  0.0472
   29MOL   H124 7460   6.701   4.777   6.310  2.1441  0.4942 -0.9838
   29MOL   H125 7461   6.779   4.693   6.182 -0.8421 -0.1720 -1.9573
   29MOL   H126 7462   6.662   4.463   6.277  0.5654 -0.1957 -2.1206
   29MOL   H127 7463   6.761   4.683   6.602 -0.0253  1.2949 -0.6607
   29MOL   H128 7464   6.860   4.721   6.450  0.0572  0.7059  0.6468
   29MOL   H129 7465   6.909   4.604   6.567  0.0589 -0.9647 -0.5346
   29MOL   H130 7466   6.830   4.371   6.575  1.7634  1.7948 -1.4190
   29MOL   H131 7467   6.734   4.323   6.438 -0.7575  0.5266  0.5488
   29MOL   C132 7468   6.621   4.391   6.610 -0.3904  0.2701 -0.5634
   29MOL   C133 7469   6.619   4.264   6.688 -0.0963 -0.5730  0.2614
   29MOL   C134 7470   6.619   4.256   6.821  0.5807  0.1350  0.2850
   29MOL   C135 7471   6.602   4.366   6.923  0.7679 -0.3559 -0.6629
   29MOL   C136 7472   6.617   4.115   6.887  0.5586 -0.0154  0.4716
   29MOL   H137 7473   6.524   4.387   6.560 -0.1263 -2.9732 -0.9089
   29MOL   H138 7474   6.635   4.477   6.676  1.5546 -1.5900  1.5156
   29MOL   H139 7475   6.623   4.171   6.633  0.9814  0.9902 -2.4153
   29MOL   H140 7476   6.565   4.459   6.880  0.6299 -0.4393 -0.7227
   29MOL   H141 7477   6.701   4.369   6.968  1.0238 -1.2096 -1.1692
   29MOL   H142 7478   6.534   4.331   7.001  1.3166 -3.1192 -1.3773
   29MOL   H143 7479   6.678   4.119   6.977  0.4298 -0.9915  0.6070
   29MOL   H144 7480   6.668   4.046   6.819  0.4756  0.0622  0.3300
   29MOL   C145 7481   6.477   4.068   6.920 -0.0242  0.3139 -0.5252
   29MOL   C146 7482   6.468   3.934   6.982  0.1147  0.4081  0.3058
   29MOL   C147 7483   6.445   3.911   7.112  0.5769  0.8941 -0.7483
   29MOL   C148 7484   6.447   4.014   7.233 -0.3583  0.1126  0.0613
   29MOL   C149 7485   6.429   3.765   7.154 -0.1164 -0.4998  0.4121
   29MOL   H150 7486   6.418   4.069   6.829 -1.9999 -1.6079  0.6944
   29MOL   H151 7487   6.412   4.138   6.972 -2.3557 -3.0995  1.3195
   29MOL   H152 7488   6.467   3.851   6.912 -1.0095  0.3129  0.4172
   29MOL   H153 7489   6.430   4.111   7.184 -0.7358 -1.0313 -2.1548
   29MOL   H154 7490   6.546   4.018   7.279 -0.1291 -0.4538 -0.3811
   29MOL   H155 7491   6.372   4.001   7.311  1.5636  0.0338  1.9401
   29MOL   H156 7492   6.512   3.749   7.222  0.1757 -0.4712  0.0645
   29MOL   H157 7493   6.459   3.707   7.066  2.3794 -1.8650  2.1256
   29MOL   C158 7494   6.294   3.728   7.208 -0.2365  0.4554 -0.3258
   29MOL   C159 7495   6.290   3.584   7.235  0.3093 -0.5583  0.0890
   29MOL   C160 7496   6.179   3.511   7.258 -0.2785  0.4967  0.3513
   29MOL   C161 7497   6.038   3.564   7.246 -0.0262 -0.2452  0.7040
   29MOL   C162 7498   6.192   3.363   7.259 -0.5665 -0.5861 -0.9824
   29MOL   H163 7499   6.219   3.767   7.139 -1.6967  0.3485  1.1662
   29MOL   H164 7500   6.270   3.787   7.297  0.4388  0.1033  0.0898
   29MOL   H165 7501   6.377   3.521   7.226  0.6527  0.0541 -0.9512
   29MOL   H166 7502   5.965   3.528   7.319 -0.9932 -0.6695 -0.4630
   29MOL   H167 7503   6.011   3.534   7.145 -0.1414  2.3123 -0.0769
   29MOL   H168 7504   6.051   3.672   7.248 -0.7343 -0.1520  0.4516
   29MOL   H169 7505   6.136   3.331   7.347 -1.2557  1.1577 -0.7680
   29MOL   H170 7506   6.296   3.335   7.275 -0.2538  0.3427 -1.3909
   29MOL   C171 7507   6.133   3.294   7.139 -0.0353  0.0887 -0.3071
   29MOL   C172 7508   6.130   3.140   7.152 -0.1500  0.6072 -0.2070
   29MOL   C173 7509   6.185   3.048   7.071 -0.3807  0.4829  0.6915
   29MOL   C174 7510   6.274   3.090   6.961  0.1471 -0.3953  0.0146
   29MOL   C175 7511   6.182   2.894   7.094 -0.0333 -0.4129 -0.4240
   29MOL   H176 7512   6.188   3.329   7.052  0.2459 -0.5748 -0.4038
   29MOL   H177 7513   6.030   3.328   7.128  0.1886  0.3043 -1.8656
   29MOL   H178 7514   6.086   3.093   7.239  0.7990 -0.8392 -0.4858
   29MOL   H179 7515   6.371   3.127   6.996 -0.1971 -1.9795  2.8041
   29MOL   H180 7516   6.252   3.186   6.915  0.9503 -0.5314 -0.6730
   29MOL   H181 7517   6.281   3.020   6.878  2.5251  0.4522 -0.5345
   29MOL   H182 7518   6.107   2.876   7.171 -1.0611  0.2960 -1.2463
   29MOL   H183 7519   6.284   2.873   7.125  0.8493  0.5336 -2.5637
   29MOL   C184 7520   6.147   2.799   6.984  0.1885 -0.2153 -0.1380
   29MOL   C185 7521   6.171   2.655   7.022 -0.2947  0.2169  0.6833
   29MOL   C186 7522   6.078   2.561   7.043  0.0064  0.4979 -0.1248
   29MOL   C187 7523   5.930   2.590   7.022 -0.5308  0.0811 -0.2612
   29MOL   C188 7524   6.105   2.430   7.109  0.2606  0.1859 -0.3971
   29MOL   H189 7525   6.206   2.821   6.895 -2.8284  0.7994 -1.9749
   29MOL   H190 7526   6.049   2.828   6.948 -0.4853 -1.2502  0.8233
   29MOL   H191 7527   6.270   2.619   7.044 -0.9961 -1.6392  0.8592
   29MOL   H192 7528   5.862   2.514   7.060  1.3524 -0.9953  1.0306
   29MOL   H193 7529   5.914   2.594   6.914 -3.1942 -1.9279  0.0053
   29MOL   H194 7530   5.904   2.684   7.071  0.8286  0.3658 -0.0690
   29MOL   H195 7531   6.211   2.403   7.097  1.1811  3.0485  0.9113
   29MOL   H196 7532   6.053   2.358   7.046 -0.0484  0.5841 -0.6013
   29MOL   C197 7533   6.051   2.419   7.248 -0.0532  0.0210 -0.1372
   29MOL   C198 7534   6.130   2.494   7.352 -0.0256  0.7709  0.1072
   29MOL   C199 7535   6.100   2.595   7.428 -0.5736  0.4774 -0.3783
   29MOL   C200 7536   5.967   2.668   7.438 -0.1277  0.4749  0.0203
   29MOL   C201 7537   6.199   2.655   7.526  0.2450 -0.3021  0.3064
   29MOL   H202 7538   6.051   2.313   7.274 -0.0719 -0.2319 -1.1575
   29MOL   H203 7539   5.945   2.446   7.242 -0.4653 -1.7740 -0.9614
   29MOL   H204 7540   6.230   2.453   7.359  1.0439  3.2192 -0.3940
   29MOL   H205 7541   5.953   2.692   7.544 -0.5135  1.2113 -0.1938
   29MOL   H206 7542   5.882   2.610   7.401  0.9986 -0.5287 -1.0113
   29MOL   H207 7543   5.956   2.761   7.382  1.8666 -0.2538 -1.6325
   29MOL   H208 7544   6.297   2.610   7.510 -0.4839 -0.9575 -2.7033
   29MOL   H209 7545   6.171   2.623   7.627 -0.6942  1.3133  0.5714
   29MOL   C210 7546   6.216   2.810   7.498 -0.7270  0.3121 -0.9354
   29MOL   C211 7547   6.294   2.887   7.602 -0.1538  0.1894 -0.2498
   29MOL   C212 7548   6.304   3.019   7.616 -0.2643 -0.8192  0.1525
   29MOL   C213 7549   6.237   3.124   7.526  0.2386  1.3073  0.0912
   29MOL   C214 7550   6.408   3.072   7.719 -0.0462  0.1873  0.7365
   29MOL   H215 7551   6.121   2.863   7.486 -0.1977  1.4051 -0.3115
   29MOL   H216 7552   6.269   2.821   7.404  2.5779  1.5128  0.9734
   29MOL   H217 7553   6.350   2.822   7.667  0.4397 -1.6254 -2.5094
   29MOL   H218 7554   6.302   3.195   7.475  1.4192  0.7857  0.8471
   29MOL   H219 7555   6.168   3.179   7.590 -2.6743 -1.0386 -0.8888
   29MOL   H220 7556   6.190   3.062   7.449 -1.1224  1.0043  1.1563
   29MOL   H221 7557   6.439   2.991   7.785  1.0767  0.0284  0.0347
   29MOL   H222 7558   6.362   3.147   7.783  0.1167  0.1010  0.9529
   29MOL   C223 7559   6.539   3.136   7.655 -0.5998 -0.2613 -0.2853
   29MOL   C224 7560   6.647   3.163   7.756 -0.4679  0.9590  0.5369
   29MOL   C225 7561   6.774   3.121   7.764  0.3334 -0.4131 -0.2692
   29MOL   C226 7562   6.843   3.029   7.662  0.3669 -0.2988 -0.4452
   29MOL   C227 7563   6.856   3.159   0.004 -0.8589  0.3367 -0.4322
   29MOL   H228 7564   6.521   3.221   7.589  2.4178  0.4057 -0.3100
   29MOL   H229 7565   6.582   3.072   7.579  1.3485  2.2292 -1.3626
   29MOL   H230 7566   6.607   3.220   7.839 -2.9282  1.5334 -0.9738
   29MOL   H231 7567   6.876   2.938   7.711  0.5554 -0.7673 -1.4476
   29MOL   H232 7568   6.922   3.072   7.600  0.7731 -1.3899 -0.6948
   29MOL   H233 7569   6.762   2.998   7.596 -0.8473  1.2970  0.2416
   29MOL   H234 7570   6.858   3.071   0.068  1.2830 -0.1290 -1.1083
   29MOL   H235 7571   6.808   3.245   0.051 -1.3327 -0.0691 -0.1775
   29MOL   C236 7572   6.995   3.191   7.849  0.3558 -0.7718  0.0592
   29MOL   C237 7573   7.078   3.241   0.078  0.3680  0.8397  0.5631
   29MOL   C238 7574   7.171   3.340   0.082  0.4403  0.3827  0.3385
   29MOL   C239 7575   7.199   3.423   7.840  0.4296  0.7981 -0.5731
   29MOL   C240 7576   7.250   3.374   0.209 -0.7570  0.0696  0.6281
   29MOL   H241 7577   6.996   3.261   7.765 -1.6581  1.9130  2.1820
   29MOL   H242 7578   7.053   3.105   7.817 -0.7619 -2.2060  1.7928
   29MOL   H243 7579   7.071   3.191   0.174  0.2516 -1.4614 -0.6290
   29MOL   H244 7580   7.261   3.374   7.765 -2.2850 -0.7764 -1.8986
   29MOL   H245 7581   7.239   3.521   7.865  0.4560  0.3796  1.0923
   29MOL   H246 7582   7.100   3.432   7.795  0.8039  0.9024 -1.3801
   29MOL   H247 7583   7.214   3.314   0.292  0.2939 -1.1155  0.2351
   29MOL   H248 7584   7.212   3.471   0.240  1.1555  0.7431  0.9789
   29MOL   C249 7585   7.406   3.363   0.189 -0.3057 -0.0345  0.0378
   29MOL   C250 7586   7.491   3.379   0.319 -0.0182 -0.2272  0.7330
   29MOL   C251 7587   7.588   3.468   0.340 -0.1186  0.6118  1.1158
   29MOL   C252 7588   7.633   3.560   0.226 -0.3063  0.1690 -0.1764
   29MOL   C253 7589   7.667   3.478   0.464 -0.0850 -0.3188  0.5779
   29MOL   H254 7590   7.426   3.429   0.105  1.0669 -0.3048  0.1385
   29MOL   H255 7591   7.432   3.268   0.144  1.4430  0.5653 -0.2293
   29MOL   H256 7592   7.465   3.313   0.400 -0.8731 -1.4710 -0.5145
   29MOL   H257 7593   7.564   3.584   0.146 -0.0943  1.8717  0.1354
   29MOL   H258 7594   7.722   3.534   0.169  1.6740  0.3639  2.7033
   29MOL   H259 7595   7.654   3.658   0.269 -3.1829  0.9320 -0.4386
   29MOL   H260 7596   7.623   3.411   0.537 -0.4159  1.2587  1.8632
   29MOL   H261 7597   7.666   3.581   0.501 -2.0498  0.8702 -2.5589
   29MOL   H262 7598   7.767   3.440   0.444  0.2658 -0.3624  2.3077
   30MOL     C1 7599   4.158   0.226   6.293  0.0169  0.0355  0.0043
   30MOL     C2 7600   4.132   0.133   6.413 -0.1167 -0.3313  0.4256
   30MOL     C3 7601   4.225   0.077   6.497  0.9726  0.1255 -0.9518
   30MOL     C4 7602   4.367   0.108   6.488 -0.7547 -0.6093 -0.3134
   30MOL     C5 7603   4.187   7.860   6.611 -0.6076 -0.5799 -0.6432
   30MOL     H6 7604   4.228   0.178   6.223  1.2068 -0.8151  1.7319
   30MOL     H7 7605   4.070   0.252   6.234  0.2717  0.2736 -0.2731
   30MOL     H8 7606   4.028   0.107   6.428  0.2057 -1.1263  1.2841
   30MOL     H9 7607   4.372   0.200   6.429 -3.0745 -0.0918  0.2290
   30MOL    H10 7608   4.421   0.024   6.444  4.9603  2.4376  0.4272
   30MOL    H11 7609   4.398   0.134   6.589  0.0116 -2.6251  0.0046
   30MOL    H12 7610   4.237   7.768   6.583  2.1743  0.0212  2.0309
   30MOL    H13 7611   4.082   7.833   6.602 -0.2908 -2.0387 -0.0176
   30MOL    H14 7612   4.204   0.313   6.340 -0.8759  0.9181 -0.7380
   30MOL    C15 7613   4.212   0.034   6.754 -0.6948  0.6725  0.6881
   30MOL    C16 7614   4.155   7.826   6.861  0.6048 -0.2553  0.0344
   30MOL    C17 7615   4.026   7.824   6.897  0.2144  0.2441  0.3122
   30MOL    C18 7616   3.928   0.048   6.854 -0.6933 -0.1933 -0.1914
   30MOL    C19 7617   3.984   7.731   7.014 -0.2611  0.0372 -0.1640
   30MOL    H20 7618   4.164   0.130   6.770  0.5458  1.4506 -0.1715
   30MOL    H21 7619   4.317   0.051   6.775 -0.8715  0.0925  2.1171
   30MOL    H22 7620   4.221   7.755   6.908 -0.0068 -1.2767 -0.6408
   30MOL    H23 7621   3.821   0.027   6.851 -0.7100 -0.2231  0.5370
   30MOL    H24 7622   3.942   0.065   6.748  0.2667  1.5272  0.1907
   30MOL    H25 7623   3.957   0.140   6.906  1.0203  0.2265 -1.8206
   30MOL    H26 7624   4.061   7.659   7.039 -0.0652  0.2404 -0.1813
   30MOL    H27 7625   3.896   7.671   6.991 -2.0384  2.6763 -0.5139
   30MOL    C28 7626   3.951   7.820   7.136  0.3697 -0.0569 -0.0458
   30MOL    C29 7627   3.877   7.733   7.236 -0.5495  0.5195 -0.1395
   30MOL    C30 7628   3.871   7.756   7.369  0.3785  0.4629 -0.5707
   30MOL    C31 7629   3.912   7.882   7.441  0.2625 -0.7835  0.7445
   30MOL    C32 7630   3.804   7.651   7.450 -0.2329  0.4819  0.4564
   30MOL    H33 7631   3.877   0.013   7.109  0.1956  0.4204  1.6859
   30MOL    H34 7632   4.036   7.867   7.186 -1.1875  2.5741  0.2129
   30MOL    H35 7633   3.845   7.635   7.204 -1.6053  0.3876  1.2817
   30MOL    H36 7634   3.945   7.853   7.541  2.4959  0.2961  0.3522
   30MOL    H37 7635   3.824   0.059   7.465  1.7738  2.1083 -0.6772
   30MOL    H38 7636   3.995   0.053   7.395  0.6067  0.8095  3.1602
   30MOL    H39 7637   3.724   7.608   7.389  0.7271 -0.7490  0.0536
   30MOL    H40 7638   3.756   7.704   7.532 -0.8038 -1.0221  1.1021
   30MOL    C41 7639   3.897   7.540   7.490  0.0670  0.3038  0.0720
   30MOL    C42 7640   3.832   7.452   7.596  0.2466 -0.4078 -0.7959
   30MOL    C43 7641   3.768   7.341   7.567  0.3208 -0.4881  0.1829
   30MOL    C44 7642   3.757   7.273   7.428 -0.0716 -0.0234  0.0374
   30MOL    C45 7643   3.680   7.271   7.667  0.7396 -0.4162  0.4885
   30MOL    H46 7644   3.990   7.587   7.519 -1.0540  2.7645 -0.2354
   30MOL    H47 7645   3.907   7.482   7.398 -1.9699 -0.5132  0.3361
   30MOL    H48 7646   3.834   7.482   7.699  2.0415  0.5733 -1.1017
   30MOL    H49 7647   3.843   7.299   7.366 -0.2617 -1.0398 -0.6705
   30MOL    H50 7648   3.670   7.305   7.370 -1.6069 -1.7095  1.3818
   30MOL    H51 7649   3.767   7.166   7.446  2.3017 -0.0901 -1.3428
   30MOL    H52 7650   3.738   7.179   7.678 -0.0292 -1.0434 -0.6448
   30MOL    H53 7651   3.580   7.261   7.626  0.7950  1.6565 -0.1974
   30MOL    C54 7652   3.675   7.325   7.808 -0.4992 -0.1334  0.5817
   30MOL    C55 7653   3.586   7.233   0.008 -0.5682  0.5864 -0.3798
   30MOL    C56 7654   3.617   7.165   0.125 -0.3149  0.4456 -0.2223
   30MOL    C57 7655   3.755   7.164   0.192  0.1869  0.3900 -0.4608
   30MOL    C58 7656   3.515   7.061   0.184 -0.7098 -0.0099 -0.3041
   30MOL    H59 7657   3.631   7.425   7.808 -0.0351  0.0740  0.3878
   30MOL    H60 7658   3.778   7.333   7.842 -1.2082  2.0552  2.2936
   30MOL    H61 7659   3.489   7.206   7.850 -1.9833 -0.1097  3.2491
   30MOL    H62 7660   3.754   7.123   0.293  0.1058  0.5812 -0.3830
   30MOL    H63 7661   3.796   7.264   0.206  2.6133 -0.8175  1.3954
   30MOL    H64 7662   3.832   7.108   0.139 -0.6403 -0.3385 -0.9048
   30MOL    H65 7663   3.561   6.963   0.197  1.8513  1.2289  0.3936
   30MOL    H66 7664   3.442   7.045   0.105 -0.3104 -3.7476  0.0174
   30MOL    C67 7665   3.465   7.109   0.318 -0.2974  0.1146 -0.0712
   30MOL    C68 7666   3.351   7.022   0.371 -0.3103 -0.3185  0.0910
   30MOL    C69 7667   3.225   7.057   0.400 -0.1095 -0.0093  0.6562
   30MOL    C70 7668   3.171   7.199   0.381 -0.0343  0.9139  0.0248
   30MOL    C71 7669   3.132   6.955   0.455  0.1396  0.7966 -0.3848
   30MOL    H72 7670   3.426   7.211   0.319  2.0646  1.0560  0.5553
   30MOL    H73 7671   3.548   7.105   0.389  0.0711 -2.3043 -0.5959
   30MOL    H74 7672   3.372   6.920   0.400  0.9629  0.3871  1.7613
   30MOL    H75 7673   3.073   7.193   0.333 -0.3431 -1.6395  0.9267
   30MOL    H76 7674   3.237   7.265   0.325  1.3613 -0.1771  0.3676
   30MOL    H77 7675   3.153   7.250   0.476  0.2184  0.3445  0.3758
   30MOL    H78 7676   3.157   6.851   0.434  0.0297  0.2854  1.8866
   30MOL    H79 7677   3.046   6.972   0.391 -0.5565 -2.1630 -0.3055
   30MOL    C80 7678   3.100   6.988   0.599 -0.0634  0.0360  0.1756
   30MOL    C81 7679   2.986   6.895   0.662 -0.2835 -0.3594 -0.0417
   30MOL    C82 7680   3.002   6.811   0.769  0.8874  0.1611  0.2497
   30MOL    C83 7681   3.140   6.792   0.838  0.4291  0.1176  0.6896
   30MOL    C84 7682   2.891   6.703   0.810 -0.4959 -0.0911  0.0056
   30MOL    H85 7683   3.062   7.089   0.608  0.5391  0.0363  3.1468
   30MOL    H86 7684   3.190   6.987   0.661 -0.7671 -2.0761  1.2311
   30MOL    H87 7685   2.889   6.887   0.617  0.2176  0.6022 -1.3192
   30MOL    H88 7686   3.212   6.873   0.833 -2.3991  2.6245 -1.0822
   30MOL    H89 7687   3.187   6.702   0.798 -3.0093 -0.4697 -2.3058
   30MOL    H90 7688   3.111   6.768   0.940 -2.3693 -2.1767 -0.5737
   30MOL    H91 7689   2.797   6.745   0.775 -0.5667 -0.6277 -0.4589
   30MOL    H92 7690   2.879   6.698   0.919  1.1141  1.3662  0.2775
   30MOL    C93 7691   2.913   6.569   0.746  0.0458  0.2516  0.0838
   30MOL    C94 7692   2.867   6.574   0.600 -0.5425 -0.9916  0.0802
   30MOL    C95 7693   2.930   6.563   0.487 -0.9721  0.1740  0.1817
   30MOL    C96 7694   3.081   6.550   0.474 -0.9020  0.2245  0.1496
   30MOL    C97 7695   2.858   6.586   0.354  0.9684  0.2906 -0.2047
   30MOL    H98 7696   2.847   6.499   0.797 -0.0444  1.6186  1.8837
   30MOL    H99 7697   3.012   6.533   0.773 -0.8348 -1.7023  0.8122
   30MOL   H100 7698   2.760   6.590   0.598 -0.0704  2.7021 -0.0430
   30MOL   H101 7699   3.147   6.549   0.561  1.3634 -2.1531 -1.5463
   30MOL   H102 7700   3.119   6.642   0.430 -2.2446  0.4972 -0.4717
   30MOL   H103 7701   3.100   6.462   0.413  2.5771  1.3184 -0.4451
   30MOL   H104 7702   2.756   6.555   0.377  1.3830 -0.4933  0.6078
   30MOL   H105 7703   2.902   6.524   0.276  0.2653 -1.9619  1.1542
   30MOL   C106 7704   2.864   6.722   0.291 -0.9381 -0.6470  0.3222
   30MOL   C107 7705   2.777   6.820   0.362  0.0621 -0.4137  0.3518
   30MOL   C108 7706   2.745   6.950   0.331 -0.2342 -0.0378 -0.2787
   30MOL   C109 7707   2.789   7.018   0.207 -0.1082  0.3402 -0.1776
   30MOL   C110 7708   2.653   7.038   0.420 -0.2537 -0.0791  0.0586
   30MOL   H111 7709   2.825   6.718   0.189 -0.9797 -1.4833  0.3655
   30MOL   H112 7710   2.966   6.758   0.296 -1.2411  0.2176  0.3348
   30MOL   H113 7711   2.742   6.771   0.451  0.3501 -1.5457 -0.1455
   30MOL   H114 7712   2.715   7.093   0.179 -1.2639 -0.8029 -0.1850
   30MOL   H115 7713   2.810   6.944   0.130  1.4951 -0.3592  0.8955
   30MOL   H116 7714   2.881   7.069   0.238  0.2328  0.6344 -1.6511
   30MOL   H117 7715   2.616   6.979   0.503 -2.6709 -0.2605 -1.1107
   30MOL   H118 7716   2.568   7.075   0.362  0.5964  2.0546  0.1083
   30MOL   C119 7717   2.732   7.152   0.484  0.2999  0.0234  0.8253
   30MOL   C120 7718   2.651   7.238   0.580 -0.0563  0.3065  1.5358
   30MOL   C121 7719   2.632   7.214   0.709  0.2386  0.6756 -0.5183
   30MOL   C122 7720   2.712   7.109   0.789  0.0252 -0.1929 -0.4031
   30MOL   C123 7721   2.553   7.306   0.801  0.1882  0.4146 -0.3760
   30MOL   H124 7722   2.785   7.206   0.404 -0.6721  0.0560  0.1896
   30MOL   H125 7723   2.820   7.105   0.528  2.5374  2.7736 -0.4689
   30MOL   H126 7724   2.593   7.317   0.533  0.7210  0.0884  0.1854
   30MOL   H127 7725   2.643   7.055   0.854  2.3704 -2.1840  0.4784
   30MOL   H128 7726   2.797   7.152   0.842  1.5266 -1.0953 -2.0198
   30MOL   H129 7727   2.752   7.033   0.722  0.9655  2.4824 -3.0033
   30MOL   H130 7728   2.558   7.408   0.764  0.6580  0.5614  0.0902
   30MOL   H131 7729   2.613   7.316   0.892  0.4372  1.1612 -0.6200
   30MOL   C132 7730   2.404   7.258   0.824 -0.0017 -0.0450 -0.1729
   30MOL   C133 7731   2.326   7.327   0.937 -0.4898 -0.6564 -0.0828
   30MOL   C134 7732   2.198   7.300   0.973 -0.2312  0.4915 -0.4670
   30MOL   C135 7733   2.121   7.194   0.901 -0.1983  0.8784  0.1193
   30MOL   C136 7734   2.125   7.362   1.091  0.1887 -0.2325 -0.1120
   30MOL   H137 7735   2.407   7.153   0.849 -0.9974  0.1763  0.8575
   30MOL   H138 7736   2.339   7.263   0.736 -0.4146 -0.5703  0.1057
   30MOL   H139 7737   2.383   7.406   0.984  2.4356 -2.9205  0.3560
   30MOL   H140 7738   2.032   7.172   0.959 -0.3611 -1.4773 -0.9659
   30MOL   H141 7739   2.173   7.101   0.880  0.8693  1.5500 -0.2506
   30MOL   H142 7740   2.099   7.231   0.801  0.3331 -1.6184 -0.9422
   30MOL   H143 7741   2.083   7.286   1.156  1.1868 -1.4487 -0.8629
   30MOL   H144 7742   2.037   7.412   1.049 -0.7322  0.0455  2.0575
   30MOL   C145 7743   2.208   7.447   1.190 -0.2329  1.0573 -0.0072
   30MOL   C146 7744   2.128   7.498   1.307  1.0696  0.6375  0.5050
   30MOL   C147 7745   2.110   7.626   1.353  0.1379 -0.5665 -0.3126
   30MOL   C148 7746   2.177   7.751   1.293 -0.3219 -0.0909 -0.1646
   30MOL   C149 7747   2.036   7.659   1.480 -0.3725  0.1865 -0.3800
   30MOL   H150 7748   2.252   7.524   1.126 -0.6074  0.7048 -0.6942
   30MOL   H151 7749   2.277   7.384   1.247 -1.5066  0.5644  0.9958
   30MOL   H152 7750   2.085   7.417   1.363  0.1608  0.6736 -0.1125
   30MOL   H153 7751   2.285   7.752   1.304 -0.5430 -1.7024  2.5244
   30MOL   H154 7752   2.157   7.854   1.324  0.4138  0.9707 -3.0239
   30MOL   H155 7753   2.158   7.746   1.186 -1.8395 -0.8713  0.1246
   30MOL   H156 7754   2.104   7.717   1.542 -0.4114  1.1747 -1.2561
   30MOL   H157 7755   2.008   7.570   1.536 -0.5027  0.6096  0.2372
   30MOL   C158 7756   1.916   7.749   1.462 -0.4157  0.8122  0.5914
   30MOL   C159 7757   1.788   7.666   1.434 -0.2655  0.2910  0.1908
   30MOL   C160 7758   1.735   7.647   1.312  0.0513  0.6770 -0.1045
   30MOL   C161 7759   1.794   7.701   1.177  0.2147  0.4511  0.2140
   30MOL   C162 7760   1.607   7.569   1.299 -0.4042  0.3076  0.0903
   30MOL   H163 7761   1.931   7.820   1.381  0.5144 -1.4222 -1.2312
   30MOL   H164 7762   1.893   7.799   1.556  1.3045  0.7567  1.0678
   30MOL   H165 7763   1.746   7.610   1.516 -1.4630  1.4058  0.3570
   30MOL   H166 7764   1.859   7.786   1.194  0.7563  0.1223 -0.1714
   30MOL   H167 7765   1.714   7.722   1.106  0.8687  2.2680 -0.0134
   30MOL   H168 7766   1.859   7.634   1.120 -0.1944 -0.5381  0.9010
   30MOL   H169 7767   1.523   7.634   1.274  0.9203  2.1161  0.1967
   30MOL   H170 7768   1.593   7.516   1.393  0.5457 -2.5359 -1.3197
   30MOL   C171 7769   1.613   7.450   1.202 -0.4145  0.4118  0.3276
   30MOL   C172 7770   1.488   7.365   1.213  0.7379 -0.3448 -0.1209
   30MOL   C173 7771   1.473   7.241   1.152 -0.5475  0.0280  0.2973
   30MOL   C174 7772   1.577   7.145   1.092  0.1584  0.3684 -0.4026
   30MOL   C175 7773   1.330   7.180   1.147 -0.1055  0.1060  0.2679
   30MOL   H176 7774   1.708   7.404   1.228 -0.0652  2.1353  2.1747
   30MOL   H177 7775   1.626   7.490   1.101  1.3224 -0.8608  0.0317
   30MOL   H178 7776   1.399   7.405   1.259  0.1871  0.9041 -2.1953
   30MOL   H179 7777   1.573   7.060   1.160  1.4868 -1.3882 -2.4702
   30MOL   H180 7778   1.681   7.181   1.091  0.4353 -0.4555 -1.2214
   30MOL   H181 7779   1.553   7.104   0.995 -0.2368  0.2831 -0.2698
   30MOL   H182 7780   1.262   7.249   1.196  0.2244  1.7726 -1.5249
   30MOL   H183 7781   1.324   7.081   1.191 -0.8111  0.2251  0.4416
   30MOL   C184 7782   1.274   7.168   1.006  0.1850 -0.4603  1.0320
   30MOL   C185 7783   1.121   7.159   1.000 -0.2500  0.1232 -0.0414
   30MOL   C186 7784   1.050   7.078   0.921 -0.0006  0.4677  0.1097
   30MOL   C187 7785   1.104   6.990   0.815 -0.0309 -0.1169 -0.2603
   30MOL   C188 7786   0.897   7.081   0.922  0.6236  0.1502  0.6828
   30MOL   H189 7787   1.317   7.081   0.957 -0.6410  1.0104 -2.5142
   30MOL   H190 7788   1.299   7.261   0.953  0.6688 -1.5884 -0.7617
   30MOL   H191 7789   1.075   7.232   1.065  0.0749 -0.8865  1.3574
   30MOL   H192 7790   1.083   6.883   0.818 -0.6639  0.0099 -0.0927
   30MOL   H193 7791   1.213   6.992   0.811  0.1230  0.9469  2.8959
   30MOL   H194 7792   1.067   7.024   0.718  2.1635  2.4595 -0.2541
   30MOL   H195 7793   0.873   7.098   1.027 -0.1507  0.6246  0.4362
   30MOL   H196 7794   0.852   6.986   0.891 -2.4991  1.5782  0.6475
   30MOL   C197 7795   0.847   7.183   0.822  0.0910  0.1410 -0.3904
   30MOL   C198 7796   0.707   7.222   0.863 -0.3566  0.1200  1.0197
   30MOL   C199 7797   0.591   7.217   0.797  0.2369 -0.0603  0.0944
   30MOL   C200 7798   0.590   7.180   0.649  0.9642 -0.0041 -0.5386
   30MOL   C201 7799   0.466   7.273   0.853 -0.6705 -0.3708 -0.2462
   30MOL   H202 7800   0.851   7.149   0.718  1.5512  1.8351 -0.9146
   30MOL   H203 7801   0.914   7.269   0.820  1.6520 -1.0595 -1.4944
   30MOL   H204 7802   0.706   7.257   0.965  1.8585 -0.9982  1.4471
   30MOL   H205 7803   0.681   7.135   0.608  0.1639 -0.8652 -1.4061
   30MOL   H206 7804   0.574   7.274   0.596  3.3750  0.2508 -0.8690
   30MOL   H207 7805   0.511   7.107   0.631  1.6633 -1.5230  2.2715
   30MOL   H208 7806   0.443   7.376   0.825  1.8084 -0.0941 -1.3654
   30MOL   H209 7807   0.479   7.257   0.960 -0.5128  1.2596 -0.0059
   30MOL   C210 7808   0.336   7.203   0.810 -0.2002 -0.7510 -0.5894
   30MOL   C211 7809   0.219   7.253   0.893 -0.3482 -0.3204  0.4763
   30MOL   C212 7810   0.088   7.224   0.877 -0.8310  1.0904 -0.2984
   30MOL   C213 7811   0.042   7.150   0.752  0.3928  0.2822  0.0133
   30MOL   C214 7812   7.870   7.258   0.988  0.7422  0.3592 -0.2532
   30MOL   H215 7813   0.347   7.098   0.835  0.8127 -0.5737 -0.2779
   30MOL   H216 7814   0.311   7.215   0.705 -0.7345  1.6495 -0.2367
   30MOL   H217 7815   0.246   7.308   0.982 -1.8205  0.7345  0.2859
   30MOL   H218 7816   7.827   7.188   0.719 -0.9531 -0.3555  3.0870
   30MOL   H219 7817   0.043   7.042   0.743  0.3248  0.3152 -0.3948
   30MOL   H220 7818   0.104   7.174   0.666 -0.0348  0.4588 -0.2480
   30MOL   H221 7819   7.780   7.302   0.944 -0.3288  0.0942  1.6165
   30MOL   H222 7820   0.037   7.339   1.041  2.3485  0.9558 -2.6038
   30MOL   C223 7821   7.825   7.136   1.067  0.6328 -0.2378 -0.0458
   30MOL   C224 7822   7.731   7.173   1.175 -0.0783 -1.1749 -0.2864
   30MOL   C225 7823   7.733   7.142   1.304  0.9593  0.0376  0.4370
   30MOL   C226 7824   7.834   7.053   1.361  0.6159 -0.4446 -0.4881
   30MOL   C227 7825   7.617   7.184   1.385  0.4812 -0.5574 -0.3938
   30MOL   H228 7826   0.026   7.075   1.102  0.6229 -0.4592 -0.4031
   30MOL   H229 7827   7.769   7.069   1.001 -0.9063  1.8494 -0.9266
   30MOL   H230 7828   7.659   7.242   1.134  1.3242  0.7276  0.3525
   30MOL   H231 7829   7.872   7.090   1.456 -1.6978  0.7407  0.0245
   30MOL   H232 7830   0.028   7.014   1.293  0.9787 -0.4636 -0.0683
   30MOL   H233 7831   7.781   6.960   1.384  0.3071 -0.1730 -0.1152
   30MOL   H234 7832   7.610   7.290   1.361  2.2395 -0.6693 -1.4686
   30MOL   H235 7833   7.635   7.192   1.492  0.1863  0.0095 -0.3859
   30MOL   C236 7834   7.497   7.089   1.350  0.3422 -0.0460 -0.8048
   30MOL   C237 7835   7.367   7.138   1.412  0.3534 -0.6835  0.6756
   30MOL   C238 7836   7.250   7.134   1.342  0.2196 -0.4608  0.1260
   30MOL   C239 7837   7.229   7.071   1.206  0.3533 -0.3597  0.2177
   30MOL   C240 7838   7.121   7.187   1.403  0.1130  0.2985  0.3564
   30MOL   H241 7839   7.515   6.995   1.403 -0.0811  0.5661  0.4553
   30MOL   H242 7840   7.498   7.052   1.248 -1.6747 -3.7694  0.4163
   30MOL   H243 7841   7.376   7.164   1.516 -0.5840  2.3398  0.0618
   30MOL   H244 7842   7.310   7.052   1.136 -1.3427 -1.6299 -1.4587
   30MOL   H245 7843   7.150   7.121   1.151 -0.3985 -1.4749  0.2661
   30MOL   H246 7844   7.185   6.973   1.225  0.9438 -0.6560  0.0681
   30MOL   H247 7845   7.075   7.246   1.325 -1.4331 -1.2813  0.0578
   30MOL   H248 7846   7.146   7.260   1.481  2.0597 -0.6824  0.6822
   30MOL   C249 7847   7.019   7.079   1.445 -0.2252 -0.2047 -0.3461
   30MOL   C250 7848   6.914   7.150   1.528 -0.2741  0.3712 -0.6594
   30MOL   C251 7849   6.900   7.144   1.663  0.1179  0.2666 -0.3007
   30MOL   C252 7850   6.987   7.062   1.755  0.4369 -0.6255 -0.3265
   30MOL   C253 7851   6.814   7.252   1.730 -0.3080 -0.1641  0.1909
   30MOL   H254 7852   7.060   6.999   1.507  0.6597 -0.2282 -0.9605
   30MOL   H255 7853   6.986   7.020   1.360 -2.6881  1.3093 -0.4977
   30MOL   H256 7854   6.844   7.213   1.477 -0.8898  1.2113  1.1615
   30MOL   H257 7855   7.026   6.973   1.705 -0.0203 -0.7584 -0.4484
   30MOL   H258 7856   6.926   7.022   1.836 -0.4803  0.1309 -0.6335
   30MOL   H259 7857   7.076   7.109   1.796  0.8163 -0.8091 -0.9176
   30MOL   H260 7858   6.742   7.298   1.663  0.9591  0.2210 -0.9204
   30MOL   H261 7859   6.867   7.324   1.792 -1.7149 -0.0458  1.3010
   30MOL   H262 7860   6.747   7.206   1.803  0.1135 -1.5845 -0.3037
   31MOL     C1 7861   3.278   2.460   4.377 -0.1731 -0.7112 -0.7716
   31MOL     C2 7862   3.293   2.608   4.370 -0.2317 -0.0691  0.0181
   31MOL     C3 7863   3.289   2.694   4.472 -0.1427  0.9132  0.5255
   31MOL     C4 7864   3.258   2.649   4.613  0.1642  0.4224  0.0691
   31MOL     C5 7865   3.304   2.843   4.456 -0.6830 -0.0017  0.1323
   31MOL     H6 7866   3.237   2.417   4.286  0.6994  0.8353 -1.9227
   31MOL     H7 7867   3.373   2.412   4.397 -0.9151 -1.1006  2.0993
   31MOL     H8 7868   3.320   2.651   4.275  2.1923  1.8090  1.4901
   31MOL     H9 7869   3.298   2.548   4.615  0.9008  0.7321  0.7980
   31MOL    H10 7870   3.149   2.652   4.615  0.1676 -0.4705  1.3664
   31MOL    H11 7871   3.292   2.723   4.685 -0.7024  0.5385  0.3770
   31MOL    H12 7872   3.345   2.874   4.360  0.2505 -1.0897  0.1665
   31MOL    H13 7873   3.373   2.876   4.533 -0.0087 -0.0758 -0.4357
   31MOL    H14 7874   3.217   2.432   4.464 -1.0302 -0.3610 -1.2518
   31MOL    C15 7875   3.172   2.917   4.477  0.4864 -0.2663 -0.8044
   31MOL    C16 7876   3.090   2.914   4.348 -0.1263  0.1276 -0.0332
   31MOL    C17 7877   2.993   2.997   4.311 -0.5047 -0.2639  0.0521
   31MOL    C18 7878   2.928   3.092   4.404 -0.2216 -0.2951  0.6048
   31MOL    C19 7879   2.923   2.998   4.176  0.7388  0.2538  0.0948
   31MOL    H20 7880   3.183   3.022   4.504  0.0769 -0.3113 -0.4397
   31MOL    H21 7881   3.121   2.871   4.562  0.5299 -0.5579 -0.9352
   31MOL    H22 7882   3.112   2.834   4.280 -0.1368 -0.6605  0.8796
   31MOL    H23 7883   2.820   3.079   4.401 -0.1097 -1.8617  1.9590
   31MOL    H24 7884   2.951   3.196   4.383 -1.7988 -0.0166  0.2060
   31MOL    H25 7885   2.949   3.077   4.511 -1.3343  1.0870  1.0258
   31MOL    H26 7886   2.818   2.972   4.186  0.1925  1.9134 -1.1224
   31MOL    H27 7887   2.959   2.911   4.121 -0.2890 -1.0895  1.5194
   31MOL    C28 7888   2.953   3.120   4.088  0.5965  0.3191  0.1224
   31MOL    C29 7889   3.100   3.158   4.080  0.4071  0.5781  1.1438
   31MOL    C30 7890   3.147   3.280   4.075 -0.7511  0.4908 -0.5929
   31MOL    C31 7891   3.068   3.409   4.071  0.3990  0.4676  0.2883
   31MOL    C32 7892   3.293   3.305   4.100  0.5765  0.0258 -0.2148
   31MOL    H33 7893   2.893   3.203   4.125  1.2449 -0.2689  2.5926
   31MOL    H34 7894   2.925   3.100   3.985  0.5209 -1.1346  0.4161
   31MOL    H35 7895   3.168   3.076   4.092 -0.2316  0.1959  2.2176
   31MOL    H36 7896   3.125   3.484   4.016  1.5626 -1.1223 -0.7561
   31MOL    H37 7897   3.032   3.443   4.168 -1.7232  0.5168 -0.4917
   31MOL    H38 7898   2.981   3.401   4.006 -0.2545  0.5524  1.1518
   31MOL    H39 7899   3.336   3.358   4.015 -0.0768  0.1906 -0.4436
   31MOL    H40 7900   3.350   3.212   4.094  0.9394  0.2989 -1.1874
   31MOL    C41 7901   3.323   3.373   4.234  0.5700 -0.5004 -0.2685
   31MOL    C42 7902   3.474   3.364   4.280 -0.0882 -0.3695 -0.5124
   31MOL    C43 7903   3.526   3.271   4.360 -1.2494  0.0811 -0.3710
   31MOL    C44 7904   3.443   3.170   4.430 -0.2314  0.4480  0.1035
   31MOL    C45 7905   3.680   3.273   4.389  0.6156  0.4297 -0.0505
   31MOL    H46 7906   3.263   3.331   4.315  1.0005  3.1101  2.0539
   31MOL    H47 7907   3.316   3.482   4.236  0.7280 -0.4835 -0.7691
   31MOL    H48 7908   3.536   3.438   4.230 -2.3541  1.1613 -1.1745
   31MOL    H49 7909   3.372   3.218   4.496  0.3010  0.4900  0.6538
   31MOL    H50 7910   3.500   3.102   4.494  0.3244 -0.2058 -1.0636
   31MOL    H51 7911   3.402   3.105   4.353 -0.6128 -0.3496  0.9905
   31MOL    H52 7912   3.695   3.291   4.496  1.6802  0.7730 -0.2482
   31MOL    H53 7913   3.721   3.361   4.339 -2.7257  2.1698  0.1523
   31MOL    C54 7914   3.747   3.144   4.348 -0.4893  0.2907 -0.5778
   31MOL    C55 7915   3.703   3.080   4.214 -0.3847 -1.0525 -0.4008
   31MOL    C56 7916   3.663   2.951   4.196  0.1266  0.1607 -0.1824
   31MOL    C57 7917   3.659   2.839   4.298 -0.5347  0.1035  0.0951
   31MOL    C58 7918   3.609   2.906   4.063  0.5524  0.0040  0.5993
   31MOL    H59 7919   3.734   3.068   4.425 -0.2413 -0.3293 -1.1427
   31MOL    H60 7920   3.854   3.161   4.340 -0.8381  2.0020 -1.9572
   31MOL    H61 7921   3.707   3.143   4.127  0.9959 -4.0551 -2.6188
   31MOL    H62 7922   3.635   2.746   4.245  0.2585 -0.1275  0.1416
   31MOL    H63 7923   3.590   2.848   4.381  1.0781 -1.7800  1.6944
   31MOL    H64 7924   3.761   2.826   4.335 -0.6257  1.9197  1.0228
   31MOL    H65 7925   3.657   2.816   4.025 -1.8156 -1.3291  0.7375
   31MOL    H66 7926   3.641   2.978   3.987  1.0432 -0.5696  0.2545
   31MOL    C67 7927   3.451   2.903   4.065  0.1224  0.3883  0.0502
   31MOL    C68 7928   3.396   2.887   3.925 -0.6022  0.4744  0.2006
   31MOL    C69 7929   3.283   2.833   3.881  0.1860  0.2571  0.2531
   31MOL    C70 7930   3.170   2.777   3.971  0.2832 -0.5816  0.3282
   31MOL    C71 7931   3.263   2.815   3.729  0.4277 -0.5078  0.3959
   31MOL    H72 7932   3.413   2.994   4.111  0.7367 -0.0099  1.3716
   31MOL    H73 7933   3.406   2.824   4.125  0.5903  0.8791  1.0411
   31MOL    H74 7934   3.467   2.911   3.847  0.5675  1.2372  1.4799
   31MOL    H75 7935   3.176   2.817   4.072  1.8676  1.1676 -0.4351
   31MOL    H76 7936   3.197   2.673   3.992  1.1469 -0.1052  1.5578
   31MOL    H77 7937   3.070   2.791   3.928  0.6932 -2.2105 -1.2388
   31MOL    H78 7938   3.232   2.714   3.704 -1.0149  0.0898 -0.3081
   31MOL    H79 7939   3.358   2.816   3.674  0.2570  1.3452  0.0723
   31MOL    C80 7940   3.159   2.900   3.652  0.0070 -0.2760 -0.2518
   31MOL    C81 7941   3.173   3.039   3.697 -0.2462  0.4001 -0.2924
   31MOL    C82 7942   3.211   3.147   3.630  0.6032 -0.2431  0.9722
   31MOL    C83 7943   3.240   3.139   3.476 -0.1189  0.0417 -0.1372
   31MOL    C84 7944   3.208   3.287   3.684 -0.2357  1.3272  0.3631
   31MOL    H85 7945   3.056   2.887   3.684 -0.5300  1.3415 -1.2712
   31MOL    H86 7946   3.168   2.893   3.544 -0.6870 -1.4636 -0.2497
   31MOL    H87 7947   3.144   3.055   3.800  0.8062  1.0225 -0.0849
   31MOL    H88 7948   3.138   3.137   3.438 -1.5194  0.7094  3.3581
   31MOL    H89 7949   3.296   3.050   3.449  0.9566  0.5334  0.4328
   31MOL    H90 7950   3.298   3.220   3.433 -0.4930 -0.1614 -1.0272
   31MOL    H91 7951   3.309   3.329   3.679  0.2500  0.3043  1.1952
   31MOL    H92 7952   3.181   3.282   3.789 -1.2311 -0.2046  0.0440
   31MOL    C93 7953   3.106   3.378   3.613 -0.0710  0.4893  0.7467
   31MOL    C94 7954   3.110   3.520   3.663 -0.8571 -0.3009  0.2056
   31MOL    C95 7955   3.094   3.630   3.585 -0.2396 -0.0643  0.9950
   31MOL    C96 7956   3.065   3.622   3.436 -0.0535  0.4591  0.0447
   31MOL    C97 7957   3.138   3.767   3.636  0.1836 -0.3290 -0.2141
   31MOL    H98 7958   3.010   3.328   3.628  0.5770 -1.0053  0.0110
   31MOL    H99 7959   3.150   3.373   3.513 -0.8790 -2.1599  0.4558
   31MOL   H100 7960   3.133   3.526   3.768 -3.2707  1.0703  0.7010
   31MOL   H101 7961   3.079   3.521   3.398 -1.1213 -0.4833  2.0670
   31MOL   H102 7962   3.136   3.693   3.394  1.1589 -1.8354 -1.8792
   31MOL   H103 7963   2.968   3.658   3.401  0.2848 -0.9340 -2.4111
   31MOL   H104 7964   3.230   3.802   3.588 -0.5374  2.3769  0.3278
   31MOL   H105 7965   3.169   3.737   3.736  1.1348  1.9822  0.2029
   31MOL   C106 7966   3.026   3.881   3.647 -0.4613 -0.2214  0.0589
   31MOL   C107 7967   2.889   3.836   3.691 -0.2094 -0.0102  0.3609
   31MOL   C108 7968   2.791   3.922   3.705  0.9622  0.1833  0.3067
   31MOL   C109 7969   2.815   4.076   3.690  0.3155 -0.1313 -0.3158
   31MOL   C110 7970   2.651   3.879   3.733  0.1870  0.2273  0.0861
   31MOL   H111 7971   3.019   3.933   3.551  0.2751  3.2953  1.7923
   31MOL   H112 7972   3.057   3.963   3.712  3.2609 -0.4086 -1.3393
   31MOL   H113 7973   2.857   3.733   3.702 -1.2259  0.5151  2.5553
   31MOL   H114 7974   2.861   4.118   3.780  0.4250  0.1038 -0.4823
   31MOL   H115 7975   2.721   4.127   3.669 -0.3855 -0.2296  2.3883
   31MOL   H116 7976   2.877   4.089   3.602  1.5340 -2.6480  0.1136
   31MOL   H117 7977   2.637   3.771   3.724 -2.0846  0.1733  3.2913
   31MOL   H118 7978   2.580   3.926   3.666 -0.3391 -1.4841 -0.5880
   31MOL   C119 7979   2.606   3.901   3.877  0.3088  0.3446 -1.0748
   31MOL   C120 7980   2.690   3.822   3.984 -0.0529  0.0166 -0.2583
   31MOL   C121 7981   2.751   3.873   4.093 -0.5358 -0.5360  0.7071
   31MOL   C122 7982   2.769   4.021   4.127  0.6596  0.4395  1.1651
   31MOL   C123 7983   2.816   3.776   4.195 -0.6549 -0.2020  0.3322
   31MOL   H124 7984   2.505   3.868   3.899  0.6262  0.3544  0.4114
   31MOL   H125 7985   2.594   4.009   3.888  0.4557  0.2219  0.2979
   31MOL   H126 7986   2.686   3.715   3.974 -0.0475 -0.0655  0.5834
   31MOL   H127 7987   2.683   4.081   4.097 -1.3756 -1.3661  3.1724
   31MOL   H128 7988   2.850   4.057   4.064 -0.2306  0.0758 -0.2124
   31MOL   H129 7989   2.776   4.037   4.235 -0.2937  0.6480  1.2016
   31MOL   H130 7990   2.892   3.837   4.243  0.0061 -0.6393 -0.1584
   31MOL   H131 7991   2.855   3.684   4.152  0.2383 -0.2798  1.3040
   31MOL   C132 7992   2.709   3.732   4.302  0.4760 -0.5413  0.5320
   31MOL   C133 7993   2.779   3.685   4.424 -0.5392  0.1186  0.2137
   31MOL   C134 7994   2.800   3.558   4.464 -0.3356  0.3478  0.0338
   31MOL   C135 7995   2.750   3.435   4.395  0.6075  0.0856 -0.0498
   31MOL   C136 7996   2.878   3.536   4.592  0.6866  0.4495 -0.3665
   31MOL   H137 7997   2.638   3.657   4.268  1.4500 -0.7591 -1.0527
   31MOL   H138 7998   2.648   3.821   4.319  0.9682 -0.0978  0.0143
   31MOL   H139 7999   2.820   3.766   4.482 -0.4822  0.1168  0.1765
   31MOL   H140 8000   2.833   3.364   4.390  0.5221  0.1161 -2.1685
   31MOL   H141 8001   2.712   3.445   4.293  0.3829 -0.3858 -0.0126
   31MOL   H142 8002   2.679   3.392   4.466 -0.0139  1.1783 -0.0005
   31MOL   H143 8003   2.930   3.623   4.633  2.1046 -0.2308 -0.6778
   31MOL   H144 8004   2.964   3.474   4.564 -0.0248 -1.2547  1.1278
   31MOL   C145 8005   2.799   3.467   4.704  0.8066 -0.5810  0.2893
   31MOL   C146 8006   2.870   3.461   4.836 -0.4376 -0.4102 -0.1970
   31MOL   C147 8007   2.935   3.353   4.894 -0.0327  0.1824 -0.5239
   31MOL   C148 8008   2.921   3.209   4.843  0.4276  0.1638 -0.2740
   31MOL   C149 8009   3.023   3.371   5.019  0.5449  0.0647 -0.4464
   31MOL   H150 8010   2.765   3.369   4.671 -1.0055  0.0466  0.2444
   31MOL   H151 8011   2.712   3.531   4.713  1.0757 -0.3992  1.7833
   31MOL   H152 8012   2.888   3.554   4.888  0.6003  0.2380 -1.6778
   31MOL   H153 8013   2.874   3.134   4.908  1.9828 -1.4644 -0.9811
   31MOL   H154 8014   3.022   3.170   4.831  0.5514 -0.3136  2.0228
   31MOL   H155 8015   2.866   3.211   4.749  0.7112  1.3811 -0.4191
   31MOL   H156 8016   3.017   3.278   5.076 -0.0781  1.1117  1.2238
   31MOL   H157 8017   2.995   3.452   5.086  2.8687  1.2894 -0.8978
   31MOL   C158 8018   3.172   3.394   4.987 -0.1549  0.7355  0.1724
   31MOL   C159 8019   3.265   3.427   5.110  0.6335  0.5412  0.4176
   31MOL   C160 8020   3.375   3.362   5.152 -0.2795 -1.2108 -0.4907
   31MOL   C161 8021   3.430   3.241   5.079  0.2123 -0.0985 -0.1831
   31MOL   C162 8022   3.450   3.403   5.278  0.6897  0.3886 -0.6419
   31MOL   H163 8023   3.174   3.496   4.948 -0.8340 -0.3199 -2.7238
   31MOL   H164 8024   3.214   3.322   4.916  0.2377  1.7896 -0.6762
   31MOL   H165 8025   3.223   3.516   5.155 -2.6906 -0.4661 -0.5642
   31MOL   H166 8026   3.538   3.247   5.091  0.0024  3.6004  0.4581
   31MOL   H167 8027   3.412   3.239   4.972 -0.8181  0.5990 -0.0336
   31MOL   H168 8028   3.393   3.149   5.125  1.9515  0.3258  2.1694
   31MOL   H169 8029   3.550   3.432   5.246  0.4244  0.3008 -1.5478
   31MOL   H170 8030   3.459   3.305   5.325 -2.4627  0.2998 -0.1007
   31MOL   C171 8031   3.389   3.515   5.368 -0.4034  0.1513 -0.9288
   31MOL   C172 8032   3.477   3.538   5.487 -0.1463 -0.3477 -0.1259
   31MOL   C173 8033   3.538   3.662   5.504  0.1686  0.3933 -0.5789
   31MOL   C174 8034   3.538   3.781   5.407 -0.1602  0.0326  0.3691
   31MOL   C175 8035   3.621   3.683   5.628 -0.7968  0.4461 -0.4675
   31MOL   H176 8036   3.292   3.479   5.402  1.5904 -2.5745  2.2480
   31MOL   H177 8037   3.383   3.610   5.315  1.5280  0.0880 -1.3048
   31MOL   H178 8038   3.478   3.460   5.561 -2.8927  0.8769  1.2971
   31MOL   H179 8039   3.591   3.768   5.313  0.0774 -3.9361  0.9827
   31MOL   H180 8040   3.591   3.864   5.453  0.0508  0.1899 -0.1534
   31MOL   H181 8041   3.436   3.819   5.396  0.2791  1.9447  2.4854
   31MOL   H182 8042   3.585   3.608   5.699 -1.7886  2.1176  0.8596
   31MOL   H183 8043   3.609   3.784   5.669 -1.5634  0.5016 -0.8034
   31MOL   C184 8044   3.766   3.653   5.595 -0.1492 -0.0467  0.0912
   31MOL   C185 8045   3.802   3.504   5.578 -0.3300 -0.1647  0.4954
   31MOL   C186 8046   3.808   3.439   5.456  0.8358  0.0625 -0.2515
   31MOL   C187 8047   3.804   3.505   5.312 -0.9426 -0.0364 -0.0794
   31MOL   C188 8048   3.855   3.292   5.440  0.0303 -0.3545  0.0648
   31MOL   H189 8049   3.835   3.702   5.665 -1.1141  2.2311 -0.4849
   31MOL   H190 8050   3.795   3.703   5.503  0.5359  0.7906  0.7428
   31MOL   H191 8051   3.814   3.446   5.669 -0.2366 -1.1259 -0.1174
   31MOL   H192 8052   3.784   3.440   5.226  1.0665 -2.2922  1.1006
   31MOL   H193 8053   3.906   3.540   5.296 -1.1565  0.4856 -0.3168
   31MOL   H194 8054   3.729   3.583   5.302 -0.2205  0.6681 -0.0006
   31MOL   H195 8055   3.874   3.248   5.538 -0.6437 -0.8377 -0.0259
   31MOL   H196 8056   3.952   3.281   5.390  0.6102  2.1584  0.5611
   31MOL   C197 8057   3.749   3.200   5.373  1.0158  0.3492  0.4920
   31MOL   C198 8058   3.786   3.058   5.374  0.3008 -0.6491 -0.3858
   31MOL   C199 8059   3.781   2.961   5.279  0.3585  0.2766  0.1701
   31MOL   C200 8060   3.741   3.001   5.137 -0.1590  0.4259 -0.1781
   31MOL   C201 8061   3.817   2.818   5.301 -0.4592 -0.3286 -0.6411
   31MOL   H202 8062   3.748   3.233   5.270  0.1958 -0.6551  0.1760
   31MOL   H203 8063   3.647   3.213   5.409 -0.0262  0.6780 -2.4372
   31MOL   H204 8064   3.822   3.025   5.471 -0.6350 -1.0347 -0.1618
   31MOL   H205 8065   3.638   3.037   5.133  0.6484  2.6879 -2.2054
   31MOL   H206 8066   3.746   2.924   5.061 -0.1924 -0.5190  0.7610
   31MOL   H207 8067   3.809   3.082   5.110  1.1394 -0.5698  0.0396
   31MOL   H208 8068   3.843   2.816   5.407 -1.5117  1.3270 -0.3256
   31MOL   H209 8069   3.907   2.800   5.242 -0.3474  2.6471 -1.4488
   31MOL   C210 8070   3.711   2.713   5.287  0.5897  0.0224  0.7529
   31MOL   C211 8071   3.773   2.575   5.298 -0.2916  0.0625  0.1548
   31MOL   C212 8072   3.810   2.494   5.198 -0.2361  0.1247 -0.8410
   31MOL   C213 8073   3.786   2.509   5.052  0.2537  0.1930 -0.3043
   31MOL   C214 8074   3.880   2.365   5.231  0.4491  0.3835  0.8714
   31MOL   H215 8075   3.668   2.724   5.187 -0.6597  0.8457  1.3513
   31MOL   H216 8076   3.636   2.749   5.358  0.2698  1.6316 -0.3668
   31MOL   H217 8077   3.795   2.537   5.397 -1.1661 -2.7051 -0.6883
   31MOL   H218 8078   3.865   2.463   4.993  0.4717 -1.2424  1.0927
   31MOL   H219 8079   3.774   2.614   5.023  3.3213  1.3062  2.1439
   31MOL   H220 8080   3.690   2.461   5.031  1.0056 -1.4229 -0.0793
   31MOL   H221 8081   3.921   2.358   5.332  0.8002 -0.2292  0.6861
   31MOL   H222 8082   3.972   2.361   5.173  0.1693 -2.0685  0.5700
   31MOL   C223 8083   3.784   2.251   5.212 -0.2104 -0.4660 -0.3589
   31MOL   C224 8084   3.853   2.126   5.247 -0.1688 -0.2078 -0.2580
   31MOL   C225 8085   3.800   2.017   5.310 -0.6536 -1.0853  0.0475
   31MOL   C226 8086   3.655   2.014   5.354  0.4103 -0.1271 -0.1380
   31MOL   C227 8087   3.885   1.897   5.331 -0.2737  0.3534  0.0583
   31MOL   H228 8088   3.760   2.244   5.106  0.8724 -0.4450 -0.6133
   31MOL   H229 8089   3.687   2.264   5.261 -0.8162  2.1962 -2.1612
   31MOL   H230 8090   3.953   2.114   5.210 -0.3233  0.5757 -0.9484
   31MOL   H231 8091   3.606   2.038   5.260 -1.4434 -0.9277  0.5903
   31MOL   H232 8092   3.628   2.097   5.419 -2.1707 -0.1449 -1.1535
   31MOL   H233 8093   3.615   1.923   5.401 -2.5999  1.5075  0.5824
   31MOL   H234 8094   3.973   1.892   5.268 -0.8799 -2.9592 -0.6034
   31MOL   H235 8095   3.824   1.814   5.297  0.2230  0.4068 -0.9667
   31MOL   C236 8096   3.917   1.872   5.484 -0.1436  0.5196 -0.3657
   31MOL   C237 8097   3.911   1.725   5.529  0.6494  0.0462 -0.0050
   31MOL   C238 8098   3.834   1.666   5.618 -0.2514 -0.5548 -0.2251
   31MOL   C239 8099   3.735   1.747   5.700  0.0086 -0.7094  0.2516
   31MOL   C240 8100   3.829   1.515   5.639  0.3358 -0.2526  0.1234
   31MOL   H241 8101   3.859   1.928   5.557  0.4295 -0.1133  0.5837
   31MOL   H242 8102   4.024   1.893   5.490 -0.2361  1.7665 -2.3356
   31MOL   H243 8103   3.980   1.663   5.474 -0.4204  0.4782 -1.8814
   31MOL   H244 8104   3.729   1.745   5.808 -0.9747 -1.9101  0.1824
   31MOL   H245 8105   3.633   1.716   5.678  0.1669  0.9740 -3.2478
   31MOL   H246 8106   3.741   1.855   5.685  1.7701 -0.9613 -1.0912
   31MOL   H247 8107   3.785   1.461   5.555  0.2573  1.0764 -0.6997
   31MOL   H248 8108   3.754   1.476   5.709 -0.4991 -3.7677 -2.5853
   31MOL   C249 8109   3.966   1.465   5.685  0.5216  0.9690  0.2229
   31MOL   C250 8110   3.982   1.311   5.685 -0.3501  0.1408 -0.5156
   31MOL   C251 8111   4.026   1.240   5.789 -0.3093 -0.0341 -0.3521
   31MOL   C252 8112   4.087   1.302   5.919  0.4394  1.0713  0.4658
   31MOL   C253 8113   4.026   1.084   5.787  0.6416 -0.0759 -0.0409
   31MOL   H254 8114   3.979   1.509   5.784  1.1877  0.7574  0.2320
   31MOL   H255 8115   4.046   1.497   5.619  0.7214 -1.2397 -0.6233
   31MOL   H256 8116   3.950   1.263   5.594  2.5565  2.6253 -2.9832
   31MOL   H257 8117   4.024   1.280   6.005 -0.5791  0.3160 -0.4609
   31MOL   H258 8118   4.105   1.409   5.909  2.2344  0.8043  0.7299
   31MOL   H259 8119   4.184   1.257   5.939  0.5798  0.8147 -0.7888
   31MOL   H260 8120   3.960   1.057   5.870 -1.2467  0.2377 -1.4123
   31MOL   H261 8121   4.127   1.046   5.804  1.1068  0.6753 -1.0723
   31MOL   H262 8122   3.985   1.049   5.693 -1.0149  0.6897  0.3708
   32MOL     C1 8123   3.902   5.689   5.630  0.0822  0.1121 -0.6868
   32MOL     C2 8124   3.885   5.550   5.691  0.5039  0.2169 -1.1103
   32MOL     C3 8125   3.961   5.442   5.673 -0.5952  0.0401  0.2770
   32MOL     C4 8126   4.081   5.435   5.569 -0.0127  0.1535  0.5742
   32MOL     C5 8127   3.946   5.320   5.764  0.1150  0.4264 -0.3186
   32MOL     H6 8128   3.827   5.716   5.557 -1.8318 -0.6231  0.9692
   32MOL     H7 8129   3.914   5.769   5.704 -1.0068 -0.4975  0.1569
   32MOL     H8 8130   3.808   5.548   5.767  0.1930  1.8322 -1.3617
   32MOL     H9 8131   4.182   5.423   5.610  0.6598  1.0699 -0.7886
   32MOL    H10 8132   4.086   5.526   5.510  2.6378 -0.1451  0.2388
   32MOL    H11 8133   4.073   5.347   5.506 -1.7895 -0.0043  1.0171
   32MOL    H12 8134   3.946   5.235   5.696 -1.0868  1.3565 -1.5188
   32MOL    H13 8135   3.847   5.314   5.810  0.1963  1.0719 -0.0480
   32MOL    H14 8136   3.997   5.702   5.577  0.8552  1.1260  0.8921
   32MOL    C15 8137   4.067   5.304   5.853  0.9520  0.2225 -0.6188
   32MOL    C16 8138   4.036   5.197   5.958 -0.3699 -0.0538 -0.3315
   32MOL    C17 8139   4.078   5.070   5.951 -0.2099  0.9713 -0.0672
   32MOL    C18 8140   4.175   5.025   5.840  0.4408  0.3330  0.2185
   32MOL    C19 8141   4.054   4.966   6.051 -0.2217  0.5222  0.8278
   32MOL    H20 8142   4.071   5.400   5.904  0.7095 -1.0383  1.8698
   32MOL    H21 8143   4.160   5.291   5.797  0.9257  1.9444 -1.0746
   32MOL    H22 8144   3.978   5.236   6.039  1.5683  0.5574  0.7985
   32MOL    H23 8145   4.141   5.073   5.748 -1.1758  0.7663  1.0360
   32MOL    H24 8146   4.179   4.918   5.820 -0.8835  0.4035 -0.4777
   32MOL    H25 8147   4.282   5.045   5.852  0.1499  1.5955  0.7649
   32MOL    H26 8148   4.001   4.889   5.995  1.9601 -1.3815  1.3065
   32MOL    H27 8149   3.994   5.003   6.134  2.4409 -1.0496  3.5390
   32MOL    C28 8150   4.186   4.909   6.120  0.0416 -0.0122 -0.1768
   32MOL    C29 8151   4.278   5.026   6.159 -0.4223  0.0399 -0.9417
   32MOL    C30 8152   4.410   5.034   6.145 -0.4511  0.1507 -0.5229
   32MOL    C31 8153   4.500   4.922   6.098  0.5320 -0.3345 -0.1725
   32MOL    C32 8154   4.482   5.157   6.192  0.3730 -0.5994 -0.6265
   32MOL    H33 8155   4.236   4.838   6.054  3.4227  0.7765  1.4176
   32MOL    H34 8156   4.158   4.847   6.205 -2.3584  1.3404  0.0617
   32MOL    H35 8157   4.235   5.110   6.213  0.0679 -0.5029  0.2943
   32MOL    H36 8158   4.536   4.926   5.995  0.2198 -1.2416 -0.3208
   32MOL    H37 8159   4.442   4.830   6.088 -0.3690  0.1209  0.8466
   32MOL    H38 8160   4.580   4.903   6.169  1.1073 -0.1598 -0.7665
   32MOL    H39 8161   4.562   5.132   6.262  1.1338  3.4312  0.0285
   32MOL    H40 8162   4.417   5.222   6.251  1.3166  0.5987 -0.9087
   32MOL    C41 8163   4.525   5.252   6.075  0.4819  0.3184  0.0324
   32MOL    C42 8164   4.641   5.199   5.994 -0.8202  0.2097  0.4184
   32MOL    C43 8165   4.676   5.239   5.867  0.3991 -0.3300  0.0757
   32MOL    C44 8166   4.599   5.346   5.794  0.1116  0.0298 -0.3399
   32MOL    C45 8167   4.803   5.190   5.797 -0.7178  0.2801 -1.2568
   32MOL    H46 8168   4.563   5.340   6.126 -0.7784 -0.2907  2.1217
   32MOL    H47 8169   4.443   5.280   6.010 -1.4007 -0.5819  1.9324
   32MOL    H48 8170   4.709   5.135   6.049  0.6563  2.5544  1.4029
   32MOL    H49 8171   4.563   5.303   5.701 -1.0821  1.0012 -0.3471
   32MOL    H50 8172   4.666   5.428   5.770  1.4106 -0.7888  0.4218
   32MOL    H51 8173   4.514   5.384   5.852  0.9787 -1.2621  1.8616
   32MOL    H52 8174   4.854   5.136   5.877 -1.0905  2.4968  0.5566
   32MOL    H53 8175   4.863   5.276   5.767 -1.2175  0.6072 -1.3244
   32MOL    C54 8176   4.775   5.089   5.678 -0.2732  0.5969  0.5397
   32MOL    C55 8177   4.655   4.990   5.697 -0.2912  0.1217 -0.0032
   32MOL    C56 8178   4.557   4.959   5.610  0.8270  0.4533 -0.2875
   32MOL    C57 8179   4.529   5.020   5.476  0.0846  0.2522 -0.1379
   32MOL    C58 8180   4.438   4.862   5.643  0.6197  0.1225  0.1089
   32MOL    H59 8181   4.868   5.034   5.661 -0.1095  0.5835  1.4275
   32MOL    H60 8182   4.764   5.151   5.589 -1.0509  1.3622  1.1633
   32MOL    H61 8183   4.657   4.937   5.791  2.0175 -2.1719 -1.2766
   32MOL    H62 8184   4.432   5.068   5.464 -0.2876 -0.1984  0.9505
   32MOL    H63 8185   4.540   4.944   5.399 -1.9635 -0.5184  0.3143
   32MOL    H64 8186   4.602   5.092   5.438  3.3489 -1.2623  2.9010
   32MOL    H65 8187   4.337   4.902   5.635 -0.0225 -1.0698  1.8469
   32MOL    H66 8188   4.461   4.840   5.748 -1.4910 -0.2331  0.5148
   32MOL    C67 8189   4.448   4.731   5.569 -0.4482 -0.7954 -0.0049
   32MOL    C68 8190   4.357   4.626   5.624  1.0137 -0.0120 -0.5443
   32MOL    C69 8191   4.323   4.514   5.562 -0.0793  0.3723  0.2891
   32MOL    C70 8192   4.379   4.482   5.422  0.1046 -0.1281  0.2320
   32MOL    C71 8193   4.222   4.410   5.618 -0.4557 -0.6107  0.0438
   32MOL    H72 8194   4.554   4.705   5.567  0.0673  1.2808 -1.0864
   32MOL    H73 8195   4.401   4.743   5.471 -0.8725 -1.0110  0.1690
   32MOL    H74 8196   4.321   4.652   5.723  0.6960  1.1496 -0.9582
   32MOL    H75 8197   4.421   4.563   5.361  0.8344 -1.2633 -0.7970
   32MOL    H76 8198   4.298   4.437   5.365  0.8384  1.8489 -2.4823
   32MOL    H77 8199   4.464   4.414   5.425 -0.4179 -0.8545 -1.2316
   32MOL    H78 8200   4.149   4.386   5.540  0.9855 -0.3459 -1.4057
   32MOL    H79 8201   4.161   4.447   5.701 -0.5075  0.6817 -0.5671
   32MOL    C80 8202   4.299   4.278   5.656 -0.2489  0.4137 -0.9785
   32MOL    C81 8203   4.388   4.280   5.780 -0.2468 -0.4845 -0.6539
   32MOL    C82 8204   4.396   4.182   5.867 -0.5961  0.5875 -0.1709
   32MOL    C83 8205   4.313   4.054   5.866 -0.0744 -0.2632  0.5487
   32MOL    C84 8206   4.481   4.208   5.997 -0.2651  0.4259 -0.4266
   32MOL    H85 8207   4.358   4.234   5.576 -2.5919 -1.4604 -1.7318
   32MOL    H86 8208   4.209   4.218   5.672 -0.2626  0.1871 -1.8755
   32MOL    H87 8209   4.446   4.368   5.805  1.7141 -1.5223 -1.4633
   32MOL    H88 8210   4.265   4.049   5.964  1.8235  0.4348  1.5528
   32MOL    H89 8211   4.391   3.979   5.856  0.2398  0.0716  0.4527
   32MOL    H90 8212   4.247   4.026   5.784  2.1529 -0.2975 -1.2864
   32MOL    H91 8213   4.408   4.203   6.077  1.5693  1.2610  1.3585
   32MOL    H92 8214   4.521   4.309   5.994  1.9526 -0.3617  1.0710
   32MOL    C93 8215   4.593   4.107   6.014  0.1293  0.1408  0.5750
   32MOL    C94 8216   4.703   4.170   6.093 -0.0318  0.4600 -0.3077
   32MOL    C95 8217   4.724   4.145   6.223  0.8461  0.0533  0.2129
   32MOL    C96 8218   4.626   4.072   6.313  0.7279  0.3532  0.2677
   32MOL    C97 8219   4.845   4.209   6.294  0.4743 -0.0467 -0.2591
   32MOL    H98 8220   4.634   4.076   5.918 -0.4692 -1.7062  0.8994
   32MOL    H99 8221   4.562   4.016   6.064 -1.8469  2.6730  4.1589
   32MOL   H100 8222   4.775   4.232   6.042 -0.2305  0.3686 -0.6983
   32MOL   H101 8223   4.605   4.132   6.401  2.9714 -1.4330  2.0716
   32MOL   H102 8224   4.661   3.983   6.366 -0.6996 -0.8961 -0.8540
   32MOL   H103 8225   4.530   4.048   6.267  0.4602  0.6921  0.6503
   32MOL   H104 8226   4.929   4.161   6.244 -0.5472  0.6876 -2.7247
   32MOL   H105 8227   4.849   4.176   6.398 -0.8462  2.8585  0.7891
   32MOL   C106 8228   4.851   4.365   6.277 -0.2983  0.0873  0.3678
   32MOL   C107 8229   4.982   4.415   6.329  0.0029 -0.1396 -0.8486
   32MOL   C108 8230   5.004   4.502   6.433 -0.5957 -0.7317 -0.2766
   32MOL   C109 8231   4.896   4.575   6.505 -0.1246  0.7023 -0.1450
   32MOL   C110 8232   5.149   4.518   6.483  0.0351  0.4302  0.5450
   32MOL   H111 8233   4.760   4.410   6.314  0.6561  0.4580  2.3127
   32MOL   H112 8234   4.855   4.393   6.172  0.8346 -4.5224 -0.9564
   32MOL   H113 8235   5.065   4.367   6.280  1.4090  0.1440  1.2175
   32MOL   H114 8236   4.796   4.540   6.480 -0.5780  2.8094 -1.3793
   32MOL   H115 8237   4.893   4.682   6.484 -0.6924  0.4358 -1.4421
   32MOL   H116 8238   4.907   4.563   6.613 -1.1934  0.0565 -0.0933
   32MOL   H117 8239   5.201   4.427   6.451 -2.4314 -1.5189  1.8518
   32MOL   H118 8240   5.143   4.509   6.591  0.6826 -0.3836  0.5195
   32MOL   C119 8241   5.212   4.651   6.436 -0.9256  0.5455 -0.0867
   32MOL   C120 8242   5.364   4.666   6.464 -0.0782 -0.0196 -0.1642
   32MOL   C121 8243   5.466   4.703   6.388 -0.1664 -0.3145  1.0134
   32MOL   C122 8244   5.448   4.752   6.244  0.1998  0.1445  0.4970
   32MOL   C123 8245   5.608   4.700   6.437 -0.5759  0.4772 -0.1786
   32MOL   H124 8246   5.166   4.739   6.481 -2.1456  0.6581 -1.5326
   32MOL   H125 8247   5.202   4.673   6.330 -1.1598 -1.2752 -0.4609
   32MOL   H126 8248   5.384   4.626   6.562 -0.1165  1.1363  0.3283
   32MOL   H127 8249   5.351   4.795   6.219  0.7848 -0.0514 -2.3093
   32MOL   H128 8250   5.453   4.671   6.172 -0.9429  0.6481 -0.1580
   32MOL   H129 8251   5.523   4.827   6.218  0.3409 -0.0003  0.4831
   32MOL   H130 8252   5.675   4.655   6.364 -0.5792 -0.7336  0.5461
   32MOL   H131 8253   5.614   4.646   6.532  0.0042 -0.3477 -0.6821
   32MOL   C132 8254   5.660   4.847   6.469  0.5379  0.5483  0.5784
   32MOL   C133 8255   5.807   4.862   6.475 -0.1608 -0.2528  0.3961
   32MOL   C134 8256   5.879   4.977   6.454 -0.3637 -0.2798  0.3237
   32MOL   C135 8257   5.815   5.116   6.433 -0.1319 -0.1822  0.1799
   32MOL   C136 8258   6.031   4.971   6.459  0.2154  0.1409  0.8136
   32MOL   H137 8259   5.615   4.884   6.562 -0.0928 -0.8761  0.8616
   32MOL   H138 8260   5.624   4.914   6.391 -0.6110 -2.0217 -1.1421
   32MOL   H139 8261   5.864   4.772   6.495  0.1760  0.1080  1.0504
   32MOL   H140 8262   5.732   5.122   6.503  0.2616  0.6180  0.5862
   32MOL   H141 8263   5.785   5.132   6.329 -0.3440 -0.8209  0.1415
   32MOL   H142 8264   5.888   5.192   6.461 -1.7338  1.2535  0.5814
   32MOL   H143 8265   6.058   5.028   6.370 -0.1141 -1.9214 -0.6439
   32MOL   H144 8266   6.079   4.874   6.445 -0.7787 -0.9804  4.5121
   32MOL   C145 8267   6.072   5.036   6.592  0.4060 -0.3254  0.2337
   32MOL   C146 8268   6.046   4.948   6.711  0.5529 -0.3569  0.3892
   32MOL   C147 8269   5.945   4.947   6.807  0.0993 -0.1118 -0.4948
   32MOL   C148 8270   5.829   5.042   6.795 -0.4644  0.1624 -0.5402
   32MOL   C149 8271   5.928   4.835   6.918  0.7399 -0.5091 -0.7313
   32MOL   H150 8272   6.030   5.136   6.604  0.9379  0.2707 -2.4783
   32MOL   H151 8273   6.180   5.049   6.591  0.0086  3.8641 -0.7827
   32MOL   H152 8274   6.120   4.869   6.702 -2.5614 -3.3546 -0.0193
   32MOL   H153 8275   5.744   5.003   6.740 -0.2440  1.3992 -1.7653
   32MOL   H154 8276   5.863   5.134   6.748 -1.2972  0.9248  0.3135
   32MOL   H155 8277   5.794   5.073   6.894  1.7367 -0.5036  0.5010
   32MOL   H156 8278   5.836   4.777   6.907 -0.9663  1.7846  0.7709
   32MOL   H157 8279   5.939   4.879   7.017  1.6847 -0.6730 -0.7590
   32MOL   C158 8280   6.019   4.718   6.906  0.2294 -0.5394 -0.0153
   32MOL   C159 8281   6.168   4.747   6.941 -0.5852  0.3520 -0.3191
   32MOL   C160 8282   6.277   4.697   6.876  0.3800 -0.5978 -0.0518
   32MOL   C161 8283   6.271   4.602   6.757  0.7979  0.6104 -0.2953
   32MOL   C162 8284   6.420   4.729   6.920  0.6181 -0.4353  0.4051
   32MOL   H163 8285   6.016   4.680   6.804 -1.6711 -0.8762  0.1566
   32MOL   H164 8286   5.984   4.639   6.973 -2.3828  0.2085 -0.4423
   32MOL   H165 8287   6.181   4.823   7.016  1.1910 -0.0075 -0.2371
   32MOL   H166 8288   6.174   4.552   6.753 -0.2983  2.5507  1.1734
   32MOL   H167 8289   6.341   4.520   6.771  1.5537  1.2051 -0.5742
   32MOL   H168 8290   6.289   4.648   6.660  3.0588 -1.6401 -1.0051
   32MOL   H169 8291   6.449   4.634   6.964  0.2028 -1.9190 -2.3932
   32MOL   H170 8292   6.413   4.806   6.997  2.2024  0.3145 -0.1570
   32MOL   C171 8293   6.508   4.781   6.804 -0.3558  0.0376  0.0041
   32MOL   C172 8294   6.495   4.927   6.775  0.4629 -0.4153  0.2866
   32MOL   C173 8295   6.486   4.980   6.651 -0.0438 -0.0444 -0.5747
   32MOL   C174 8296   6.502   4.898   6.524  0.7240  0.7400 -0.0081
   32MOL   C175 8297   6.467   5.126   6.626 -0.6048 -0.1619 -0.5775
   32MOL   H176 8298   6.506   4.724   6.712  0.2016  0.2179 -0.1226
   32MOL   H177 8299   6.612   4.773   6.836 -0.3386 -1.9191 -0.5052
   32MOL   H178 8300   6.502   4.985   6.865  1.6185 -0.8913  0.5194
   32MOL   H179 8301   6.471   4.955   6.437 -0.2913 -1.1111 -0.8941
   32MOL   H180 8302   6.442   4.806   6.531 -2.3412  2.4299 -2.7406
   32MOL   H181 8303   6.606   4.868   6.513  0.5756 -1.3771  3.5598
   32MOL   H182 8304   6.383   5.147   6.560 -0.6025  1.1228 -0.1782
   32MOL   H183 8305   6.551   5.162   6.565  1.4390  0.9532  2.7362
   32MOL   C184 8306   6.461   5.216   6.749  1.0698 -0.0124  0.1321
   32MOL   C185 8307   6.453   5.361   6.712 -0.0363  0.5292  0.0155
   32MOL   C186 8308   6.563   5.438   6.677 -0.3313 -0.1216 -0.0143
   32MOL   C187 8309   6.706   5.375   6.675 -0.6210 -0.6582  0.0755
   32MOL   C188 8310   6.558   5.579   6.629  0.3292 -0.2104 -0.0196
   32MOL   H189 8311   6.534   5.191   6.826  0.8877  1.6438  0.8656
   32MOL   H190 8312   6.369   5.199   6.806  0.3588  1.0947 -0.6812
   32MOL   H191 8313   6.356   5.409   6.704  0.6774  1.9549 -0.2252
   32MOL   H192 8314   6.711   5.266   6.678 -0.5908 -0.6472  0.4294
   32MOL   H193 8315   6.773   5.418   6.749 -1.1678 -0.6812  0.5913
   32MOL   H194 8316   6.756   5.394   6.580  2.1670 -0.8912  1.4649
   32MOL   H195 8317   6.457   5.595   6.590  0.5847 -2.3449 -1.6748
   32MOL   H196 8318   6.624   5.594   6.544 -2.0717  1.3526 -1.6892
   32MOL   C197 8319   6.593   5.679   6.738 -0.2517 -0.1450  0.1591
   32MOL   C198 8320   6.599   5.821   6.682 -0.3401  0.2363 -0.2175
   32MOL   C199 8321   6.549   5.940   6.735  0.1298  0.1488  0.3011
   32MOL   C200 8322   6.477   5.952   6.867 -0.4879  0.8009  0.7996
   32MOL   C201 8323   6.545   6.076   6.662 -0.7664 -0.1780  0.0404
   32MOL   H202 8324   6.697   5.656   6.761  0.0635  2.2737  1.1875
   32MOL   H203 8325   6.531   5.676   6.827 -1.0595  0.2303 -0.3750
   32MOL   H204 8326   6.635   5.828   6.581 -1.4308  0.1337 -0.6216
   32MOL   H205 8327   6.486   5.858   6.922  1.5765  0.5856  0.1159
   32MOL   H206 8328   6.371   5.976   6.856 -0.1171  1.9314 -0.4562
   32MOL   H207 8329   6.506   6.032   6.935 -0.9567  0.6000  1.2451
   32MOL   H208 8330   6.616   6.060   6.580 -1.8442 -0.9413 -0.7561
   32MOL   H209 8331   6.577   6.151   6.734  1.4595 -0.3304 -0.7339
   32MOL   C210 8332   6.407   6.102   6.604  0.1210  0.1044 -0.2017
   32MOL   C211 8333   6.399   6.203   6.482  0.5675 -0.1331  0.0168
   32MOL   C212 8334   6.309   6.303   6.454 -0.5181 -0.3167 -0.3859
   32MOL   C213 8335   6.183   6.338   6.540  0.0322 -0.2621  0.1513
   32MOL   C214 8336   6.319   6.384   6.322 -0.8572 -0.1059 -0.2494
   32MOL   H215 8337   6.329   6.121   6.677  0.0650  3.0558 -0.9343
   32MOL   H216 8338   6.371   6.007   6.566 -2.2182 -0.5852  3.5163
   32MOL   H217 8339   6.470   6.172   6.407 -0.4703 -0.2425 -0.9248
   32MOL   H218 8340   6.105   6.345   6.465 -0.7357  0.6714  1.0332
   32MOL   H219 8341   6.198   6.431   6.594  2.3479 -0.1719 -0.5606
   32MOL   H220 8342   6.155   6.265   6.616  1.5260 -0.5645  0.4260
   32MOL   H221 8343   6.418   6.362   6.281 -1.3583 -0.5176 -1.2633
   32MOL   H222 8344   6.316   6.493   6.324 -0.7805 -0.1123  0.4899
   32MOL   C223 8345   6.231   6.328   6.217  0.3547 -0.7596  0.5634
   32MOL   C224 8346   6.264   6.376   6.075  0.2669 -0.0707  0.7778
   32MOL   C225 8347   6.267   6.306   5.959 -0.0202  0.1299 -0.4288
   32MOL   C226 8348   6.272   6.153   5.966 -0.5401  0.3690 -0.6860
   32MOL   C227 8349   6.290   6.366   5.826 -0.1606  0.1180 -0.4441
   32MOL   H228 8350   6.128   6.360   6.233 -0.3581  0.1335 -4.7035
   32MOL   H229 8351   6.226   6.219   6.227 -3.6716 -0.9457 -2.1859
   32MOL   H230 8352   6.268   6.483   6.072  0.5164 -0.1265 -1.8112
   32MOL   H231 8353   6.261   6.104   5.869  0.1825  0.0133 -0.5926
   32MOL   H232 8354   6.201   6.114   6.038 -0.3283 -0.9447 -1.1770
   32MOL   H233 8355   6.369   6.127   6.009 -0.7038  0.4272 -0.2812
   32MOL   H234 8356   6.378   6.322   5.779 -0.4836 -0.1102 -0.8379
   32MOL   H235 8357   6.313   6.472   5.831  0.3063 -0.0068  0.1802
   32MOL   C236 8358   6.162   6.355   5.736 -0.3506 -0.3917  0.0446
   32MOL   C237 8359   6.184   6.417   5.595 -0.5489 -0.0716 -0.0822
   32MOL   C238 8360   6.111   6.384   5.489 -0.9678 -1.0604  0.3493
   32MOL   C239 8361   5.987   6.298   5.496 -0.3563 -0.2287  0.0116
   32MOL   C240 8362   6.139   6.450   5.349  0.0199  0.5615 -0.7245
   32MOL   H241 8363   6.081   6.409   5.784 -0.5717 -0.5762 -0.1194
   32MOL   H242 8364   6.137   6.249   5.737  1.8447 -0.9504 -0.3538
   32MOL   H243 8365   6.275   6.472   5.574  0.1879 -1.6494 -1.1926
   32MOL   H244 8366   5.904   6.366   5.477 -0.6886 -0.1557  1.7117
   32MOL   H245 8367   5.968   6.260   5.596 -0.6370  0.4037  0.2029
   32MOL   H246 8368   5.984   6.220   5.419 -2.5684 -1.3197  1.1447
   32MOL   H247 8369   6.214   6.387   5.302  0.5436 -0.0247  0.8787
   32MOL   H248 8370   6.177   6.549   5.375 -0.4341  0.8095 -0.9929
   32MOL   C249 8371   6.020   6.474   5.254 -0.5211 -0.9639  0.1488
   32MOL   C250 8372   6.052   6.552   5.127  0.3563  0.7267  0.1410
   32MOL   C251 8373   6.024   6.685   5.098  0.0445 -0.6215 -0.0346
   32MOL   C252 8374   5.972   6.785   5.202  0.4870  0.3055  0.1179
   32MOL   C253 8375   6.051   6.744   4.960 -0.3036  0.1013 -0.0178
   32MOL   H254 8376   5.938   6.522   5.307 -2.6076 -0.2640 -3.5234
   32MOL   H255 8377   5.978   6.376   5.228  2.7584 -1.9059 -1.8871
   32MOL   H256 8378   6.085   6.489   5.045 -0.2698  0.8921 -0.2404
   32MOL   H257 8379   5.886   6.840   5.163  1.3284  1.9790  0.6125
   32MOL   H258 8380   6.047   6.862   5.220  1.1783 -0.2127 -0.5053
   32MOL   H259 8381   5.934   6.750   5.299 -0.7352  0.2369 -0.3711
   32MOL   H260 8382   6.111   6.832   4.982  1.3170 -0.6352 -1.4175
   32MOL   H261 8383   5.964   6.781   4.906  0.1227  0.2266 -0.6221
   32MOL   H262 8384   6.120   6.693   4.894 -3.2890 -1.2048 -2.2315
   33MOL     C1 8385   0.285   1.590   6.972  0.2507 -0.3171  0.3655
   33MOL     C2 8386   0.285   1.703   6.868  0.5364  0.0210  0.5676
   33MOL     C3 8387   0.175   1.744   6.805 -0.4969  0.9750 -0.4844
   33MOL     C4 8388   0.035   1.685   6.811  0.1893 -0.3148 -0.1843
   33MOL     C5 8389   0.182   1.867   6.716 -0.3613 -0.8584  0.2883
   33MOL     H6 8390   0.333   1.499   6.935  0.4627  0.0486 -0.2719
   33MOL     H7 8391   0.347   1.612   7.058 -0.4747 -0.2536  0.8718
   33MOL     H8 8392   0.379   1.753   6.850  1.0031 -0.6478  1.1129
   33MOL     H9 8393   0.032   1.576   6.808  0.6360 -0.2846 -3.2214
   33MOL    H10 8394   7.863   1.715   6.721  0.5795 -0.3296 -0.4289
   33MOL    H11 8395   7.868   1.719   6.902 -0.9587 -1.2052 -0.4600
   33MOL    H12 8396   0.272   1.927   6.730 -1.1732  0.3209  0.5620
   33MOL    H13 8397   0.106   1.945   6.729  1.3392  1.0949 -1.1277
   33MOL    H14 8398   0.185   1.569   7.007 -0.0762 -0.6052 -0.7078
   33MOL    C15 8399   0.187   1.828   6.569  0.1499  0.1192 -0.2161
   33MOL    C16 8400   0.211   1.942   6.471  0.5814  0.1145  0.8485
   33MOL    C17 8401   0.335   1.963   6.420 -0.0725  0.3952 -0.2681
   33MOL    C18 8402   0.455   1.894   6.476 -0.0623  0.2492 -0.7700
   33MOL    C19 8403   0.362   2.072   6.316 -0.2120 -0.3844  0.2707
   33MOL    H20 8404   0.089   1.798   6.533  0.0736 -1.0588  0.9429
   33MOL    H21 8405   0.253   1.740   6.565  0.9529  0.7106 -0.1139
   33MOL    H22 8406   0.125   2.002   6.445 -1.9858 -3.5817  0.4136
   33MOL    H23 8407   0.472   1.939   6.574  0.1315 -1.6917  0.1053
   33MOL    H24 8408   0.546   1.931   6.429 -0.5979  1.0860 -1.1793
   33MOL    H25 8409   0.440   1.787   6.485 -1.7252  0.4729 -0.6434
   33MOL    H26 8410   0.418   2.033   6.231  1.3585  0.3531  0.9531
   33MOL    H27 8411   0.429   2.147   6.358 -1.1316  0.6411 -0.0515
   33MOL    C28 8412   0.233   2.143   6.270  0.4060 -1.1930 -0.4491
   33MOL    C29 8413   0.245   2.250   6.163  0.9028  0.2853  0.4413
   33MOL    C30 8414   0.180   2.371   6.168  0.3290 -0.1105  0.0780
   33MOL    C31 8415   0.086   2.430   6.274  0.0054  0.3135 -0.8483
   33MOL    C32 8416   0.195   2.467   6.048 -0.1471  0.1046  0.1080
   33MOL    H33 8417   0.181   2.187   6.355  1.7374  0.9963 -0.7287
   33MOL    H34 8418   0.159   2.068   6.242 -0.2240 -0.9732  0.6146
   33MOL    H35 8419   0.303   2.218   6.078  2.1662  1.3930  0.8662
   33MOL    H36 8420   7.875   2.447   6.222 -0.2331 -2.5401 -1.4383
   33MOL    H37 8421   0.125   2.524   6.311 -0.9809 -0.1826  1.5228
   33MOL    H38 8422   0.062   2.377   6.366  2.7150 -0.6214 -0.6216
   33MOL    H39 8423   0.175   2.567   6.087  2.5548  1.2504 -1.2500
   33MOL    H40 8424   0.109   2.448   5.984 -0.2444  0.6025  0.0914
   33MOL    C41 8425   0.327   2.458   5.966  0.3652 -0.3175 -0.2280
   33MOL    C42 8426   0.347   2.565   5.863 -0.8096 -0.0979  0.5272
   33MOL    C43 8427   0.441   2.662   5.865 -0.6473 -0.5586  0.2468
   33MOL    C44 8428   0.550   2.679   5.974  0.3674 -0.3132  0.4888
   33MOL    C45 8429   0.465   2.752   5.740  0.0959 -0.2451 -0.3743
   33MOL    H46 8430   0.320   2.370   5.901 -0.1755  2.2673 -3.7815
   33MOL    H47 8431   0.407   2.440   6.037 -0.3262 -1.1710  0.3545
   33MOL    H48 8432   0.272   2.565   5.785 -0.9370  0.2336  0.6445
   33MOL    H49 8433   0.641   2.632   5.937  1.6224  4.0921 -2.4748
   33MOL    H50 8434   0.512   2.642   6.069 -1.5431 -2.0641 -0.8889
   33MOL    H51 8435   0.575   2.784   5.989 -0.1433 -0.3034  1.2569
   33MOL    H52 8436   0.432   2.853   5.766 -0.2193 -0.3363 -0.4216
   33MOL    H53 8437   0.401   2.709   5.663  0.2947 -0.2967 -0.5117
   33MOL    C54 8438   0.615   2.746   5.693  0.2273 -0.3311  0.0810
   33MOL    C55 8439   0.632   2.823   5.559 -0.2719  0.5591 -0.2593
   33MOL    C56 8440   0.738   2.906   5.535 -0.2428  0.6993 -0.2433
   33MOL    C57 8441   0.850   2.937   5.636  0.5901  0.2580 -0.1791
   33MOL    C58 8442   0.732   2.990   5.409  0.2675  0.2386  0.8093
   33MOL    H59 8443   0.643   2.642   5.675 -2.8827 -0.9794 -1.2230
   33MOL    H60 8444   0.684   2.782   5.769  1.5753 -0.8586 -0.8620
   33MOL    H61 8445   0.560   2.806   5.481  0.3324  0.3143 -0.7707
   33MOL    H62 8446   0.926   2.983   5.574 -0.2346  0.4983 -1.0298
   33MOL    H63 8447   0.878   2.845   5.687 -3.0114  0.3473  2.2282
   33MOL    H64 8448   0.813   3.006   5.713  0.8977 -1.5917  1.6771
   33MOL    H65 8449   0.749   3.095   5.432 -0.3083  0.4844  0.1544
   33MOL    H66 8450   0.636   2.986   5.357 -0.1463 -0.9707  1.6541
   33MOL    C67 8451   0.830   2.922   5.310 -1.3464 -0.3176 -0.3253
   33MOL    C68 8452   0.827   2.991   5.171  0.1036  0.3694  0.0269
   33MOL    C69 8453   0.931   3.019   5.092  0.0456 -0.1929  0.7540
   33MOL    C70 8454   1.072   2.981   5.118  0.2042  0.0179 -0.4252
   33MOL    C71 8455   0.920   3.093   4.961 -0.3922 -0.2977 -0.2927
   33MOL    H72 8456   0.796   2.820   5.288  0.1646 -0.8645 -0.1838
   33MOL    H73 8457   0.930   2.921   5.353 -1.6159  1.0376  0.3269
   33MOL    H74 8458   0.727   3.009   5.136 -0.4422 -1.5806  0.4978
   33MOL    H75 8459   1.074   2.902   5.193 -2.0165 -1.0107 -1.4230
   33MOL    H76 8460   1.112   3.075   5.155 -0.4292  1.0793 -2.3834
   33MOL    H77 8461   1.121   2.940   5.029  2.5414 -0.8383  1.1991
   33MOL    H78 8462   0.818   3.122   4.936 -0.4804 -0.0904  0.3021
   33MOL    H79 8463   0.947   3.020   4.885  0.6118  0.6246 -0.8361
   33MOL    C80 8464   1.019   3.218   4.938  0.2449  0.2395 -0.9188
   33MOL    C81 8465   0.995   3.276   4.800 -0.5903  0.3171 -0.3061
   33MOL    C82 8466   0.962   3.400   4.767  0.9907  0.0053 -0.4851
   33MOL    C83 8467   0.942   3.503   4.872 -1.0225 -0.2394 -0.2972
   33MOL    C84 8468   0.970   3.449   4.624 -0.1171  0.0704  0.8034
   33MOL    H85 8469   1.125   3.194   4.949  0.2637  0.1014 -1.3925
   33MOL    H86 8470   0.990   3.289   5.016  1.7543  0.7292 -0.7834
   33MOL    H87 8471   1.022   3.212   4.717 -2.0270  0.6693 -1.0512
   33MOL    H88 8472   0.876   3.581   4.835  1.3721  0.7663 -2.6583
   33MOL    H89 8473   1.033   3.545   4.915 -0.8380  0.8445 -1.6746
   33MOL    H90 8474   0.892   3.459   4.958  0.0524 -0.6111  0.1515
   33MOL    H91 8475   1.032   3.382   4.565 -2.0451 -3.7584  2.9186
   33MOL    H92 8476   1.026   3.542   4.633  0.4084 -0.1910  0.2591
   33MOL    C93 8477   0.830   3.469   4.552 -0.6992 -0.0251 -0.1379
   33MOL    C94 8478   0.829   3.479   4.401  0.1352 -0.3127 -0.1737
   33MOL    C95 8479   0.833   3.588   4.320 -0.1489 -0.8021  1.3287
   33MOL    C96 8480   0.843   3.732   4.373  0.9062 -0.0949  0.2570
   33MOL    C97 8481   0.848   3.570   4.171  0.0107 -0.7060  0.5164
   33MOL    H98 8482   0.776   3.550   4.600 -1.3470  1.3744 -3.1184
   33MOL    H99 8483   0.770   3.379   4.569  0.1561 -0.9322 -1.8279
   33MOL   H100 8484   0.829   3.385   4.349  0.2548 -0.1962 -0.3861
   33MOL   H101 8485   0.937   3.782   4.351  0.4899  0.0390 -1.2728
   33MOL   H102 8486   0.830   3.739   4.481  0.7488  2.1863  0.1119
   33MOL   H103 8487   0.761   3.781   4.321 -1.0141 -1.1103  2.2371
   33MOL   H104 8488   0.893   3.475   4.141  0.0448 -0.5558  0.0810
   33MOL   H105 8489   0.919   3.642   4.131 -0.5119 -0.0113  0.8485
   33MOL   C106 8490   0.710   3.585   4.102 -0.5493  0.1093  0.1353
   33MOL   C107 8491   0.729   3.616   3.960  0.1782  0.3093  0.1546
   33MOL   C108 8492   0.661   3.575   3.856 -0.1744 -0.5102 -0.1245
   33MOL   C109 8493   0.539   3.481   3.850  0.1530 -0.2196 -0.1832
   33MOL   C110 8494   0.697   3.641   3.722  0.5516 -0.2322  0.3208
   33MOL   H111 8495   0.657   3.671   4.143 -0.6010  0.1852 -0.0902
   33MOL   H112 8496   0.660   3.491   4.129  2.5536 -1.7619 -0.3973
   33MOL   H113 8497   0.813   3.681   3.941  2.2052 -2.1041  0.6358
   33MOL   H114 8498   0.455   3.526   3.796 -1.0350  1.6612  3.0773
   33MOL   H115 8499   0.501   3.450   3.947  0.0209 -0.1596 -0.2153
   33MOL   H116 8500   0.570   3.384   3.813  0.6789 -0.7148  1.5181
   33MOL   H117 8501   0.760   3.728   3.740 -1.2163  1.0411  0.4957
   33MOL   H118 8502   0.605   3.686   3.684 -0.8224 -2.7794  0.4942
   33MOL   C119 8503   0.739   3.539   3.614 -0.5508  0.0783 -0.0279
   33MOL   C120 8504   0.696   3.584   3.471  0.4105  0.8022  0.5105
   33MOL   C121 8505   0.759   3.572   3.354  0.1879 -0.2004  0.6337
   33MOL   C122 8506   0.887   3.495   3.337 -0.0027  0.3859 -0.0661
   33MOL   C123 8507   0.700   3.622   3.222  0.6628  0.2493 -0.7876
   33MOL   H124 8508   0.692   3.449   3.653  0.4967  0.2303  1.6075
   33MOL   H125 8509   0.847   3.525   3.624 -0.8052 -2.0508 -0.1124
   33MOL   H126 8510   0.598   3.630   3.467 -0.1577 -0.4511 -0.1891
   33MOL   H127 8511   0.866   3.390   3.317 -1.3248  0.6777 -0.2903
   33MOL   H128 8512   0.948   3.487   3.427  0.5321 -1.7382 -0.5834
   33MOL   H129 8513   0.935   3.535   3.248 -1.1390 -0.3789 -1.0412
   33MOL   H130 8514   0.759   3.708   3.188 -0.5376  1.7815  0.8762
   33MOL   H131 8515   0.596   3.654   3.229 -0.1460 -2.5708  0.3693
   33MOL   C132 8516   0.704   3.523   3.109  0.5083  0.1339  0.7169
   33MOL   C133 8517   0.633   3.574   2.980  0.4734  0.5633  0.9210
   33MOL   C134 8518   0.684   3.605   2.861  0.1902 -0.2181  0.0423
   33MOL   C135 8519   0.832   3.588   2.823  0.7289  0.0095 -0.3760
   33MOL   C136 8520   0.597   3.643   2.744 -0.6015 -0.5723 -0.0016
   33MOL   H137 8521   0.655   3.429   3.136 -0.3756 -0.0823 -1.5342
   33MOL   H138 8522   0.804   3.489   3.081  0.0194 -1.0292  0.3297
   33MOL   H139 8523   0.526   3.570   2.991  0.5918  1.2664  2.4166
   33MOL   H140 8524   0.846   3.571   2.716  2.7370 -2.0692  0.1905
   33MOL   H141 8525   0.884   3.510   2.879  1.7990  0.1417 -1.1796
   33MOL   H142 8526   0.881   3.682   2.848 -0.6328 -0.0648  2.8097
   33MOL   H143 8527   0.632   3.732   2.692 -1.4913 -0.9266 -1.2436
   33MOL   H144 8528   0.500   3.673   2.784  0.8340  1.5759  1.9543
   33MOL   C145 8529   0.582   3.531   2.648 -0.2275  0.2252 -0.2313
   33MOL   C146 8530   0.530   3.574   2.514 -0.2856  0.0516 -0.3608
   33MOL   C147 8531   0.418   3.530   2.453  0.1857  1.1801 -0.2123
   33MOL   C148 8532   0.332   3.415   2.516  0.7638 -0.0841 -0.2494
   33MOL   C149 8533   0.388   3.588   2.321  0.1958 -0.3710  0.1294
   33MOL   H150 8534   0.523   3.452   2.695 -0.9059  1.7698  1.6014
   33MOL   H151 8535   0.678   3.487   2.621  0.0259 -2.3034  4.2386
   33MOL   H152 8536   0.577   3.651   2.455  0.6342  0.2260  0.5808
   33MOL   H153 8537   0.237   3.411   2.463  0.9336  0.0646 -0.5685
   33MOL   H154 8538   0.310   3.431   2.622  0.2485 -1.3939 -0.1500
   33MOL   H155 8539   0.381   3.318   2.508  1.2345  0.1292  0.0521
   33MOL   H156 8540   0.435   3.684   2.301  0.1471 -0.3519  0.1067
   33MOL   H157 8541   0.283   3.616   2.316  0.5020  0.8850  0.5466
   33MOL   C158 8542   0.425   3.502   2.211  0.2127  1.1684  0.1455
   33MOL   C159 8543   0.362   3.558   2.082 -0.0738  0.2012  0.4297
   33MOL   C160 8544   0.426   3.632   1.988  0.4625 -0.3650 -0.2549
   33MOL   C161 8545   0.573   3.665   1.980 -0.0105 -0.3330 -0.4509
   33MOL   C162 8546   0.345   3.705   1.870 -0.2337 -0.2325 -0.0742
   33MOL   H163 8547   0.390   3.401   2.232 -0.3558  1.5111  0.8674
   33MOL   H164 8548   0.533   3.490   2.204 -0.1415 -1.7476 -1.2937
   33MOL   H165 8549   0.254   3.555   2.078 -0.0737  0.3648  0.2883
   33MOL   H166 8550   0.622   3.648   2.076  1.8394  0.7213 -1.1810
   33MOL   H167 8551   0.587   3.773   1.977 -0.2677 -0.2011  2.1093
   33MOL   H168 8552   0.628   3.626   1.894  0.4985  3.0744 -1.7277
   33MOL   H169 8553   0.242   3.672   1.865 -0.0978 -0.6336 -0.2264
   33MOL   H170 8554   0.397   3.686   1.777  0.7611  1.9102  0.0040
   33MOL   C171 8555   0.330   3.857   1.902  0.1689 -0.2158  0.3072
   33MOL   C172 8556   0.239   3.929   1.801 -0.5805  0.3415 -0.6655
   33MOL   C173 8557   0.263   4.029   1.710 -0.7435  0.2353 -0.2423
   33MOL   C174 8558   0.395   4.097   1.686  0.8247  0.0706 -0.4484
   33MOL   C175 8559   0.156   4.079   1.614 -0.0480 -0.0319 -0.0440
   33MOL   H176 8560   0.431   3.898   1.896 -0.0235  0.1609 -0.2990
   33MOL   H177 8561   0.299   3.869   2.006 -0.5302 -0.3177  0.1110
   33MOL   H178 8562   0.134   3.904   1.806 -0.5883  0.6503  0.9083
   33MOL   H179 8563   0.394   4.195   1.734 -0.5579 -0.1282 -0.0476
   33MOL   H180 8564   0.432   4.102   1.583  2.1705  0.7100  0.0523
   33MOL   H181 8565   0.475   4.045   1.739  1.5653  0.7809 -0.8438
   33MOL   H182 8566   0.183   4.184   1.623  2.5348 -0.8950  2.6958
   33MOL   H183 8567   0.053   4.067   1.649 -0.0686  1.6817  0.4900
   33MOL   C184 8568   0.176   4.034   1.471  0.2587  0.0044  0.0964
   33MOL   C185 8569   0.082   4.116   1.387  0.6845 -0.0323 -0.0344
   33MOL   C186 8570   0.121   4.201   1.299  1.2694  1.0148  0.4858
   33MOL   C187 8571   0.267   4.232   1.275  0.1396  0.2859  0.1089
   33MOL   C188 8572   0.020   4.276   1.220 -0.4334  0.1803 -0.0821
   33MOL   H189 8573   0.147   3.931   1.446 -0.7107  0.3990 -0.4597
   33MOL   H190 8574   0.281   4.033   1.443  0.1666  0.5129 -0.2689
   33MOL   H191 8575   7.863   4.085   1.406  0.5517  0.2929 -0.2217
   33MOL   H192 8576   0.304   4.146   1.219 -1.5113 -0.0223 -0.5234
   33MOL   H193 8577   0.315   4.243   1.372  1.5620  0.9457 -0.6577
   33MOL   H194 8578   0.273   4.321   1.213  3.9080  0.5904  0.7702
   33MOL   H195 8579   0.057   4.378   1.232 -2.3116  0.7097  1.4084
   33MOL   H196 8580   7.806   4.267   1.269 -0.5441 -0.0253 -0.3406
   33MOL   C197 8581   0.005   4.252   1.071 -0.5822 -0.7526 -0.0746
   33MOL   C198 8582   7.836   4.373   0.999 -0.0102 -0.0174 -0.0882
   33MOL   C199 8583   7.705   4.398   0.966  0.0040 -0.0373  0.5678
   33MOL   C200 8584   7.596   4.301   1.016 -0.0640 -0.3678  0.2723
   33MOL   C201 8585   7.660   4.530   0.903 -0.4725  0.1323  0.9480
   33MOL   H202 8586   7.825   4.167   1.045 -0.3617 -0.5534 -1.2747
   33MOL   H203 8587   0.106   4.239   1.032 -0.0115  0.4310  0.9703
   33MOL   H204 8588   0.023   4.449   0.966 -0.7078  0.2293 -1.0273
   33MOL   H205 8589   7.588   4.314   1.124  0.8845  4.2429 -0.0925
   33MOL   H206 8590   7.623   4.197   0.998 -0.1792 -0.0891 -1.5435
   33MOL   H207 8591   7.498   4.341   0.991  1.9421  2.9391 -2.8459
   33MOL   H208 8592   7.739   4.598   0.872  2.1648 -2.4272  1.8508
   33MOL   H209 8593   7.598   4.583   0.976 -0.6498  1.6023 -0.2397
   33MOL   C210 8594   7.601   4.507   0.765 -0.1518 -0.4254 -0.3328
   33MOL   C211 8595   7.555   4.630   0.700  0.3521 -0.0333  0.3579
   33MOL   C212 8596   7.431   4.685   0.704  0.5173 -0.3206  0.0039
   33MOL   C213 8597   7.316   4.625   0.784 -0.7708  0.0903 -1.3254
   33MOL   C214 8598   7.403   4.821   0.635 -0.4440  0.7813 -1.0218
   33MOL   H215 8599   7.530   4.424   0.767  0.2583 -0.7663  0.7724
   33MOL   H216 8600   7.673   4.471   0.691 -0.3647 -0.1014 -0.6962
   33MOL   H217 8601   7.635   4.683   0.651 -1.2104 -0.1146 -2.3557
   33MOL   H218 8602   7.343   4.534   0.837  0.6468  1.5534  0.5252
   33MOL   H219 8603   7.218   4.609   0.737 -1.1030 -2.6744  0.1868
   33MOL   H220 8604   7.297   4.683   0.874 -1.0306 -2.1925  0.1248
   33MOL   H221 8605   7.397   4.899   0.711  3.6315  0.0072  0.2179
   33MOL   H222 8606   7.304   4.817   0.590 -1.5248 -0.1866  1.3655
   33MOL   C223 8607   7.506   4.881   0.533 -0.8392  0.0487  0.3490
   33MOL   C224 8608   7.530   4.793   0.413 -0.8382  0.1624 -0.0874
   33MOL   C225 8609   7.459   4.800   0.300 -0.5506  0.5960  0.8264
   33MOL   C226 8610   7.343   4.891   0.270  0.2061  0.5761  0.3621
   33MOL   C227 8611   7.478   4.702   0.184  0.4480  0.6873 -0.0253
   33MOL   H228 8612   7.599   4.910   0.582 -0.4207 -1.7784  0.6645
   33MOL   H229 8613   7.468   4.979   0.505  1.8455  1.5596  1.7646
   33MOL   H230 8614   7.594   4.707   0.422  0.8864  1.4314 -0.1173
   33MOL   H231 8615   7.333   4.978   0.336  0.1955  1.7287 -1.1097
   33MOL   H232 8616   7.253   4.844   0.310 -0.6175  0.7846 -1.1792
   33MOL   H233 8617   7.345   4.921   0.165 -1.0888  1.3107  0.5228
   33MOL   H234 8618   7.558   4.632   0.209 -1.7874 -1.3642  1.6651
   33MOL   H235 8619   7.503   4.747   0.088  0.6330 -0.2149 -0.4061
   33MOL   C236 8620   7.362   4.608   0.160 -0.2499 -0.2719 -0.1736
   33MOL   C237 8621   7.360   4.574   0.015 -0.1948  0.4933  0.5312
   33MOL   C238 8622   7.270   4.613   7.801  0.2033 -0.4613 -0.0579
   33MOL   C239 8623   7.173   4.727   7.824 -0.3487  0.1447  0.4441
   33MOL   C240 8624   7.264   4.560   7.655 -0.2911  0.1192 -0.3789
   33MOL   H241 8625   7.273   4.660   0.196 -0.2806 -0.7503  0.4405
   33MOL   H242 8626   7.376   4.521   0.225 -2.6247  0.0928  0.8762
   33MOL   H243 8627   7.429   4.493   7.877 -0.9661  0.2283 -1.0586
   33MOL   H244 8628   7.143   4.741   0.045 -0.0025 -1.0614  0.7129
   33MOL   H245 8629   7.077   4.706   7.776 -1.0183 -0.0576  1.8524
   33MOL   H246 8630   7.217   4.818   7.782  1.4483 -0.8585  0.0967
   33MOL   H247 8631   7.322   4.619   7.584 -2.3599  1.6075 -0.8798
   33MOL   H248 8632   7.167   4.588   7.612 -0.9678  1.1403  1.7236
   33MOL   C249 8633   7.296   4.412   7.632  0.1530 -0.5210  0.5843
   33MOL   C250 8634   7.277   4.372   7.486 -0.1889  0.4593  0.0723
   33MOL   C251 8635   7.214   4.267   7.432  0.4525 -0.2179  0.0856
   33MOL   C252 8636   7.143   4.163   7.518 -0.0472  0.0144  0.2055
   33MOL   C253 8637   7.205   4.242   7.282 -0.0610  0.5112 -0.4742
   33MOL   H254 8638   7.226   4.358   7.696 -0.7351 -1.8233 -1.4200
   33MOL   H255 8639   7.396   4.390   7.669 -0.6241 -0.9161  2.5203
   33MOL   H256 8640   7.327   4.443   7.422 -0.8984  0.3126 -0.6477
   33MOL   H257 8641   7.195   4.137   7.610  0.8702 -1.6710 -0.7467
   33MOL   H258 8642   7.146   4.059   7.483  1.3520 -0.0829  0.5802
   33MOL   H259 8643   7.041   4.192   7.541  0.9022  2.7005  1.1340
   33MOL   H260 8644   7.109   4.193   7.265  0.2816 -1.0002  1.6995
   33MOL   H261 8645   7.279   4.163   7.271  1.3044  1.9278 -1.6232
   33MOL   H262 8646   7.211   4.330   7.219  0.0142  0.8544  0.0142
   34MOL     C1 8647   2.090   6.536   1.362 -0.5364  0.1162  0.3109
   34MOL     C2 8648   2.052   6.487   1.225  0.4059  0.0620 -0.7199
   34MOL     C3 8649   2.099   6.371   1.179 -0.6711 -0.3454 -0.0780
   34MOL     C4 8650   2.195   6.276   1.259  0.7326 -0.6023 -0.2013
   34MOL     C5 8651   2.078   6.330   1.038 -0.2928  0.6395 -0.1403
   34MOL     H6 8652   2.092   6.643   1.344 -1.8258 -0.3066 -2.4983
   34MOL     H7 8653   2.018   6.513   1.441  1.3431 -0.7952  1.8300
   34MOL     H8 8654   1.975   6.538   1.169  0.0802 -1.2110 -1.4602
   34MOL     H9 8655   2.183   6.302   1.364  2.0939  1.1070 -0.4479
   34MOL    H10 8656   2.297   6.293   1.226 -0.0033  1.9615 -1.3049
   34MOL    H11 8657   2.166   6.171   1.252  0.1141 -0.7228  3.4924
   34MOL    H12 8658   2.181   6.328   1.003  0.2780  0.6784  1.5381
   34MOL    H13 8659   2.037   6.417   0.985 -1.3262 -1.1871 -2.4392
   34MOL    H14 8660   2.188   6.499   1.393 -0.1715  2.1837  1.7594
   34MOL    C15 8661   2.006   6.200   1.009 -0.2654 -0.0030  0.4037
   34MOL    C16 8662   1.961   6.190   0.865  0.4013  0.0203 -0.6407
   34MOL    C17 8663   1.975   6.080   0.796  0.4711  0.1617 -0.2909
   34MOL    C18 8664   2.026   5.945   0.850  0.3329  0.3227 -0.8871
   34MOL    C19 8665   1.938   6.055   0.653  0.0036 -0.0244  0.2659
   34MOL    H20 8666   1.919   6.187   1.073  0.3039  0.3106  1.2467
   34MOL    H21 8667   2.086   6.132   1.037 -0.3628 -0.2533  0.0805
   34MOL    H22 8668   1.928   6.283   0.821 -1.3163  0.0932  0.7609
   34MOL    H23 8669   2.048   5.948   0.957 -1.2735  1.3108 -0.5711
   34MOL    H24 8670   2.121   5.921   0.803  2.8581  0.6927  3.7302
   34MOL    H25 8671   1.962   5.859   0.834  1.9043 -0.9479 -0.4226
   34MOL    H26 8672   1.884   5.961   0.650 -2.0614  1.2048 -2.3339
   34MOL    H27 8673   2.036   6.031   0.611 -0.7080 -0.5347 -1.1310
   34MOL    C28 8674   1.857   6.165   0.575  0.2229  0.1309 -0.0567
   34MOL    C29 8675   1.833   6.140   0.425 -0.3154  0.1947 -0.4523
   34MOL    C30 8676   1.731   6.189   0.350  1.1044  0.0441  0.2632
   34MOL    C31 8677   1.614   6.264   0.408 -0.5853  0.4016  0.1264
   34MOL    C32 8678   1.722   6.174   0.202  0.1982 -0.3159  0.2004
   34MOL    H33 8679   1.907   6.260   0.587 -0.9750  0.8034 -0.3176
   34MOL    H34 8680   1.760   6.177   0.623 -0.6037  1.2083 -1.9419
   34MOL    H35 8681   1.905   6.071   0.384  0.7199  0.5620  0.7040
   34MOL    H36 8682   1.609   6.230   0.511  0.4127  2.6299  0.9489
   34MOL    H37 8683   1.528   6.224   0.354 -0.3376 -1.4306  1.0532
   34MOL    H38 8684   1.630   6.372   0.405 -2.4286  0.6981  0.1656
   34MOL    H39 8685   1.624   6.141   0.168  0.3296  0.8782 -1.3820
   34MOL    H40 8686   1.788   6.093   0.169 -1.1574 -1.2234 -0.3032
   34MOL    C41 8687   1.751   6.308   0.131 -0.3305  0.2456 -0.1259
   34MOL    C42 8688   1.743   6.295   7.865  0.2748  0.7584  1.3550
   34MOL    C43 8689   1.753   6.394   7.770 -0.2061 -0.0204 -0.2197
   34MOL    C44 8690   1.771   6.535   7.810  0.4512  0.5927 -0.3072
   34MOL    C45 8691   1.739   6.359   7.621  0.7294  0.0468  0.9245
   34MOL    H46 8692   1.854   6.337   0.153 -0.7272  2.7908 -1.4795
   34MOL    H47 8693   1.671   6.374   0.164 -0.7289 -0.0911 -0.4052
   34MOL    H48 8694   1.747   6.191   7.835  0.2594  0.5631  2.0270
   34MOL    H49 8695   1.784   6.546   0.035 -0.1883  0.5672 -0.2287
   34MOL    H50 8696   1.691   6.595   7.766  0.5463  0.9407 -0.0092
   34MOL    H51 8697   1.868   6.562   7.766  1.1355 -0.3223  0.6133
   34MOL    H52 8698   1.733   6.251   7.604 -4.6177  0.3242  0.1626
   34MOL    H53 8699   1.833   6.389   7.576 -0.2421  0.1514 -1.0916
   34MOL    C54 8700   1.621   6.430   7.547 -0.4182  0.5311  0.9022
   34MOL    C55 8701   1.614   6.394   7.402  0.1198 -0.4424  0.4851
   34MOL    C56 8702   1.624   6.477   7.295 -0.3393  0.9037  0.1560
   34MOL    C57 8703   1.635   6.629   7.301 -0.0849  0.3853  0.4302
   34MOL    C58 8704   1.636   6.432   7.149 -0.0285  0.5223 -0.3403
   34MOL    H59 8705   1.635   6.539   7.552 -1.0247  0.6593 -0.1874
   34MOL    H60 8706   1.523   6.408   7.588 -0.1673  0.5654  1.5395
   34MOL    H61 8707   1.618   6.287   7.389  2.6637 -0.2935 -0.2606
   34MOL    H62 8708   1.735   6.652   7.337  0.4112  0.9788 -1.2697
   34MOL    H63 8709   1.567   6.656   7.381 -0.8271  0.3246 -0.1740
   34MOL    H64 8710   1.606   6.683   7.211 -2.3444 -0.1413  0.8209
   34MOL    H65 8711   1.656   6.325   7.147  2.1514  0.8852  1.1709
   34MOL    H66 8712   1.724   6.474   7.100  0.5740 -1.4550 -0.9923
   34MOL    C67 8713   1.502   6.459   7.070  0.0633 -0.7346 -0.1109
   34MOL    C68 8714   1.504   6.379   6.943  0.0439 -0.3779  0.0363
   34MOL    C69 8715   1.395   6.340   6.872 -0.0587 -0.0816 -0.3918
   34MOL    C70 8716   1.253   6.364   6.925 -0.2091  0.6159  0.7825
   34MOL    C71 8717   1.391   6.249   6.751 -0.4478  0.4634 -0.8460
   34MOL    H72 8718   1.491   6.565   7.045  0.8616 -0.6099  0.0742
   34MOL    H73 8719   1.418   6.422   7.130 -0.4551 -1.6289 -1.3607
   34MOL    H74 8720   1.607   6.373   6.911  0.3316  1.4133  0.5637
   34MOL    H75 8721   1.227   6.261   6.947  0.0305 -0.0362 -1.9301
   34MOL    H76 8722   1.174   6.400   6.860  0.2248 -0.3723 -0.2995
   34MOL    H77 8723   1.241   6.422   7.017 -0.0864  0.3084  0.9936
   34MOL    H78 8724   1.329   6.299   6.676 -1.7359  0.1339 -0.0280
   34MOL    H79 8725   1.328   6.167   6.786  0.9068  0.5644  1.9214
   34MOL    C80 8726   1.522   6.196   6.700 -0.2521  0.2621  0.1285
   34MOL    C81 8727   1.561   6.068   6.768 -0.2698  0.3961 -0.4278
   34MOL    C82 8728   1.614   5.956   6.717  0.1129  0.4469  0.4588
   34MOL    C83 8729   1.644   5.947   6.569  0.2709 -0.8816  0.0488
   34MOL    C84 8730   1.639   5.827   6.788  0.3211  0.4326  0.4208
   34MOL    H85 8731   1.607   6.262   6.717 -0.1439  0.2587 -0.3944
   34MOL    H86 8732   1.511   6.183   6.593 -0.6873  0.8396  0.1030
   34MOL    H87 8733   1.539   6.065   6.874  0.2549 -0.3785 -0.3356
   34MOL    H88 8734   1.743   5.907   6.544 -0.0831 -2.3111  0.8893
   34MOL    H89 8735   1.638   6.046   6.524 -0.4591 -0.5624  0.8469
   34MOL    H90 8736   1.576   5.896   6.502  1.8101  0.0773 -2.3398
   34MOL    H91 8737   1.585   5.812   6.881 -0.3046  1.3382  0.2075
   34MOL    H92 8738   1.742   5.816   6.824  1.0867  1.1074 -1.4795
   34MOL    C93 8739   1.616   5.698   6.698  0.1160  0.1594  0.5657
   34MOL    C94 8740   1.633   5.574   6.773 -0.9423  0.3745 -0.8753
   34MOL    C95 8741   1.544   5.505   6.843 -0.3275  0.0767 -0.4539
   34MOL    C96 8742   1.406   5.553   6.867  0.6449 -0.0733  0.5062
   34MOL    C97 8743   1.595   5.381   6.927 -0.1422 -0.5523 -0.2851
   34MOL    H98 8744   1.705   5.698   6.634  0.3025  1.0157  0.8193
   34MOL    H99 8745   1.529   5.697   6.633  0.6931 -0.8648 -0.2021
   34MOL   H100 8746   1.735   5.541   6.778 -1.1789 -0.4745 -1.4834
   34MOL   H101 8747   1.399   5.660   6.844  1.9124  0.4978  2.6560
   34MOL   H102 8748   1.375   5.553   6.971  2.5027 -0.6638  1.0694
   34MOL   H103 8749   1.339   5.493   6.805 -0.1837 -1.2696  2.5308
   34MOL   H104 8750   1.590   5.418   7.030 -2.3696  0.8292 -0.8498
   34MOL   H105 8751   1.695   5.345   6.903  0.2962 -0.4023  1.2831
   34MOL   C106 8752   1.504   5.258   6.902  0.2546 -0.3646  0.9236
   34MOL   C107 8753   1.539   5.145   6.991  0.4987 -1.1206  0.5922
   34MOL   C108 8754   1.597   5.033   6.945  0.1464 -0.5538  0.6988
   34MOL   C109 8755   1.670   5.027   6.803 -0.4276  0.0981 -0.0094
   34MOL   C110 8756   1.610   4.911   7.031  0.3042  1.1070  0.1205
   34MOL   H111 8757   1.490   5.222   6.800 -0.5083  0.0450  0.8772
   34MOL   H112 8758   1.405   5.285   6.939  0.3418  0.9433  0.2442
   34MOL   H113 8759   1.498   5.161   7.090 -0.6399 -1.1352  0.1374
   34MOL   H114 8760   1.690   5.127   6.765 -2.7899  0.6972  0.2105
   34MOL   H115 8761   1.600   4.991   6.727  0.3517  2.0936 -1.7349
   34MOL   H116 8762   1.767   4.978   6.809 -0.6503 -0.6358 -1.9012
   34MOL   H117 8763   1.606   4.943   7.135  1.0731  1.9929 -0.1143
   34MOL   H118 8764   1.715   4.882   7.022 -0.1697 -0.9442  0.9651
   34MOL   C119 8765   1.512   4.797   6.995 -0.0061  0.4459  0.6068
   34MOL   C120 8766   1.375   4.827   7.036 -0.1064 -0.5667  0.1048
   34MOL   C121 8767   1.308   4.785   7.145 -0.1903 -0.9561 -0.3604
   34MOL   C122 8768   1.360   4.683   7.240  0.0305  0.0229 -0.6242
   34MOL   C123 8769   1.161   4.830   7.173 -0.2366  0.0093 -0.3136
   34MOL   H124 8770   1.549   4.705   7.038  0.4637 -0.7615 -2.2280
   34MOL   H125 8771   1.515   4.774   6.888  0.1705  2.8646  0.0471
   34MOL   H126 8772   1.326   4.891   6.965  0.4535  0.9990  1.0995
   34MOL   H127 8773   1.318   4.584   7.226 -0.0862  0.1406 -1.1312
   34MOL   H128 8774   1.357   4.709   7.346  1.4266  1.7077 -0.9655
   34MOL   H129 8775   1.467   4.670   7.225 -0.0230  1.5660 -2.6932
   34MOL   H130 8776   1.113   4.733   7.189  1.9962 -1.2483 -0.8647
   34MOL   H131 8777   1.117   4.887   7.091  2.8942  3.1215  0.0466
   34MOL   C132 8778   1.142   4.910   7.298 -0.0642  0.3367  0.3905
   34MOL   C133 8779   1.188   5.058   7.271 -0.1614 -0.7967  0.2032
   34MOL   C134 8780   1.114   5.169   7.252  0.4091 -0.2155  0.1746
   34MOL   C135 8781   0.967   5.157   7.269  0.2074 -0.1148  0.7672
   34MOL   C136 8782   1.174   5.309   7.246 -0.0623  0.3317 -0.0014
   34MOL   H137 8783   1.213   4.876   7.373  1.8790  1.5878 -0.8206
   34MOL   H138 8784   1.037   4.907   7.328  0.2444 -0.1161  1.4401
   34MOL   H139 8785   1.296   5.066   7.266 -0.1102 -1.7396 -0.3676
   34MOL   H140 8786   0.913   5.245   7.236 -0.3695 -0.0475  1.8794
   34MOL   H141 8787   0.958   5.145   7.377 -0.9676 -0.2972  0.6532
   34MOL   H142 8788   0.921   5.077   7.211  1.9988 -0.7923  0.2305
   34MOL   H143 8789   1.103   5.382   7.206 -0.7204 -0.6641 -0.6560
   34MOL   H144 8790   1.267   5.314   7.189 -0.1692  3.7901 -0.0202
   34MOL   C145 8791   1.210   5.358   7.385 -0.0561 -0.2245  0.5577
   34MOL   C146 8792   1.316   5.473   7.383  0.1902  0.4604  0.2771
   34MOL   C147 8793   1.450   5.460   7.373 -0.0765  0.2147 -0.2510
   34MOL   C148 8794   1.526   5.328   7.355 -0.0187 -0.7585 -0.2110
   34MOL   C149 8795   1.546   5.584   7.386  0.1440 -0.0028  0.1864
   34MOL   H150 8796   1.249   5.275   7.444 -1.5794 -1.2137  0.2105
   34MOL   H151 8797   1.119   5.396   7.432 -0.9546 -0.7176 -0.7268
   34MOL   H152 8798   1.273   5.570   7.403  0.5942  1.2404 -2.4440
   34MOL   H153 8799   1.456   5.245   7.347 -1.0764  0.1960 -0.9704
   34MOL   H154 8800   1.591   5.315   7.442  2.5194 -3.2691 -2.3701
   34MOL   H155 8801   1.577   5.323   7.259 -1.1386 -0.6573 -0.8148
   34MOL   H156 8802   1.630   5.554   7.449  0.4025  0.7123  0.1923
   34MOL   H157 8803   1.499   5.673   7.429  0.5439  0.3205 -0.0397
   34MOL   C158 8804   1.604   5.621   7.252 -0.4829  0.2401 -0.5530
   34MOL   C159 8805   1.674   5.752   7.247  0.1540 -0.4318 -0.1470
   34MOL   C160 8806   1.805   5.774   7.236  0.1270  0.4449  0.0334
   34MOL   C161 8807   1.909   5.658   7.228  0.2786  0.3076 -0.0640
   34MOL   C162 8808   1.853   5.916   7.209 -0.3452  0.3150 -0.1693
   34MOL   H163 8809   1.528   5.620   7.174 -2.4872 -0.6857  1.3571
   34MOL   H164 8810   1.677   5.548   7.218 -0.0535  0.5992 -0.4052
   34MOL   H165 8811   1.611   5.840   7.240  0.1195 -0.4970 -0.6498
   34MOL   H166 8812   1.999   5.683   7.285 -0.2061  0.6139  0.5796
   34MOL   H167 8813   1.940   5.632   7.127 -4.9357 -0.5470 -1.5751
   34MOL   H168 8814   1.877   5.564   7.272  0.5996 -0.5492 -1.6445
   34MOL   H169 8815   1.957   5.933   7.239  0.1972  0.2040 -1.9332
   34MOL   H170 8816   1.795   5.987   7.269  1.1185  0.6137  0.9450
   34MOL   C171 8817   1.849   5.952   7.064 -0.6150 -0.4181 -0.7048
   34MOL   C172 8818   1.899   6.095   7.042  0.5756 -0.0166 -0.3662
   34MOL   C173 8819   1.963   6.143   6.942  0.0928  0.6769  0.3015
   34MOL   C174 8820   2.016   6.063   6.821  0.2663  0.4885  0.4290
   34MOL   C175 8821   2.000   6.292   6.942  0.0832 -0.2020 -0.6483
   34MOL   H176 8822   1.745   5.954   7.032 -0.5153 -0.5920 -1.0498
   34MOL   H177 8823   1.909   5.893   6.994  0.4914 -0.2977  0.1288
   34MOL   H178 8824   1.864   6.152   7.127 -0.1692  0.1918 -0.8079
   34MOL   H179 8825   1.988   5.957   6.820  0.1607  0.5125 -1.3190
   34MOL   H180 8826   2.125   6.067   6.828  0.3203  0.1124 -0.1435
   34MOL   H181 8827   1.996   6.111   6.725  0.9977 -0.7604 -0.3664
   34MOL   H182 8828   2.108   6.300   6.953 -0.1140  0.9695  0.5816
   34MOL   H183 8829   1.955   6.335   7.031  0.0112 -0.9771 -0.3081
   34MOL   C184 8830   1.934   6.354   6.819  0.2435 -0.7360  0.2047
   34MOL   C185 8831   1.952   6.505   6.836  0.4576 -0.8450  0.0512
   34MOL   C186 8832   1.859   6.593   6.809 -0.4867 -0.3203  0.4422
   34MOL   C187 8833   1.737   6.566   6.723 -0.1518 -0.1208 -0.0284
   34MOL   C188 8834   1.873   6.745   6.844 -0.5206  0.3202 -0.0184
   34MOL   H189 8835   1.834   6.315   6.803 -0.0123  0.5655 -1.6260
   34MOL   H190 8836   1.983   6.330   6.725  2.0912 -2.6976  1.6426
   34MOL   H191 8837   2.035   6.532   6.898  0.5336 -1.0842  0.0527
   34MOL   H192 8838   1.732   6.633   6.637 -0.7962  0.1440  0.2128
   34MOL   H193 8839   1.648   6.577   6.785  0.3652  1.4724  0.4539
   34MOL   H194 8840   1.736   6.466   6.679  2.5958 -0.0608 -0.3258
   34MOL   H195 8841   1.875   6.807   6.754 -0.7362  0.7220  0.2557
   34MOL   H196 8842   1.968   6.767   6.892 -0.1908  0.0668 -0.5497
   34MOL   C197 8843   1.771   6.792   6.948  0.7741  0.0750 -0.2960
   34MOL   C198 8844   1.816   6.914   7.034 -0.0955  0.1469 -0.0456
   34MOL   C199 8845   1.757   7.033   7.040 -0.7802 -0.1096 -0.9310
   34MOL   C200 8846   1.619   7.061   6.978 -0.1442  0.3171  0.2394
   34MOL   C201 8847   1.811   7.149   7.127 -0.4073 -0.0496  0.0438
   34MOL   H202 8848   1.754   6.711   7.019  1.2135  2.0013  2.0638
   34MOL   H203 8849   1.679   6.815   6.894  0.9690  0.2400 -0.5589
   34MOL   H204 8850   1.914   6.900   7.076  0.6215  1.6780 -1.1901
   34MOL   H205 8851   1.545   6.982   6.988  0.6445 -0.5397 -0.5538
   34MOL   H206 8852   1.638   7.069   6.871  0.4197  0.4871  0.3516
   34MOL   H207 8853   1.582   7.163   6.990 -0.1611  0.6012 -1.9496
   34MOL   H208 8854   1.874   7.109   7.207  0.6589 -0.7640 -1.1388
   34MOL   H209 8855   1.732   7.206   7.176 -1.5842 -1.9913  0.4677
   34MOL   C210 8856   1.896   7.248   7.040  0.8213  0.0610 -0.9398
   34MOL   C211 8857   2.017   7.182   6.970  0.3426 -0.5097  0.2396
   34MOL   C212 8858   2.045   7.167   6.840 -0.2359  0.3842 -0.5909
   34MOL   C213 8859   1.955   7.223   6.732  0.0627  0.1596  0.7967
   34MOL   C214 8860   2.169   7.096   6.786 -1.1333  0.1498 -0.2471
   34MOL   H215 8861   1.926   7.330   7.106  0.2561 -0.7421  0.3214
   34MOL   H216 8862   1.822   7.276   6.964 -0.2043  0.2588  0.1219
   34MOL   H217 8863   2.096   7.143   7.032 -0.7856 -0.9750  1.3786
   34MOL   H218 8864   1.985   7.327   6.715  0.4722 -0.1143 -0.1766
   34MOL   H219 8865   1.849   7.225   6.755 -0.3885 -2.2191 -0.9257
   34MOL   H220 8866   1.957   7.154   6.648  2.7640  0.8807  0.2137
   34MOL   H221 8867   2.142   6.995   6.755 -0.4171 -0.3802  0.8249
   34MOL   H222 8868   2.235   7.064   6.867 -1.0766 -1.0910 -0.7789
   34MOL   C223 8869   2.246   7.176   6.676  0.5379  1.1371  0.4517
   34MOL   C224 8870   2.365   7.101   6.618  0.3626 -0.0598 -0.0060
   34MOL   C225 8871   2.389   7.087   6.484 -0.4809 -0.4865 -0.3232
   34MOL   C226 8872   2.310   7.152   6.375 -0.4706  0.2038 -0.4174
   34MOL   C227 8873   2.499   6.991   6.436  0.1786 -0.3414 -0.9593
   34MOL   H228 8874   2.282   7.261   6.733 -1.1238  2.5202 -0.4999
   34MOL   H229 8875   2.179   7.219   6.602  1.2343  1.8250  0.2231
   34MOL   H230 8876   2.416   7.051   6.700 -1.9735 -1.1667  0.8197
   34MOL   H231 8877   2.207   7.119   6.378 -1.2984  2.6243 -1.1366
   34MOL   H232 8878   2.339   7.126   6.273 -0.6100  1.7922 -0.8745
   34MOL   H233 8879   2.309   7.260   6.390 -0.5554  0.3947 -1.7291
   34MOL   H234 8880   2.452   6.920   6.369  0.0258  1.5465 -2.9246
   34MOL   H235 8881   2.534   6.923   6.513  0.0104  0.3002 -0.3155
   34MOL   C236 8882   2.615   7.077   6.371 -0.2075 -0.3036  0.1626
   34MOL   C237 8883   2.733   6.987   6.343 -0.8329 -0.9432 -1.3713
   34MOL   C238 8884   2.858   7.030   6.325 -0.2295  0.2248  0.3697
   34MOL   C239 8885   2.890   7.170   6.296 -0.1244  0.3666 -0.0119
   34MOL   C240 8886   2.978   6.935   6.318  0.5303 -0.4070  0.5579
   34MOL   H241 8887   2.654   7.157   6.434  0.7148 -0.0809 -0.6891
   34MOL   H242 8888   2.573   7.126   6.283 -0.7561 -0.4622  0.3325
   34MOL   H243 8889   2.723   6.881   6.363 -0.4785 -0.5097  1.2392
   34MOL   H244 8890   2.805   7.238   6.281  0.9326  1.6721 -0.1858
   34MOL   H245 8891   2.953   7.186   6.209  1.4312  3.4106  1.5819
   34MOL   H246 8892   2.930   7.225   6.382  0.1658  1.0380 -0.5726
   34MOL   H247 8893   3.033   6.947   6.225  0.8101 -0.9750  0.6490
   34MOL   H248 8894   2.934   6.835   6.321  0.4292 -0.4682 -1.7795
   34MOL   C249 8895   3.068   6.950   6.447 -0.3381 -0.5827 -0.2882
   34MOL   C250 8896   3.188   6.852   6.454  0.0128 -0.2509 -0.0392
   34MOL   C251 8897   3.321   6.877   6.429  0.2921 -0.6857 -0.1950
   34MOL   C252 8898   3.363   7.008   6.380 -0.1991 -0.0043  0.3930
   34MOL   C253 8899   3.422   6.773   6.437  0.2784  0.1170  0.4475
   34MOL   H254 8900   3.009   6.922   6.534 -1.0157 -0.1259 -0.5955
   34MOL   H255 8901   3.094   7.056   6.456 -1.0490 -0.4713  0.4353
   34MOL   H256 8902   3.161   6.749   6.474  1.1599 -0.6598 -0.5668
   34MOL   H257 8903   3.471   7.016   6.392  0.1669  0.1529 -2.4931
   34MOL   H258 8904   3.323   7.096   6.430 -0.4768  0.2550 -0.2835
   34MOL   H259 8905   3.351   7.006   6.272 -0.1769  3.0674  0.2952
   34MOL   H260 8906   3.509   6.800   6.497  0.5601  0.6025 -0.1668
   34MOL   H261 8907   3.451   6.749   6.334  0.7611  0.8223  0.4117
   34MOL   H262 8908   3.375   6.686   6.482 -2.5295  1.7429  0.7750
   35MOL     C1 8909   1.869   7.775   2.427 -0.0648 -0.1653 -0.2770
   35MOL     C2 8910   1.801   7.637   2.425 -0.4922  0.2969 -0.1878
   35MOL     C3 8911   1.792   7.557   2.532  0.8442  0.8465  0.5377
   35MOL     C4 8912   1.880   7.565   2.658  0.5618 -0.7340 -0.1602
   35MOL     C5 8913   1.715   7.422   2.518  0.0106 -0.4470  0.5447
   35MOL     H6 8914   1.977   7.763   2.425 -0.0355  0.0074  0.0933
   35MOL     H7 8915   1.830   7.824   2.338  0.8988  0.7012 -0.2293
   35MOL     H8 8916   1.742   7.621   2.336 -0.5372  2.1938 -0.5238
   35MOL     H9 8917   1.851   7.645   2.725  3.9785  0.7340 -0.3220
   35MOL    H10 8918   1.979   7.580   2.614  0.3721 -1.5502 -0.8918
   35MOL    H11 8919   1.887   7.465   2.701  2.0698 -1.9375 -3.0016
   35MOL    H12 8920   1.654   7.434   2.429 -0.9722  0.5648  1.3374
   35MOL    H13 8921   1.643   7.404   2.597 -1.8165 -0.4980 -1.0989
   35MOL    H14 8922   1.842   7.836   2.513  2.0132 -0.1387  0.3917
   35MOL    C15 8923   1.803   7.301   2.487  0.2644  0.0343  0.3004
   35MOL    C16 8924   1.741   7.173   2.431 -0.7502 -0.5021  0.2156
   35MOL    C17 8925   1.748   7.130   2.307  1.1862  0.9056  0.3244
   35MOL    C18 8926   1.815   7.207   2.193 -0.1278 -0.2849 -0.5414
   35MOL    C19 8927   1.685   6.997   2.262  0.5031 -0.1228 -0.3871
   35MOL    H20 8928   1.842   7.265   2.582 -0.1275  2.2700  1.3423
   35MOL    H21 8929   1.894   7.331   2.436 -0.5155  2.5573  0.3418
   35MOL    H22 8930   1.690   7.121   2.511  0.1413  1.4836  2.1054
   35MOL    H23 8931   1.908   7.164   2.154  0.8064  1.4880 -0.3251
   35MOL    H24 8932   1.840   7.310   2.221 -2.3812 -0.1063  0.9327
   35MOL    H25 8933   1.748   7.199   2.108 -0.8708 -2.1831  0.1972
   35MOL    H26 8934   1.610   7.024   2.187  0.6829  0.5361 -0.3305
   35MOL    H27 8935   1.634   6.961   2.351 -2.5859  3.2325 -0.6663
   35MOL    C28 8936   1.767   6.880   2.199 -0.6294  0.2754  0.8794
   35MOL    C29 8937   1.805   6.912   2.053  0.4187 -0.7354  0.0574
   35MOL    C30 8938   1.921   6.894   1.986 -0.0981 -0.6329 -0.3899
   35MOL    C31 8939   2.050   6.838   2.055 -0.1224 -0.0828 -0.3846
   35MOL    C32 8940   1.940   6.935   1.838 -0.0855 -0.5445 -0.0701
   35MOL    H33 8941   1.705   6.791   2.202 -0.0173 -0.1053  2.5087
   35MOL    H34 8942   1.857   6.855   2.255  0.4310 -2.4623 -1.9238
   35MOL    H35 8943   1.726   6.948   1.989  1.4641 -0.2714 -1.0124
   35MOL    H36 8944   2.143   6.882   2.019  0.4657  0.9128  2.2644
   35MOL    H37 8945   2.053   6.729   2.049  0.0759 -0.1198  0.3467
   35MOL    H38 8946   2.055   6.858   2.162 -0.9456 -1.4631 -0.0665
   35MOL    H39 8947   2.021   7.007   1.850 -2.8505  2.8589 -0.9399
   35MOL    H40 8948   1.862   7.008   1.814  1.8614  0.7072 -2.7459
   35MOL    C41 8949   1.961   6.821   1.740 -0.3966 -0.0091 -0.3162
   35MOL    C42 8950   1.836   6.745   1.730 -0.0068  0.2631  0.1306
   35MOL    C43 8951   1.766   6.714   1.615 -0.8149 -0.5205  0.3299
   35MOL    C44 8952   1.799   6.758   1.471 -0.2300  0.7979  0.5937
   35MOL    C45 8953   1.640   6.629   1.617  0.3849 -0.6746  0.1757
   35MOL    H46 8954   2.038   6.751   1.773 -0.6500  0.0121  0.3176
   35MOL    H47 8955   2.008   6.850   1.646  1.3788  0.8773  0.8090
   35MOL    H48 8956   1.802   6.701   1.823  0.1539 -0.4611 -0.1551
   35MOL    H49 8957   1.719   6.743   1.398  0.6964 -2.0262  0.1027
   35MOL    H50 8958   1.896   6.709   1.466 -0.4916  0.1286  1.9342
   35MOL    H51 8959   1.832   6.861   1.457  1.0765  0.4272  0.9089
   35MOL    H52 8960   1.563   6.665   1.549 -0.1147  1.5394  1.8610
   35MOL    H53 8961   1.596   6.620   1.717 -1.8080  0.4664 -0.6481
   35MOL    C54 8962   1.682   6.479   1.590  0.2848  0.4117  0.5262
   35MOL    C55 8963   1.569   6.381   1.561 -0.2419 -0.3821  0.7647
   35MOL    C56 8964   1.564   6.251   1.568 -0.1991 -0.2569 -0.3247
   35MOL    C57 8965   1.684   6.172   1.612  0.2909 -0.2108 -0.3031
   35MOL    C58 8966   1.431   6.175   1.536  0.0711  0.2454 -0.3086
   35MOL    H59 8967   1.755   6.441   1.661  0.8667 -0.8686 -0.7237
   35MOL    H60 8968   1.731   6.479   1.492 -1.7854  0.1910 -0.5469
   35MOL    H61 8969   1.479   6.430   1.529  0.7150  0.3409 -0.9016
   35MOL    H62 8970   1.710   6.208   1.712 -0.7747  2.2237 -0.8528
   35MOL    H63 8971   1.762   6.196   1.539  1.5536 -1.5520  0.5713
   35MOL    H64 8972   1.667   6.065   1.611 -1.1116 -0.0127 -3.5888
   35MOL    H65 8973   1.355   6.249   1.512 -1.3091 -1.4690 -1.3703
   35MOL    H66 8974   1.407   6.116   1.624 -0.0494 -0.0142 -0.5129
   35MOL    C67 8975   1.457   6.089   1.404  0.2451  0.2758 -0.0326
   35MOL    C68 8976   1.333   6.006   1.379 -0.0543  0.4129 -0.5882
   35MOL    C69 8977   1.231   6.036   1.298 -0.5663 -0.5254 -0.3360
   35MOL    C70 8978   1.215   6.163   1.209 -0.2976  0.0983  0.6707
   35MOL    C71 8979   1.114   5.941   1.290  0.4916  0.2405  0.3462
   35MOL    H72 8980   1.547   6.029   1.417  0.0666  0.0879  0.3765
   35MOL    H73 8981   1.451   6.153   1.316 -1.3942  0.6325  0.3135
   35MOL    H74 8982   1.337   5.916   1.439 -0.6488  0.4882 -0.4297
   35MOL    H75 8983   1.297   6.182   1.140 -1.8490 -0.8423 -1.5069
   35MOL    H76 8984   1.180   6.250   1.265 -1.4373  1.4010 -1.9544
   35MOL    H77 8985   1.139   6.149   1.132  2.3300  0.4778 -2.1030
   35MOL    H78 8986   1.021   5.995   1.311 -0.1570 -0.5558 -0.4524
   35MOL    H79 8987   1.122   5.867   1.370 -2.1059 -0.8417 -0.3209
   35MOL    C80 8988   1.115   5.854   1.168 -0.1526 -0.2403 -0.6165
   35MOL    C81 8989   1.006   5.748   1.177 -0.4648  0.1475 -0.4237
   35MOL    C82 8990   0.920   5.717   1.081  0.3165  0.1687  1.2378
   35MOL    C83 8991   0.914   5.772   0.944  0.4671  0.3437 -0.2914
   35MOL    C84 8992   0.810   5.618   1.109 -0.6364 -0.3884 -0.8915
   35MOL    H85 8993   1.206   5.794   1.162  0.0513 -0.0709  0.6680
   35MOL    H86 8994   1.086   5.918   1.084 -0.0597 -2.1002 -2.1025
   35MOL    H87 8995   1.004   5.689   1.267  0.3190  2.4009  1.1498
   35MOL    H88 8996   0.835   5.847   0.942  1.9870  2.0269  1.3065
   35MOL    H89 8997   0.881   5.701   0.868 -0.5096  1.6539 -1.1161
   35MOL    H90 8998   1.002   5.821   0.904  0.8668 -1.0887 -1.2005
   35MOL    H91 8999   0.809   5.595   1.215 -0.8782  1.8028 -0.4062
   35MOL    H92 9000   0.851   5.527   1.065  0.9358 -0.4089  0.5539
   35MOL    C93 9001   0.662   5.654   1.073 -0.0879 -1.0898  0.1856
   35MOL    C94 9002   0.571   5.543   1.116  0.1343 -0.3217 -0.2054
   35MOL    C95 9003   0.505   5.531   1.230  0.0834  0.7326 -0.0801
   35MOL    C96 9004   0.496   5.631   1.340  0.0316  0.1720  0.2750
   35MOL    C97 9005   0.414   5.412   1.253 -0.3839  0.3772  0.9114
   35MOL    H98 9006   0.661   5.669   0.965  1.0483 -0.1241  0.2983
   35MOL    H99 9007   0.636   5.747   1.124  0.6651 -0.2124 -0.9867
   35MOL   H100 9008   0.569   5.456   1.052  2.6001  0.8622 -1.9605
   35MOL   H101 9009   0.555   5.711   1.295  0.9313  0.3718  1.7798
   35MOL   H102 9010   0.549   5.616   1.433  0.6505  2.2196  0.2860
   35MOL   H103 9011   0.397   5.673   1.360 -0.3985 -0.9542  0.5375
   35MOL   H104 9012   0.411   5.341   1.170 -1.5940  0.3315  0.9912
   35MOL   H105 9013   0.315   5.450   1.278 -1.4810 -0.4734 -1.9282
   35MOL   C106 9014   0.458   5.329   1.381 -0.2375 -0.0996 -0.5547
   35MOL   C107 9015   0.355   5.229   1.427  0.0736  0.4026  0.2625
   35MOL   C108 9016   0.321   5.188   1.551  0.0020  0.2580  0.0398
   35MOL   C109 9017   0.392   5.248   1.677  0.5566  0.4907 -0.2436
   35MOL   C110 9018   0.213   5.076   1.572 -0.3114  0.2382  0.5781
   35MOL   H111 9019   0.490   5.394   1.462 -2.8822  1.8589 -1.0430
   35MOL   H112 9020   0.548   5.270   1.360  0.3108  0.5180  0.0365
   35MOL   H113 9021   0.300   5.186   1.345 -1.5025 -0.1931  1.5922
   35MOL   H114 9022   0.495   5.213   1.682 -0.0066 -1.0811  1.0642
   35MOL   H115 9023   0.339   5.222   1.769  1.3327 -0.0294  0.0629
   35MOL   H116 9024   0.393   5.355   1.658 -1.3988  0.9296  1.8406
   35MOL   H117 9025   0.256   4.998   1.635 -1.3957 -0.5043  0.4199
   35MOL   H118 9026   0.199   5.032   1.473  3.0295  1.4172 -0.4623
   35MOL   C119 9027   0.088   5.129   1.644  0.3272  0.2531  0.1600
   35MOL   C120 9028   0.004   5.212   1.549 -0.7878 -0.4304 -0.0562
   35MOL   C121 9029   7.773   5.273   1.579  0.3216 -0.1584  0.2624
   35MOL   C122 9030   7.683   5.245   1.702 -0.3888  0.0375 -0.0167
   35MOL   C123 9031   7.693   5.359   1.482 -0.0590 -0.1183 -0.4554
   35MOL   H124 9032   0.099   5.183   1.738 -0.9405  0.3378  0.2625
   35MOL   H125 9033   0.019   5.047   1.665  1.5970 -1.0128 -0.4387
   35MOL   H126 9034   0.048   5.222   1.451  1.1632  0.0349  0.8571
   35MOL   H127 9035   7.643   5.336   1.746 -0.5733  0.0982 -0.3064
   35MOL   H128 9036   7.725   5.193   1.787 -2.3683  1.1309  1.6668
   35MOL   H129 9037   7.585   5.207   1.673 -1.5227  2.6435  0.2170
   35MOL   H130 9038   7.591   5.319   1.483 -0.0310 -0.1731 -0.0673
   35MOL   H131 9039   7.734   5.341   1.383  1.1335 -4.2366  0.7027
   35MOL   C132 9040   7.698   5.508   1.519 -0.0904  0.4699 -0.5490
   35MOL   C133 9041   7.803   5.578   1.446 -0.2273 -0.6629 -0.0547
   35MOL   C134 9042   7.797   5.643   1.330  0.0742 -0.0527  0.8890
   35MOL   C135 9043   7.661   5.656   1.251 -0.3346 -0.0714  0.0004
   35MOL   C136 9044   0.032   5.709   1.264 -0.3756 -0.7344  0.2741
   35MOL   H137 9045   7.716   5.521   1.625  2.0096  0.1561 -0.8496
   35MOL   H138 9046   7.602   5.557   1.500 -0.5250 -0.2587 -0.2633
   35MOL   H139 9047   0.019   5.550   1.482 -0.3432 -3.1725 -1.5592
   35MOL   H140 9048   7.642   5.752   1.203 -1.0304 -0.0637  0.2864
   35MOL   H141 9049   7.571   5.630   1.306  0.7886 -1.4587  1.2292
   35MOL   H142 9050   7.669   5.592   1.163  1.4983  0.4301 -0.2249
   35MOL   H143 9051   0.116   5.691   1.331 -0.1776  0.5590  0.3930
   35MOL   H144 9052   0.017   5.815   1.244  0.3468 -0.4628  1.0950
   35MOL   C145 9053   0.071   5.644   1.136  0.0439 -0.3298  0.0545
   35MOL   C146 9054   0.196   5.707   1.079 -0.3826 -0.3933  0.6035
   35MOL   C147 9055   0.204   5.805   0.987 -0.2425 -0.4839  0.2996
   35MOL   C148 9056   0.087   5.872   0.924  0.3156 -0.2340  0.9263
   35MOL   C149 9057   0.346   5.857   0.947  0.1551 -0.0539 -0.3603
   35MOL   H150 9058   7.876   5.655   1.060 -0.5858 -1.6190  0.5106
   35MOL   H151 9059   0.074   5.538   1.159  1.9670  0.3151  2.9953
   35MOL   H152 9060   0.281   5.678   1.138  0.0768  0.5006  0.4052
   35MOL   H153 9061   0.026   5.917   1.002  1.9154  1.8405  1.0126
   35MOL   H154 9062   0.043   5.788   0.870 -0.5615  2.7686 -3.3095
   35MOL   H155 9063   0.111   5.954   0.857  0.7024 -0.9875  0.1319
   35MOL   H156 9064   0.373   5.840   0.843 -0.4933  1.1165 -0.7292
   35MOL   H157 9065   0.417   5.788   0.992 -0.6509  0.2586  1.4590
   35MOL   C158 9066   0.372   6.006   0.977 -0.6065  0.7696 -0.4649
   35MOL   C159 9067   0.408   6.015   1.125 -0.3196 -0.1097 -0.4428
   35MOL   C160 9068   0.460   6.124   1.186  0.4565  0.2872  0.1894
   35MOL   C161 9069   0.504   6.249   1.117  0.0082  0.3657  0.8589
   35MOL   C162 9070   0.482   6.108   1.336  0.3731  0.0356 -0.3984
   35MOL   H163 9071   0.282   6.066   0.964 -0.0540  1.0920 -3.0977
   35MOL   H164 9072   0.458   6.044   0.923  0.3571 -1.2148 -0.4006
   35MOL   H165 9073   0.384   5.929   1.186  1.9936 -0.1740  0.4197
   35MOL   H166 9074   0.611   6.266   1.129  0.3572  0.3886 -1.8461
   35MOL   H167 9075   0.450   6.333   1.161 -0.4236  0.4638  0.1445
   35MOL   H168 9076   0.499   6.245   1.008 -0.1170 -1.4461  0.9116
   35MOL   H169 9077   0.407   6.044   1.384 -1.8870  1.9398 -1.2953
   35MOL   H170 9078   0.453   6.203   1.381  2.3830  0.3450  0.2866
   35MOL   C171 9079   0.625   6.049   1.372  0.1542 -0.5313 -0.0844
   35MOL   C172 9080   0.660   6.061   1.515  0.6457  0.1563 -0.5030
   35MOL   C173 9081   0.728   5.975   1.593 -0.1892 -0.2332  0.4649
   35MOL   C174 9082   0.788   5.843   1.544  0.7200 -0.7653 -0.3935
   35MOL   C175 9083   0.742   6.013   1.741  0.1948  0.6820  0.8286
   35MOL   H176 9084   0.697   6.109   1.316  0.4191 -0.8422 -0.0772
   35MOL   H177 9085   0.627   5.945   1.338 -0.8375 -0.6208  0.1004
   35MOL   H178 9086   0.608   6.147   1.554 -1.1137 -0.4428 -1.4921
   35MOL   H179 9087   0.842   5.794   1.624 -1.0083 -1.5637  0.3088
   35MOL   H180 9088   0.851   5.851   1.455 -0.9090  2.0615 -1.3789
   35MOL   H181 9089   0.710   5.771   1.521 -1.6756  1.4686  0.4400
   35MOL   H182 9090   0.746   6.119   1.764 -2.3306  1.0088 -0.0118
   35MOL   H183 9091   0.837   5.966   1.766 -0.2048 -0.0198  1.0343
   35MOL   C184 9092   0.634   5.944   1.830  0.3329  0.5122  0.0561
   35MOL   C185 9093   0.659   5.951   1.976 -0.4142  0.0878 -1.1451
   35MOL   C186 9094   0.740   5.879   2.058 -0.1198 -0.3582  0.1123
   35MOL   C187 9095   0.829   5.771   2.003  0.8890  0.4719 -0.0565
   35MOL   C188 9096   0.758   5.916   2.209 -0.1533 -0.6697 -0.1241
   35MOL   H189 9097   0.636   5.839   1.801  1.4915  0.4300  0.4384
   35MOL   H190 9098   0.540   5.988   1.795 -0.2421 -0.4404  0.3772
   35MOL   H191 9099   0.607   6.030   2.027 -2.3185 -1.6653 -0.3135
   35MOL   H192 9100   0.935   5.796   2.012  1.0332 -0.9526  2.6872
   35MOL   H193 9101   0.799   5.752   1.900  2.6114 -0.9805 -0.3159
   35MOL   H194 9102   0.815   5.681   2.062 -0.2182  0.3642 -0.4708
   35MOL   H195 9103   0.867   5.921   2.217 -0.2488 -0.6621  1.2671
   35MOL   H196 9104   0.731   5.833   2.274  3.4617  1.0949  3.8594
   35MOL   C197 9105   0.697   6.052   2.246 -0.1214  0.8599  0.1253
   35MOL   C198 9106   0.713   6.083   2.391 -0.2045  0.1794 -0.2250
   35MOL   C199 9107   0.806   6.167   2.449  0.0686  0.1784 -0.6537
   35MOL   C200 9108   0.902   6.255   2.370 -0.4577  0.1187  0.9163
   35MOL   C201 9109   0.802   6.199   2.601 -0.7903  0.3919  0.0617
   35MOL   H202 9110   0.588   6.047   2.243 -0.1941  2.5082 -0.5912
   35MOL   H203 9111   0.729   6.126   2.173  0.1345  2.4866  1.8369
   35MOL   H204 9112   0.644   6.027   2.453 -1.4164 -1.8497 -3.2942
   35MOL   H205 9113   0.919   6.213   2.271 -0.8372 -0.8166  1.2460
   35MOL   H206 9114   1.002   6.273   2.410 -0.1041 -1.2721  0.6609
   35MOL   H207 9115   0.855   6.353   2.360  2.0767  1.2782 -0.0810
   35MOL   H208 9116   0.906   6.219   2.625 -1.0226  0.4722  1.0295
   35MOL   H209 9117   0.762   6.118   2.662 -0.8113 -0.3275 -0.8963
   35MOL   C210 9118   0.728   6.335   2.630 -0.6275  0.0303 -0.3765
   35MOL   C211 9119   0.677   6.333   2.774  0.4151  1.2047 -0.3913
   35MOL   C212 9120   0.689   6.423   2.871 -0.1902  0.3026  0.1056
   35MOL   C213 9121   0.754   6.556   2.850  0.4517 -0.3683 -0.3628
   35MOL   C214 9122   0.651   6.383   3.010 -0.7222  0.5899 -1.1471
   35MOL   H215 9123   0.642   6.345   2.565 -3.0586 -0.2968  2.6892
   35MOL   H216 9124   0.803   6.414   2.632  2.0062 -2.3917  0.7721
   35MOL   H217 9125   0.626   6.242   2.800  1.1096  1.4344  1.8708
   35MOL   H218 9126   0.690   6.642   2.870 -1.9632 -2.0334 -0.7607
   35MOL   H219 9127   0.768   6.582   2.745  0.0849  2.9512  0.3505
   35MOL   H220 9128   0.851   6.567   2.899 -0.0797  1.2005  0.3658
   35MOL   H221 9129   0.729   6.418   3.077 -0.4180 -0.5747 -0.8786
   35MOL   H222 9130   0.640   6.276   3.031 -2.9352  0.5807 -2.1242
   35MOL   C223 9131   0.521   6.439   3.053  0.2420  0.7224  0.2547
   35MOL   C224 9132   0.501   6.428   3.204  0.2189  0.3187  0.0672
   35MOL   C225 9133   0.443   6.328   3.278 -0.3452  0.1870  0.2629
   35MOL   C226 9134   0.383   6.202   3.220 -0.4682  0.3546  0.9946
   35MOL   C227 9135   0.412   6.346   3.424  0.9769  0.5322 -0.6810
   35MOL   H228 9136   0.434   6.404   2.998  1.0833  0.1362 -0.7326
   35MOL   H229 9137   0.526   6.545   3.030  0.8649  0.6862  0.2019
   35MOL   H230 9138   0.544   6.521   3.240  2.4020 -1.2636  1.6748
   35MOL   H231 9139   0.274   6.203   3.220 -0.4870  2.6335 -1.9748
   35MOL   H232 9140   0.408   6.105   3.263 -2.6563  0.3810  2.4093
   35MOL   H233 9141   0.414   6.194   3.116 -2.8654 -2.5893  0.4412
   35MOL   H234 9142   0.351   6.263   3.458  1.6889  0.3399  0.1431
   35MOL   H235 9143   0.347   6.431   3.441  1.4272  0.7702 -0.1342
   35MOL   C236 9144   0.539   6.370   3.514  0.3321 -0.6254  0.2936
   35MOL   C237 9145   0.630   6.246   3.532 -0.5832 -0.3885  0.4749
   35MOL   C238 9146   0.757   6.226   3.499  0.0515  0.6151  0.7141
   35MOL   C239 9147   0.834   6.321   3.414 -0.3948 -0.0535 -0.1562
   35MOL   C240 9148   0.828   6.104   3.553  0.6113 -0.0706 -0.1986
   35MOL   H241 9149   0.507   6.407   3.611 -0.0764 -2.4731  0.8847
   35MOL   H242 9150   0.604   6.449   3.475 -0.7410  0.0778 -0.0995
   35MOL   H243 9151   0.584   6.166   3.589 -0.1958 -2.2770 -1.8181
   35MOL   H244 9152   0.903   6.383   3.472 -0.1680  0.0500 -0.5356
   35MOL   H245 9153   0.756   6.376   3.361 -2.0237  0.0120  2.2435
   35MOL   H246 9154   0.892   6.260   3.345  0.8946  0.6154  0.3208
   35MOL   H247 9155   0.774   6.053   3.633 -3.2075  1.3117 -1.7840
   35MOL   H248 9156   0.924   6.130   3.599 -0.1734 -0.6079  1.8093
   35MOL   C249 9157   0.860   6.000   3.445  0.8928  0.3477 -0.8470
   35MOL   C250 9158   0.893   5.856   3.490  0.0714  0.5956  0.2117
   35MOL   C251 9159   1.009   5.791   3.474 -0.1542 -0.0848 -0.3910
   35MOL   C252 9160   1.140   5.840   3.414 -0.7323 -0.8297  0.0015
   35MOL   C253 9161   1.022   5.650   3.526  0.8304  0.4136 -0.5159
   35MOL   H254 9162   0.944   6.035   3.385  2.8378 -0.9416  1.0341
   35MOL   H255 9163   0.779   6.000   3.372 -0.8714 -0.7052  1.0520
   35MOL   H256 9164   0.809   5.797   3.524 -0.9094  0.6779 -1.9488
   35MOL   H257 9165   1.156   5.795   3.317 -1.1946 -0.3567 -0.2977
   35MOL   H258 9166   1.231   5.835   3.474 -1.2691 -0.8317  0.8263
   35MOL   H259 9167   1.136   5.948   3.396  1.1102 -0.6739  0.3828
   35MOL   H260 9168   0.936   5.597   3.565  1.2954 -0.0067 -0.0486
   35MOL   H261 9169   1.094   5.661   3.608  0.1291 -1.7284  0.4346
   35MOL   H262 9170   1.063   5.577   3.456  0.7487 -1.6175  1.4829
   36MOL     C1 9171   6.467   5.360   1.916  0.0571 -0.2821 -0.2949
   36MOL     C2 9172   6.331   5.325   1.876  1.1899 -0.0211  0.5671
   36MOL     C3 9173   6.293   5.301   1.746  0.5181  0.3671  0.3348
   36MOL     C4 9174   6.402   5.288   1.634  0.7714  0.5146 -0.7459
   36MOL     C5 9175   6.144   5.280   1.702  0.2489  0.8557  0.1443
   36MOL     H6 9176   6.492   5.458   1.874  2.9117 -0.6234  0.5312
   36MOL     H7 9177   6.475   5.345   2.023 -0.6145 -2.9991 -0.6037
   36MOL     H8 9178   6.252   5.325   1.949  0.0380 -3.2143 -0.6039
   36MOL     H9 9179   6.474   5.370   1.636  1.2519  0.0821  2.6833
   36MOL    H10 9180   6.348   5.306   1.541 -0.1731 -4.3168 -1.2751
   36MOL    H11 9181   6.449   5.191   1.619 -2.0653 -0.8161 -1.4624
   36MOL    H12 9182   6.100   5.374   1.668 -2.6185 -0.4295  0.2269
   36MOL    H13 9183   6.091   5.260   1.795  1.4401  0.0061  0.6445
   36MOL    H14 9184   6.532   5.293   1.860 -0.5879 -0.2929 -1.0371
   36MOL    C15 9185   6.121   5.155   1.602 -0.2361 -0.0362  0.6603
   36MOL    C16 9186   5.973   5.153   1.564 -0.2075  0.6489 -0.5048
   36MOL    C17 9187   5.890   5.047   1.573 -0.6140  0.0751 -0.1529
   36MOL    C18 9188   5.936   4.906   1.618 -0.0810  0.3325 -0.2655
   36MOL    C19 9189   5.750   5.056   1.518  0.7757 -0.2663 -0.1193
   36MOL    H20 9190   6.158   5.056   1.626  1.8361  0.7495  0.8127
   36MOL    H21 9191   6.172   5.185   1.511  0.7868  1.1094  1.6033
   36MOL    H22 9192   5.933   5.248   1.532  0.7070  0.4120 -2.4241
   36MOL    H23 9193   5.990   4.858   1.536 -2.4405 -1.3765 -0.8819
   36MOL    H24 9194   5.850   4.848   1.652  0.4014 -0.0722  0.2909
   36MOL    H25 9195   6.005   4.906   1.702  0.2403 -0.9391 -0.5044
   36MOL    H26 9196   5.689   5.015   1.599  0.0470 -1.4222 -1.2359
   36MOL    H27 9197   5.737   4.994   1.430  1.0457  0.2539 -0.5281
   36MOL    C28 9198   5.700   5.197   1.479 -0.4620  0.2748  0.1250
   36MOL    C29 9199   5.556   5.204   1.439 -0.0280 -0.4397 -0.0017
   36MOL    C30 9200   5.456   5.275   1.491  0.3212 -0.2059  0.1285
   36MOL    C31 9201   5.467   5.363   1.612 -0.3213 -1.0241 -0.1058
   36MOL    C32 9202   5.317   5.267   1.434 -0.1411  0.3150  0.8176
   36MOL    H33 9203   5.745   5.226   1.384  1.9611  0.4358  1.3050
   36MOL    H34 9204   5.725   5.276   1.549  0.0355  0.3574 -0.1471
   36MOL    H35 9205   5.536   5.153   1.346  1.3770 -0.9235 -0.0561
   36MOL    H36 9206   5.382   5.348   1.678  0.6038 -1.6757  0.9417
   36MOL    H37 9207   5.465   5.467   1.580  0.7733 -0.7824  0.5895
   36MOL    H38 9208   5.559   5.364   1.669 -0.3255  0.7188 -0.0992
   36MOL    H39 9209   5.256   5.218   1.510 -0.0860  0.8241  1.1894
   36MOL    H40 9210   5.318   5.204   1.345 -1.1313 -1.5264  2.0678
   36MOL    C41 9211   5.258   5.402   1.399  1.0373 -0.0308 -0.0480
   36MOL    C42 9212   5.110   5.399   1.352  0.6536 -0.1596 -0.2564
   36MOL    C43 9213   5.060   5.473   1.257  0.5577  0.1967 -0.3231
   36MOL    C44 9214   5.141   5.577   1.180 -0.2281 -0.0523  0.4740
   36MOL    C45 9215   4.909   5.472   1.229 -0.1594 -0.7556  0.2260
   36MOL    H46 9216   5.328   5.463   1.342  0.5560  1.0849  0.5393
   36MOL    H47 9217   5.239   5.461   1.488  0.5194  0.9788 -0.8167
   36MOL    H48 9218   5.059   5.327   1.415 -0.1029  0.1825 -0.4747
   36MOL    H49 9219   5.102   5.592   1.079 -0.3751 -1.4553  0.3111
   36MOL    H50 9220   5.244   5.544   1.174 -0.5444 -0.6541 -2.3502
   36MOL    H51 9221   5.140   5.673   1.231 -1.7468  0.8072 -1.1161
   36MOL    H52 9222   4.866   5.570   1.246  0.3308 -0.4124 -0.4884
   36MOL    H53 9223   4.870   5.412   1.312 -0.5976  0.0818  0.6287
   36MOL    C54 9224   4.879   5.403   1.095 -1.1351  0.2966 -0.4530
   36MOL    C55 9225   4.732   5.411   1.066  0.6566  0.2911 -0.0915
   36MOL    C56 9226   4.678   5.475   0.959 -0.1327  0.0193 -0.0029
   36MOL    C57 9227   4.753   5.556   0.859  0.1095 -0.5749  0.1566
   36MOL    C58 9228   4.530   5.481   0.945 -0.8741 -0.5017 -0.0962
   36MOL    H59 9229   4.891   5.295   1.099 -1.2574  0.2771 -0.6177
   36MOL    H60 9230   4.951   5.440   1.023  1.1976 -0.4285  1.4466
   36MOL    H61 9231   4.666   5.373   1.143  0.5226  0.7966  0.0463
   36MOL    H62 9232   4.737   5.658   0.894 -0.0198 -0.1807 -1.0186
   36MOL    H63 9233   4.706   5.539   0.762  1.2151 -0.7197 -0.3570
   36MOL    H64 9234   4.860   5.535   0.856  0.5266  1.3519  0.7117
   36MOL    H65 9235   4.478   5.400   0.996 -3.5015  1.3100  0.2280
   36MOL    H66 9236   4.515   5.461   0.839 -0.6046  0.3323 -0.2940
   36MOL    C67 9237   4.466   5.618   0.960 -0.0662  0.3766 -0.6148
   36MOL    C68 9238   4.326   5.595   0.914 -0.5631 -0.5919  0.0335
   36MOL    C69 9239   4.224   5.604   0.996  0.2369  0.1417  0.2012
   36MOL    C70 9240   4.233   5.632   1.142  0.1436  0.3480  0.2194
   36MOL    C71 9241   4.085   5.569   0.937  0.1812  0.6062  0.3188
   36MOL    H72 9242   4.522   5.696   0.909  0.9619 -0.0108 -0.0914
   36MOL    H73 9243   4.486   5.646   1.064 -2.3505 -2.6847  0.7229
   36MOL    H74 9244   4.305   5.579   0.809 -0.5325  3.6602 -0.7331
   36MOL    H75 9245   4.266   5.548   1.202  1.8568 -0.7977 -2.2557
   36MOL    H76 9246   4.139   5.670   1.184 -0.2424 -0.2917 -0.0619
   36MOL    H77 9247   4.297   5.716   1.169 -0.0159 -0.0685  1.9804
   36MOL    H78 9248   4.068   5.581   0.830 -0.2727  1.2079  0.4530
   36MOL    H79 9249   4.017   5.646   0.973 -0.4090  0.6881 -0.9421
   36MOL    C80 9250   4.038   5.430   0.980  0.6417  0.1267 -0.0943
   36MOL    C81 9251   3.904   5.378   0.916 -0.4587 -0.3994  0.3158
   36MOL    C82 9252   3.817   5.293   0.969 -0.0940 -0.4611  0.1393
   36MOL    C83 9253   3.821   5.232   1.109 -0.3478 -0.0169  0.0417
   36MOL    C84 9254   3.697   5.253   0.888  0.7517 -0.3816  0.0789
   36MOL    H85 9255   4.017   5.432   1.087 -1.2287  1.3800 -0.4515
   36MOL    H86 9256   4.123   5.365   0.961  0.7285  0.5953 -1.3821
   36MOL    H87 9257   3.888   5.425   0.820  1.4220  1.7819  1.0031
   36MOL    H88 9258   3.750   5.295   1.163 -0.9949  1.2150 -2.1859
   36MOL    H89 9259   3.920   5.233   1.156 -0.0687 -0.4575 -0.5445
   36MOL    H90 9260   3.784   5.130   1.104 -1.0352 -0.0051  3.2502
   36MOL    H91 9261   3.715   5.148   0.865  0.3119 -0.4597  0.0858
   36MOL    H92 9262   3.686   5.331   0.814  0.0493 -0.4454  0.1217
   36MOL    C93 9263   3.564   5.247   0.968 -0.1114  0.3501 -0.7361
   36MOL    C94 9264   3.452   5.227   0.874  0.0402 -0.3177  0.2587
   36MOL    C95 9265   3.323   5.255   0.893  0.2637 -0.4331 -0.6152
   36MOL    C96 9266   3.257   5.301   1.024 -0.0984 -0.9451  0.2677
   36MOL    C97 9267   3.235   5.241   0.778 -0.0399  0.2194  0.9520
   36MOL    H98 9268   3.550   5.347   1.008  1.3385  1.1563 -2.2091
   36MOL    H99 9269   3.553   5.173   1.047 -2.0750  0.0394 -1.2697
   36MOL   H100 9270   3.472   5.194   0.773 -1.1279 -0.2627  0.0035
   36MOL   H101 9271   3.195   5.225   1.072 -0.0332 -2.3107 -1.7298
   36MOL   H102 9272   3.200   5.390   0.998 -0.6176 -1.3778 -0.0841
   36MOL   H103 9273   3.325   5.335   1.101 -2.3033 -1.1680  2.3736
   36MOL   H104 9274   3.288   5.244   0.683 -1.6549 -0.0342  0.0150
   36MOL   H105 9275   3.176   5.332   0.766  0.2286  0.2514 -0.1286
   36MOL   C106 9276   3.144   5.114   0.777  0.1110 -0.0982 -1.1068
   36MOL   C107 9277   3.083   5.105   0.639  0.2708  0.7139  0.4593
   36MOL   C108 9278   2.954   5.115   0.607 -0.0363 -0.4379  0.3625
   36MOL   C109 9279   2.838   5.149   0.706  0.0887 -0.4250 -0.2611
   36MOL   C110 9280   2.913   5.121   0.461  0.3032  0.1781  0.4882
   36MOL   H111 9281   3.074   5.119   0.860  2.1088  1.1650  0.5642
   36MOL   H112 9282   3.191   5.018   0.797 -1.7972 -0.8948 -0.3273
   36MOL   H113 9283   3.151   5.079   0.560 -0.4438 -0.1579  0.1314
   36MOL   H114 9284   2.847   5.120   0.811  1.1417 -0.7940 -0.4464
   36MOL   H115 9285   2.747   5.095   0.681 -0.7038  0.6305  0.3005
   36MOL   H116 9286   2.821   5.257   0.709  0.1493 -0.4568  2.3476
   36MOL   H117 9287   3.003   5.112   0.400  0.7639  0.6840  1.0817
   36MOL   H118 9288   2.847   5.201   0.429 -2.8971 -2.8462 -0.7694
   36MOL   C119 9289   2.839   4.998   0.419  0.3881  0.3532 -0.6455
   36MOL   C120 9290   2.804   4.980   0.269  0.0272 -0.3461 -0.2358
   36MOL   C121 9291   2.696   5.017   0.196  0.1352  0.4627  0.3025
   36MOL   C122 9292   2.569   5.073   0.258  0.4483  0.1657  0.1655
   36MOL   C123 9293   2.688   4.979   0.054  0.0840 -0.7603  0.4533
   36MOL   H124 9294   2.744   4.985   0.471 -0.6038  0.5499 -2.3904
   36MOL   H125 9295   2.894   4.911   0.454  1.0850  1.6400  1.6074
   36MOL   H126 9296   2.873   4.928   0.204 -1.5439 -0.0944 -2.1470
   36MOL   H127 9297   2.534   5.159   0.202 -0.7046 -0.3790  0.0287
   36MOL   H128 9298   2.590   5.110   0.358 -0.6948  1.0695  0.0753
   36MOL   H129 9299   2.502   4.987   0.266 -0.9946  1.1835 -0.7379
   36MOL   H130 9300   2.616   4.898   0.044 -1.8780  0.8604  0.9565
   36MOL   H131 9301   2.783   4.948   0.011 -0.8995 -0.7886 -1.7704
   36MOL   C132 9302   2.651   5.102   7.852  0.2435 -1.2458 -0.3730
   36MOL   C133 9303   2.649   5.066   7.700 -0.0948 -0.5032  0.1258
   36MOL   C134 9304   2.717   5.128   7.604 -0.2284  0.1208  0.3446
   36MOL   C135 9305   2.817   5.238   7.622  0.0705 -0.4173 -0.4331
   36MOL   C136 9306   2.701   5.092   7.458 -0.2724 -0.7641 -0.1644
   36MOL   H137 9307   2.727   5.177   7.873 -0.3459 -0.4859 -0.9468
   36MOL   H138 9308   2.558   5.149   0.002  2.1267  1.8108  0.7711
   36MOL   H139 9309   2.581   4.987   7.671 -0.9882  0.4519 -0.4197
   36MOL   H140 9310   2.906   5.231   7.560  1.3292 -0.6529  1.3830
   36MOL   H141 9311   2.858   5.223   7.722  0.7310  0.0034 -0.6406
   36MOL   H142 9312   2.774   5.337   7.605 -1.5098 -0.9435  0.3411
   36MOL   H143 9313   2.804   5.086   7.423 -0.0721 -1.3985  0.5282
   36MOL   H144 9314   2.658   5.180   7.411  1.8250 -0.0309 -0.7815
   36MOL   C145 9315   2.632   4.955   7.425  0.0695 -0.8061 -0.2405
   36MOL   C146 9316   2.658   4.898   7.285 -0.2593  0.5368 -0.6013
   36MOL   C147 9317   2.562   4.871   7.191 -0.3262  0.3951 -0.2184
   36MOL   C148 9318   2.421   4.883   7.244  0.1877  0.3626  0.6507
   36MOL   C149 9319   2.582   4.832   7.047 -0.3430 -0.0154 -0.0601
   36MOL   H150 9320   2.526   4.962   7.446 -0.1785 -2.0719 -1.0243
   36MOL   H151 9321   2.667   4.877   7.493  1.3173  1.1817  1.4527
   36MOL   H152 9322   2.766   4.888   7.282 -0.3213 -0.8046  0.9698
   36MOL   H153 9323   2.377   4.978   7.213  0.3107 -0.0023 -0.6806
   36MOL   H154 9324   2.399   4.850   7.345  0.0703  0.1631  0.5616
   36MOL   H155 9325   2.361   4.805   7.196  0.0620  0.6846  0.2769
   36MOL   H156 9326   2.525   4.895   6.978 -0.4455  0.5225  0.5074
   36MOL   H157 9327   2.541   4.734   7.023 -0.5156  0.3489 -1.2728
   36MOL   C158 9328   2.729   4.837   7.011  0.2506 -0.4288  1.5242
   36MOL   C159 9329   2.757   4.810   6.868  0.4062  0.0330  0.2755
   36MOL   C160 9330   2.751   4.694   6.795  0.1304  0.0880  0.2113
   36MOL   C161 9331   2.707   4.558   6.839 -0.7241  0.0435  0.1715
   36MOL   C162 9332   2.807   4.702   6.651  1.1345 -0.1273  0.1464
   36MOL   H163 9333   2.783   4.761   7.067  0.8224 -0.8586  0.3974
   36MOL   H164 9334   2.766   4.938   7.030 -1.8027  0.5129  0.6755
   36MOL   H165 9335   2.801   4.898   6.825  0.2333  0.5399  1.1236
   36MOL   H166 9336   2.794   4.517   6.889  1.2270  1.9339 -1.5534
   36MOL   H167 9337   2.677   4.492   6.757  0.3763 -2.0337  1.4144
   36MOL   H168 9338   2.623   4.577   6.906  0.4057  2.7261  0.8950
   36MOL   H169 9339   2.809   4.802   6.608  2.0996  0.0634  0.6135
   36MOL   H170 9340   2.735   4.646   6.591 -0.7537  1.0328  1.2976
   36MOL   C171 9341   2.940   4.644   6.640  0.4410 -0.3223  0.1045
   36MOL   C172 9342   2.993   4.631   6.497 -0.3708  0.0666 -0.2725
   36MOL   C173 9343   3.114   4.676   6.451  0.1586  0.0347 -0.1713
   36MOL   C174 9344   3.210   4.758   6.537 -0.1446  0.9202  0.2317
   36MOL   C175 9345   3.158   4.639   6.314  0.0506 -0.2035 -1.0006
   36MOL   H176 9346   2.948   4.541   6.673 -0.0458  0.5890  3.2040
   36MOL   H177 9347   2.999   4.714   6.699 -0.3377  0.7625 -0.3639
   36MOL   H178 9348   2.933   4.556   6.448 -0.6963  0.4010 -0.3864
   36MOL   H179 9349   3.265   4.828   6.474  0.5959 -0.6782 -0.9506
   36MOL   H180 9350   3.294   4.703   6.580 -2.6266 -0.4922  3.4742
   36MOL   H181 9351   3.166   4.813   6.620  2.9234 -0.1492  2.6936
   36MOL   H182 9352   3.179   4.725   6.251  2.1119  0.8842  1.0652
   36MOL   H183 9353   3.077   4.590   6.261 -0.3170 -3.0737  2.0327
   36MOL   C184 9354   3.279   4.557   6.329  0.2960 -0.7488  0.3806
   36MOL   C185 9355   3.318   4.504   6.197  0.0429  0.0180  0.5138
   36MOL   C186 9356   3.292   4.382   6.151  0.0412  0.3028  0.0211
   36MOL   C187 9357   3.223   4.269   6.230 -0.2882  0.0747  0.1475
   36MOL   C188 9358   3.329   4.337   6.010  0.3355 -0.0988  0.1782
   36MOL   H189 9359   3.262   4.475   6.399  1.0032 -0.8051  0.4944
   36MOL   H190 9360   3.369   4.607   6.365  0.0103 -0.2663  0.4293
   36MOL   H191 9361   3.364   4.580   6.135 -2.2615 -0.5616 -1.9847
   36MOL   H192 9362   3.160   4.303   6.312 -0.7251  1.2415 -0.6599
   36MOL   H193 9363   3.293   4.194   6.266 -0.0422  0.4631  0.4834
   36MOL   H194 9364   3.153   4.206   6.174 -0.3676 -0.4709  0.8531
   36MOL   H195 9365   3.368   4.420   5.952  1.8104 -2.0324 -1.7034
   36MOL   H196 9366   3.242   4.291   5.963 -1.5914  0.0843  3.4236
   36MOL   C197 9367   3.451   4.233   6.006  0.8563  0.4050 -0.9493
   36MOL   C198 9368   3.489   4.185   5.872 -0.1823  0.1388  0.4114
   36MOL   C199 9369   3.612   4.148   5.825  0.0359  1.0093 -0.3493
   36MOL   C200 9370   3.737   4.139   5.914  0.1246 -0.3083 -0.1249
   36MOL   C201 9371   3.623   4.084   5.686 -0.4673 -0.2381  0.2254
   36MOL   H202 9372   3.407   4.142   6.048  0.1407  0.4833 -1.5146
   36MOL   H203 9373   3.537   4.261   6.067  1.0078 -0.5762 -0.6936
   36MOL   H204 9374   3.406   4.175   5.803 -0.2463 -0.7592  0.6190
   36MOL   H205 9375   3.711   4.168   6.016 -1.9730  0.6584 -0.9209
   36MOL   H206 9376   3.806   4.214   5.875 -2.9297  2.8125  0.2733
   36MOL   H207 9377   3.780   4.039   5.917 -2.3922 -1.4288  0.0227
   36MOL   H208 9378   3.521   4.067   5.653 -0.9150  0.7418  1.0800
   36MOL   H209 9379   3.673   3.989   5.701 -0.9384 -0.8707 -2.0297
   36MOL   C210 9380   3.703   4.166   5.590 -0.3129 -0.8254  0.7785
   36MOL   C211 9381   3.752   4.081   5.478 -0.3833 -0.4216 -0.0863
   36MOL   C212 9382   3.875   4.020   5.464 -0.2736 -0.0110 -0.1505
   36MOL   C213 9383   3.988   4.031   5.560  0.0248 -0.5555 -0.1913
   36MOL   C214 9384   3.925   3.934   5.351 -0.4355  0.2225  0.3020
   36MOL   H215 9385   3.790   4.216   5.633  0.7768 -2.9052  1.0622
   36MOL   H216 9386   3.635   4.243   5.551  1.8925  2.1461  2.5684
   36MOL   H217 9387   3.673   4.081   5.404  1.2316 -1.2760 -1.8725
   36MOL   H218 9388   3.970   4.101   5.642 -1.9787  0.1073 -1.1558
   36MOL   H219 9389   4.067   4.077   5.501  0.0124 -0.0262  0.1991
   36MOL   H220 9390   4.017   3.934   5.601 -1.0613 -0.4292  0.9076
   36MOL   H221 9391   3.841   3.869   5.324  0.0734 -0.8814  1.3330
   36MOL   H222 9392   4.001   3.860   5.377 -2.0862 -1.7218 -0.2792
   36MOL   C223 9393   3.964   4.025   5.237 -0.1701  0.1161 -0.2504
   36MOL   C224 9394   4.026   3.950   5.121 -0.1210  0.1434 -0.1050
   36MOL   C225 9395   4.133   3.977   5.044 -0.3219 -0.9716  0.5705
   36MOL   C226 9396   4.222   4.095   5.053 -0.4137 -0.0179  0.1401
   36MOL   C227 9397   4.142   3.900   4.911 -0.3910  0.3096 -0.3823
   36MOL   H228 9398   4.029   4.105   5.275 -1.2000  1.7564 -1.8447
   36MOL   H229 9399   3.882   4.084   5.197  0.1917 -0.3232 -1.6661
   36MOL   H230 9400   3.960   3.869   5.094  1.5033 -0.7653 -1.4757
   36MOL   H231 9401   4.181   4.169   4.985 -0.1751 -0.0592 -0.0450
   36MOL   H232 9402   4.325   4.073   5.026  0.3531 -0.9381  3.5020
   36MOL   H233 9403   4.213   4.132   5.155  3.2927 -3.1258  1.7439
   36MOL   H234 9404   4.181   3.968   4.835  2.1246  0.1798  0.7513
   36MOL   H235 9405   4.044   3.863   4.881 -0.3559 -0.5854  0.5798
   36MOL   C236 9406   4.237   3.776   4.919 -0.2219 -0.5134 -0.2549
   36MOL   C237 9407   4.180   3.659   4.997 -0.0643 -0.0762  0.5096
   36MOL   C238 9408   4.174   3.527   4.970  0.2615 -0.7849 -0.3428
   36MOL   C239 9409   4.226   3.472   4.848 -0.4068  0.1786 -0.5301
   36MOL   C240 9410   4.120   3.426   5.060 -0.3575  0.7460 -0.1048
   36MOL   H241 9411   4.333   3.807   4.962 -0.0595 -0.9232 -0.3213
   36MOL   H242 9412   4.272   3.746   4.821 -0.5578  0.5779 -0.7127
   36MOL   H243 9413   4.135   3.687   5.092 -3.1018 -1.2495 -0.5324
   36MOL   H244 9414   4.247   3.546   4.772 -0.8952 -0.1484 -0.9874
   36MOL   H245 9415   4.144   3.415   4.804  0.0458 -1.7085  1.0196
   36MOL   H246 9416   4.313   3.407   4.856 -0.2572  0.5693  1.3129
   36MOL   H247 9417   4.029   3.381   5.021  1.1836 -2.1973 -0.4797
   36MOL   H248 9418   4.088   3.474   5.153  0.2851  0.4452  0.2757
   36MOL   C249 9419   4.224   3.325   5.110 -0.3038 -0.0420  0.8171
   36MOL   C250 9420   4.172   3.239   5.227 -0.0143  0.3355  0.6532
   36MOL   C251 9421   4.242   3.208   5.340 -0.5588 -0.2587  0.3904
   36MOL   C252 9422   4.388   3.243   5.372 -0.8794  0.2375 -0.3546
   36MOL   C253 9423   4.194   3.111   5.442 -0.4999 -0.0930  0.3497
   36MOL   H254 9424   4.303   3.392   5.143  0.2318 -0.7570  0.9951
   36MOL   H255 9425   4.260   3.249   5.041  0.8830  0.1882  1.1696
   36MOL   H256 9426   4.072   3.198   5.220  0.3774 -0.7024  1.1068
   36MOL   H257 9427   4.388   3.321   5.448  0.5971 -1.7937  1.7860
   36MOL   H258 9428   4.461   3.263   5.294  1.9372 -0.8167  1.9244
   36MOL   H259 9429   4.435   3.151   5.406 -2.4283 -0.2046  0.6634
   36MOL   H260 9430   4.175   3.169   5.532 -1.0140  1.7766 -0.9286
   36MOL   H261 9431   4.274   3.040   5.462  0.3769  0.7937  0.0654
   36MOL   H262 9432   4.108   3.052   5.410  0.2694 -0.3122 -1.3381
   37MOL     C1 9433   6.962   2.654   5.404  1.0706  0.2153 -0.4481
   37MOL     C2 9434   6.960   2.606   5.549  0.6108  0.1201 -0.1283
   37MOL     C3 9435   6.917   2.677   5.651 -0.1333 -0.2913  0.5155
   37MOL     C4 9436   6.864   2.816   5.649  0.6214 -0.1213  0.3485
   37MOL     C5 9437   6.920   2.622   5.792  0.4995 -0.9358 -0.7160
   37MOL     H6 9438   7.047   2.718   5.383  0.2261  1.3100 -0.6240
   37MOL     H7 9439   6.966   2.564   5.342 -0.2625  1.5545 -2.5756
   37MOL     H8 9440   6.995   2.505   5.561  1.1376  0.4335  1.0025
   37MOL     H9 9441   6.912   2.873   5.569  2.6691  0.0466  1.6554
   37MOL    H10 9442   6.895   2.881   5.731 -2.2627 -1.5038  2.6283
   37MOL    H11 9443   6.755   2.813   5.653  0.4790 -1.1910 -3.0416
   37MOL    H12 9444   6.954   2.519   5.776  1.9137 -0.3986 -1.1729
   37MOL    H13 9445   6.815   2.608   5.820  0.3132 -1.4963 -1.6535
   37MOL    H14 9446   6.872   2.711   5.380  1.2945  0.3173 -1.0549
   37MOL    C15 9447   7.003   2.690   5.899  0.4687  0.0189 -0.6975
   37MOL    C16 9448   7.023   2.595   6.025 -0.1996  0.0228 -0.2766
   37MOL    C17 9449   6.951   2.585   6.138 -0.0403 -0.3180  0.4461
   37MOL    C18 9450   6.845   2.689   6.172  0.2143 -0.7746  0.1552
   37MOL    C19 9451   6.966   2.485   6.255  0.0841  0.1299 -0.4832
   37MOL    H20 9452   6.956   2.786   5.917  1.3480  0.6282 -1.6532
   37MOL    H21 9453   7.107   2.707   5.870  0.9222  1.3036  1.5370
   37MOL    H22 9454   7.099   2.521   6.007  1.0500  0.8391  1.4923
   37MOL    H23 9455   6.747   2.641   6.167 -0.8290  1.1545  1.7845
   37MOL    H24 9456   6.848   2.778   6.109  0.5214 -0.8258  0.0924
   37MOL    H25 9457   6.850   2.731   6.272  0.4869  0.7983 -0.5130
   37MOL    H26 9458   7.040   2.415   6.216 -0.1152 -0.4577  0.2045
   37MOL    H27 9459   6.868   2.443   6.277 -0.3450  1.1349 -0.4798
   37MOL    C28 9460   7.038   2.562   6.372  0.2507  1.2409 -0.3622
   37MOL    C29 9461   7.055   2.459   6.484  0.0670 -0.3575 -0.4511
   37MOL    C30 9462   7.166   2.386   6.506  0.0915 -0.3168  0.5013
   37MOL    C31 9463   7.296   2.421   6.446  0.2046  0.7500 -0.1928
   37MOL    C32 9464   7.166   2.264   6.594  0.0719  0.3443  0.9316
   37MOL    H33 9465   6.984   2.649   6.407  2.6297  2.8556 -0.5939
   37MOL    H34 9466   7.132   2.613   6.348  0.2125  1.0042 -1.0196
   37MOL    H35 9467   6.958   2.433   6.524  0.5599 -1.0222  0.3315
   37MOL    H36 9468   7.336   2.325   6.413 -0.0113  0.4112  0.5191
   37MOL    H37 9469   7.366   2.470   6.515  0.4277 -3.2351  2.5724
   37MOL    H38 9470   7.292   2.479   6.354  1.3813 -0.2942 -0.9161
   37MOL    H39 9471   7.214   2.294   6.687  0.0774  1.7988  0.4682
   37MOL    H40 9472   7.237   2.193   6.550 -1.0685  0.4226 -1.0972
   37MOL    C41 9473   7.024   2.203   6.618 -0.2457  0.4589 -0.3951
   37MOL    C42 9474   6.971   2.118   6.499  0.4614  0.4305  0.8328
   37MOL    C43 9475   6.849   2.075   6.477 -0.6859 -0.2674 -0.3870
   37MOL    C44 9476   6.738   2.100   6.575 -0.2513  0.3540  0.2736
   37MOL    C45 9477   6.816   2.008   6.347 -0.7827 -0.4834 -0.3395
   37MOL    H46 9478   6.944   2.274   6.642 -0.0896  0.3604  0.4435
   37MOL    H47 9479   7.029   2.138   6.705  0.0110  1.3666  0.2712
   37MOL    H48 9480   7.052   2.100   6.429  0.2162  0.2880  0.5852
   37MOL    H49 9481   6.768   2.068   6.675 -0.4743 -0.9611 -0.0680
   37MOL    H50 9482   6.648   2.056   6.532  1.1642 -2.5628  0.1899
   37MOL    H51 9483   6.716   2.207   6.567  1.8061  0.6183 -2.2886
   37MOL    H52 9484   6.905   2.017   6.284  0.6221 -1.6245  1.4377
   37MOL    H53 9485   6.735   2.062   6.299 -2.1003  0.0212  2.3371
   37MOL    C54 9486   6.782   1.853   6.365  0.1912  0.0510 -0.2357
   37MOL    C55 9487   6.784   1.779   6.233  0.7062 -0.3839  0.4104
   37MOL    C56 9488   6.835   1.660   6.206 -0.3883 -0.3836 -1.0564
   37MOL    C57 9489   6.905   1.576   6.308  0.3196 -0.2179 -0.4422
   37MOL    C58 9490   6.810   1.588   6.073 -0.4622 -0.1702 -0.6959
   37MOL    H59 9491   6.686   1.832   6.412 -0.8505  2.0137 -1.4067
   37MOL    H60 9492   6.853   1.804   6.432  0.1721  0.7670  0.3211
   37MOL    H61 9493   6.723   1.828   6.159  2.6871  0.8299 -0.4756
   37MOL    H62 9494   6.865   1.475   6.295  0.9218 -0.2092 -2.5184
   37MOL    H63 9495   6.892   1.608   6.412 -1.7022 -0.1200 -0.7081
   37MOL    H64 9496   7.011   1.557   6.288  0.3883  0.5856 -0.8500
   37MOL    H65 9497   6.763   1.666   6.013  0.8376  0.4472 -0.9145
   37MOL    H66 9498   6.731   1.513   6.076  2.0360 -2.8792 -0.0019
   37MOL    C67 9499   6.941   1.534   6.015  0.1139  0.3212  1.0030
   37MOL    C68 9500   6.931   1.498   5.870  0.1336 -0.6453 -0.3452
   37MOL    C69 9501   7.001   1.407   5.798  0.2748  0.5957  0.2793
   37MOL    C70 9502   7.097   1.309   5.858  0.3415 -0.5031 -0.0808
   37MOL    C71 9503   6.986   1.402   5.648  0.4303  0.3540  0.7427
   37MOL    H72 9504   6.974   1.450   6.077  0.2849  0.0135  0.4954
   37MOL    H73 9505   7.021   1.607   6.013  2.1940 -1.9035 -0.3324
   37MOL    H74 9506   6.872   1.568   5.813  0.8498 -0.1324 -0.4610
   37MOL    H75 9507   7.056   1.210   5.840  1.5943 -1.1639  0.6646
   37MOL    H76 9508   7.116   1.335   5.962  2.0665 -1.8893 -0.0401
   37MOL    H77 9509   7.191   1.308   5.804  0.5552  0.4561  0.2661
   37MOL    H78 9510   7.088   1.417   5.613 -1.1510  3.1734 -3.0940
   37MOL    H79 9511   6.920   1.484   5.617 -0.6154 -1.2168 -1.2880
   37MOL    C80 9512   6.902   1.285   5.597 -0.0140  0.3746 -0.0915
   37MOL    C81 9513   6.904   1.278   5.447 -0.4388 -0.4076 -0.1366
   37MOL    C82 9514   6.818   1.332   5.361  0.6601  0.3816 -0.5114
   37MOL    C83 9515   6.707   1.428   5.407 -0.0871  0.4994  0.2357
   37MOL    C84 9516   6.831   1.313   5.211  0.8974  0.2072 -0.3528
   37MOL    H85 9517   6.802   1.300   5.636  0.1598 -0.2898  0.6288
   37MOL    H86 9518   6.927   1.190   5.646  0.7162  0.6150  0.0181
   37MOL    H87 9519   6.977   1.209   5.407 -2.5096 -2.2793 -0.7479
   37MOL    H88 9520   6.724   1.525   5.360  0.1188  0.9953  1.3273
   37MOL    H89 9521   6.697   1.446   5.514 -0.0119 -1.4468  0.5934
   37MOL    H90 9522   6.616   1.394   5.358 -1.1969  3.7790 -0.0688
   37MOL    H91 9523   6.854   1.406   5.159  0.2974  0.6235  0.1274
   37MOL    H92 9524   6.727   1.294   5.183  0.1689  1.5897  1.3217
   37MOL    C93 9525   6.909   1.192   5.153 -0.4759 -0.4058 -0.1115
   37MOL    C94 9526   6.877   1.156   5.007  0.2636 -0.6913 -0.3186
   37MOL    C95 9527   6.955   1.171   4.900  0.1162 -0.6925  0.0408
   37MOL    C96 9528   7.093   1.239   4.897  0.7093  0.8911 -0.1357
   37MOL    C97 9529   6.908   1.119   4.769 -0.5461  0.7891 -0.2892
   37MOL    H98 9530   6.905   1.109   5.224  2.9441 -0.0030  0.6151
   37MOL    H99 9531   7.015   1.218   5.152 -0.2234 -1.4431 -0.7094
   37MOL   H100 9532   6.787   1.101   4.989 -2.6591  3.2391  1.4652
   37MOL   H101 9533   7.173   1.166   4.883 -1.4857 -1.7784  0.8710
   37MOL   H102 9534   7.114   1.286   4.993  1.5196  0.7091 -0.2138
   37MOL   H103 9535   7.096   1.312   4.816  0.2258  0.2516 -0.7389
   37MOL   H104 9536   6.895   1.198   4.695 -0.5999  1.3497  0.3177
   37MOL   H105 9537   6.809   1.074   4.780 -0.7596  0.9118 -1.6451
   37MOL   C106 9538   7.005   1.025   4.699  0.3555  0.3209  0.6900
   37MOL   C107 9539   6.940   0.970   4.570 -0.4333 -0.5017 -0.2775
   37MOL   C108 9540   6.986   0.969   4.443  0.6240 -0.0277  0.7523
   37MOL   C109 9541   7.121   1.023   4.402 -0.3281 -0.0300 -0.8549
   37MOL   C110 9542   6.900   0.911   4.328 -0.3866  0.1175 -1.0572
   37MOL   H111 9543   7.020   0.941   4.766 -1.4269 -1.3267 -0.9202
   37MOL   H112 9544   7.102   1.073   4.684 -0.6100  2.3333  0.7055
   37MOL   H113 9545   6.851   0.915   4.595  0.1316 -0.5198  1.7710
   37MOL   H114 9546   7.163   1.093   4.475  0.2425 -2.8674  1.6765
   37MOL   H115 9547   7.118   1.068   4.303  3.0522  0.3092 -0.8764
   37MOL   H116 9548   7.195   0.943   4.396 -1.6762 -1.6922  3.0580
   37MOL   H117 9549   6.903   0.985   4.248  0.2850  0.1386 -1.0073
   37MOL   H118 9550   6.799   0.910   4.370  0.1497  0.2303  0.2617
   37MOL   C119 9551   6.944   0.772   4.284  0.1390 -0.3562  0.2051
   37MOL   C120 9552   6.893   0.749   4.139 -0.8676  0.2658 -0.0234
   37MOL   C121 9553   6.827   0.636   4.095 -0.3579 -0.0910  0.2802
   37MOL   C122 9554   6.833   0.509   4.175  0.1817  0.9825  0.1812
   37MOL   C123 9555   6.775   0.616   3.958 -0.1937 -0.2753 -0.2303
   37MOL   H124 9556   6.908   0.691   4.347 -0.6202 -0.5156 -0.4132
   37MOL   H125 9557   7.052   0.758   4.289  0.3439  0.6389 -1.2733
   37MOL   H126 9558   6.908   0.839   4.082  3.2604  0.0514  0.4978
   37MOL   H127 9559   6.940   0.488   4.179  0.1837  0.7641 -0.9106
   37MOL   H128 9560   6.779   0.422   4.138  0.3951  0.5990  0.7606
   37MOL   H129 9561   6.774   0.518   4.266 -2.0441  1.1276 -1.2623
   37MOL   H130 9562   6.751   0.717   3.922 -1.6409 -0.1346  1.0589
   37MOL   H131 9563   6.672   0.583   3.972  0.5174 -2.3780  0.1041
   37MOL   C132 9564   6.869   0.546   3.859  0.1830  0.0441 -0.1783
   37MOL   C133 9565   6.787   0.507   3.734  0.6540 -0.0941 -0.4926
   37MOL   C134 9566   6.705   0.395   3.732 -0.0804  0.3673 -0.2318
   37MOL   C135 9567   6.690   0.297   3.851 -0.3580  0.1030 -0.2971
   37MOL   C136 9568   6.646   0.354   3.601  0.1141  0.4179  0.0169
   37MOL   H137 9569   6.909   0.453   3.900  0.8409  0.0110 -0.8932
   37MOL   H138 9570   6.957   0.607   3.837  0.0068  0.6705  0.8146
   37MOL   H139 9571   6.803   0.566   3.645 -0.1376 -0.2331 -0.7249
   37MOL   H140 9572   6.602   0.234   3.840 -0.3262  0.3252 -1.8101
   37MOL   H141 9573   6.674   0.351   3.945 -0.3232 -3.1421  1.6646
   37MOL   H142 9574   6.780   0.235   3.856  0.0472  0.6748 -0.4167
   37MOL   H143 9575   6.652   0.434   3.527  0.3540  0.3441 -0.0462
   37MOL   H144 9576   6.542   0.339   3.628  0.6982 -1.9534  1.0450
   37MOL   C145 9577   6.710   0.230   3.537  0.4470  0.4263 -0.4355
   37MOL   C146 9578   6.648   0.205   3.396 -0.0950  0.0499  0.5027
   37MOL   C147 9579   6.695   0.258   3.281  0.2561  0.3301  0.3623
   37MOL   C148 9580   6.800   0.363   3.275  0.2958 -0.5526  0.1065
   37MOL   C149 9581   6.642   0.230   3.142 -0.1489  0.0283  0.7275
   37MOL   H150 9582   6.679   0.147   3.600 -1.6733 -0.2736 -2.3003
   37MOL   H151 9583   6.819   0.229   3.532  0.4533 -0.2460 -0.1932
   37MOL   H152 9584   6.574   0.127   3.398  1.4895 -1.4980  0.6051
   37MOL   H153 9585   6.742   0.449   3.309 -0.3875 -1.1511  0.4519
   37MOL   H154 9586   6.834   0.382   3.173  0.0794 -2.9109 -0.4296
   37MOL   H155 9587   6.891   0.347   3.333  1.9270 -0.3810 -2.3506
   37MOL   H156 9588   6.728   0.236   3.076 -1.3863 -0.0306 -0.9228
   37MOL   H157 9589   6.563   0.297   3.107  0.1604  0.0922  0.1521
   37MOL   C158 9590   6.588   0.090   3.130  0.8639 -0.0301 -0.0048
   37MOL   C159 9591   6.596   0.058   2.984 -0.3918 -0.3028 -0.4117
   37MOL   C160 9592   6.634   7.825   2.926 -0.1414  0.1290  0.6451
   37MOL   C161 9593   6.675   7.694   3.004 -0.3042  0.0523 -0.4941
   37MOL   C162 9594   6.655   7.811   2.771  0.3172 -0.1184 -0.6126
   37MOL   H163 9595   6.487   0.098   3.170  0.4764  0.7443 -1.1123
   37MOL   H164 9596   6.637   0.021   3.199  1.9244  0.9303  0.2123
   37MOL   H165 9597   6.569   0.144   2.925 -1.0520  0.7289  1.3604
   37MOL   H166 9598   6.766   7.644   2.970  0.2745  0.6982  0.0889
   37MOL   H167 9599   6.594   7.622   3.008 -3.1524  3.1438 -0.2214
   37MOL   H168 9600   6.688   7.722   3.108  0.2625 -3.1886  0.3381
   37MOL   H169 9601   6.573   7.752   2.728 -0.9815  1.0674  0.2003
   37MOL   H170 9602   6.745   7.750   2.765  0.0979 -0.3050 -2.2772
   37MOL   C171 9603   6.679   0.067   2.707  0.3338  1.3392 -0.2864
   37MOL   C172 9604   6.718   0.054   2.560 -0.1512 -0.0505  0.1819
   37MOL   C173 9605   6.772   0.151   2.483  0.7017  0.3391 -0.6084
   37MOL   C174 9606   6.793   0.290   2.529 -0.0231 -0.6684  0.0469
   37MOL   C175 9607   6.812   0.121   2.338  0.3700  0.2133 -0.0096
   37MOL   H176 9608   6.746   0.125   2.771 -0.2719  2.5773 -0.7584
   37MOL   H177 9609   6.586   0.122   2.697  0.1944  0.8439 -1.9292
   37MOL   H178 9610   6.710   7.837   2.518 -0.8476 -0.2142  0.7057
   37MOL   H179 9611   6.762   0.354   2.446  3.5095 -1.2129 -1.7824
   37MOL   H180 9612   6.891   0.295   2.575  0.2029  0.2923 -0.5280
   37MOL   H181 9613   6.725   0.321   2.608 -0.1658 -0.2164 -0.2482
   37MOL   H182 9614   6.790   0.215   2.287  3.7094  0.6722 -0.7208
   37MOL   H183 9615   6.743   0.054   2.286 -0.1019 -0.4293  1.4035
   37MOL   C184 9616   6.953   0.067   2.317 -0.0842  0.6040  0.3100
   37MOL   C185 9617   7.013   7.863   2.426  0.4476 -0.0583  0.2115
   37MOL   C186 9618   7.112   0.012   2.514 -0.6054  0.1277  0.5843
   37MOL   C187 9619   7.195   0.143   2.507  0.6648 -0.3133 -0.3710
   37MOL   C188 9620   7.169   7.795   2.614 -0.3717 -0.0665  0.4008
   37MOL   H189 9621   7.011   0.158   2.303  1.1710 -0.3774 -0.9031
   37MOL   H190 9622   6.957   7.877   2.236  1.8995 -1.7102  2.3912
   37MOL   H191 9623   6.962   7.769   2.440  1.7423 -0.6745  0.8136
   37MOL   H192 9624   7.292   0.134   2.555  0.8582  1.5868 -0.3763
   37MOL   H193 9625   7.137   0.228   2.543  2.0463  1.5139 -2.3120
   37MOL   H194 9626   7.225   0.170   2.406 -3.1935  1.7640 -1.0589
   37MOL   H195 9627   7.213   7.845   2.701  0.3408 -0.9808  0.5746
   37MOL   H196 9628   7.259   7.742   2.583 -0.1959  0.1413  0.5562
   37MOL   C197 9629   7.069   7.702   2.676 -0.0344  0.0179  0.1156
   37MOL   C198 9630   7.104   7.630   2.800  0.0138  0.3773  0.0252
   37MOL   C199 9631   7.125   7.497   2.813 -0.7318 -0.6550  0.4246
   37MOL   C200 9632   7.123   7.395   2.700  0.7016  0.2098  0.5345
   37MOL   C201 9633   7.180   7.441   2.943 -0.4809 -0.6380  0.3348
   37MOL   H202 9634   7.027   7.631   2.604  0.8860 -2.3534  1.8358
   37MOL   H203 9635   6.990   7.771   2.705  0.3814  1.0892 -1.2642
   37MOL   H204 9636   7.131   7.698   2.879 -0.2257  0.7089 -0.1765
   37MOL   H205 9637   7.109   7.430   2.598 -0.3472  0.5180  0.7781
   37MOL   H206 9638   7.035   7.332   2.712 -0.5063  1.8941  0.7342
   37MOL   H207 9639   7.221   7.347   2.701  0.5063 -0.1909  0.3238
   37MOL   H208 9640   7.195   7.518   3.018 -0.2636  0.5595 -0.9270
   37MOL   H209 9641   7.276   7.392   2.924 -0.9529 -1.8957  1.1279
   37MOL   C210 9642   7.089   7.335   2.998  0.1714  0.0599 -0.1557
   37MOL   C211 9643   7.139   7.271   3.128  0.1511  0.3279  0.0490
   37MOL   C212 9644   7.125   7.144   3.160  0.3745  0.5087 -0.7924
   37MOL   C213 9645   7.046   7.034   3.075 -0.0732  0.3484  0.0511
   37MOL   C214 9646   7.194   7.096   3.288 -0.8381  0.0414  1.2315
   37MOL   H215 9647   7.072   7.260   2.922  1.4989 -1.1254  0.6883
   37MOL   H216 9648   6.996   7.387   3.021 -0.4043  0.3199 -2.9054
   37MOL   H217 9649   7.195   7.324   3.204  2.2537  1.7590 -2.4141
   37MOL   H218 9650   6.974   7.068   3.001 -1.0925 -0.1157  0.8202
   37MOL   H219 9651   6.997   6.955   3.132 -1.5759  0.2017 -1.4094
   37MOL   H220 9652   7.132   6.989   3.026  1.0664  0.2341  2.0822
   37MOL   H221 9653   7.179   6.988   3.292  1.0290 -0.3053 -0.5885
   37MOL   H222 9654   7.142   7.128   3.379 -0.1025  1.8396  1.0290
   37MOL   C223 9655   7.346   7.134   3.296  0.3278 -0.3381  0.0294
   37MOL   C224 9656   7.432   7.079   3.178  0.3196 -1.2309  0.3623
   37MOL   C225 9657   7.530   7.142   3.107 -0.7944  0.2239 -0.2364
   37MOL   C226 9658   7.593   7.278   3.142 -0.7157 -0.8924 -0.3415
   37MOL   C227 9659   7.596   7.068   2.994 -0.7695  0.0988  0.1034
   37MOL   H228 9660   7.368   7.077   3.387  1.4557 -0.2266 -0.1718
   37MOL   H229 9661   7.360   7.238   3.325 -0.6224  0.2425 -1.5598
   37MOL   H230 9662   7.408   6.982   3.138  0.9755 -1.2179 -0.0758
   37MOL   H231 9663   7.522   7.333   3.205  0.7391  1.8565 -1.0253
   37MOL   H232 9664   7.609   7.339   3.053 -2.0217  0.4151  0.2853
   37MOL   H233 9665   7.690   7.265   3.190 -1.3460 -0.5826  1.0656
   37MOL   H234 9666   7.593   7.120   2.898  4.1122 -0.0755 -0.2253
   37MOL   H235 9667   7.539   6.977   2.973  0.1185 -0.3771 -0.2361
   37MOL   C236 9668   7.743   7.041   3.025 -1.0045  0.3541 -0.4607
   37MOL   C237 9669   7.800   6.968   2.901 -0.0245  0.6593 -0.7160
   37MOL   C238 9670   7.861   6.849   2.896  0.0633  0.3549 -0.1625
   37MOL   C239 9671   7.878   6.762   3.022  0.5375 -0.2758  0.4182
   37MOL   C240 9672   0.034   6.786   2.765  0.2314 -0.8810 -0.2985
   37MOL   H241 9673   7.759   6.995   3.122 -1.8535  0.4849 -0.2529
   37MOL   H242 9674   7.805   7.131   3.028 -0.6532  0.0763  1.8066
   37MOL   H243 9675   7.775   7.027   2.814 -3.9853 -1.9331 -1.4920
   37MOL   H244 9676   7.775   6.727   3.035  0.3263 -0.0344 -0.5795
   37MOL   H245 9677   0.027   6.827   3.103  1.9671  2.1555 -2.0158
   37MOL   H246 9678   0.063   6.678   3.003 -0.1515 -0.2728 -2.2437
   37MOL   H247 9679   7.875   6.841   2.681 -2.3245 -1.8413  0.3073
   37MOL   H248 9680   0.001   6.682   2.769  2.0057 -1.4560 -0.0703
   37MOL   C249 9681   0.188   6.793   2.755 -0.0033 -0.7130 -0.0469
   37MOL   C250 9682   0.242   6.729   2.633 -0.2382 -0.1725 -0.4629
   37MOL   C251 9683   0.301   6.604   2.631  0.2243 -0.6127  0.1563
   37MOL   C252 9684   0.309   6.508   2.750  0.6349 -0.4998  0.5390
   37MOL   C253 9685   0.365   6.556   2.500  0.3211  0.2351  0.1665
   37MOL   H254 9686   0.235   6.741   2.839  1.1840 -2.3379 -1.6710
   37MOL   H255 9687   0.221   6.897   2.763  4.6863 -2.1412  0.7462
   37MOL   H256 9688   0.250   6.791   2.545 -1.0290  1.3121  0.5035
   37MOL   H257 9689   0.399   6.528   2.809  0.3845 -0.8662  1.0435
   37MOL   H258 9690   0.325   6.408   2.710 -0.8818 -1.8178  3.1121
   37MOL   H259 9691   0.227   6.500   2.821  1.5079  2.9391  2.0210
   37MOL   H260 9692   0.331   6.453   2.489 -1.6456  0.8890 -0.1368
   37MOL   H261 9693   0.473   6.555   2.514  0.5761 -1.4618 -1.7285
   37MOL   H262 9694   0.341   6.613   2.411  2.5524 -0.1767 -0.7192
   38MOL     C1 9695   3.566   2.365   7.688 -0.1523  0.3691 -0.7423
   38MOL     C2 9696   3.586   2.274   7.564  0.3096  0.5066  0.3562
   38MOL     C3 9697   3.601   2.139   7.552  0.2279 -0.2319  0.9087
   38MOL     C4 9698   3.599   2.047   7.663 -0.1525 -0.3618  0.4599
   38MOL     C5 9699   3.608   2.076   7.414  0.3751  0.2608 -0.3000
   38MOL     H6 9700   3.642   2.443   7.691  0.6835 -0.4751  1.0222
   38MOL     H7 9701   3.464   2.398   7.708  0.5981  2.3590 -0.0274
   38MOL     H8 9702   3.578   2.328   7.470  1.5460 -0.0575 -0.0847
   38MOL     H9 9703   3.645   1.949   7.649  0.9535  0.0630  1.1076
   38MOL    H10 9704   3.492   2.027   7.675 -0.4381  1.2703  0.6420
   38MOL    H11 9705   3.641   2.081   7.758  1.0106 -0.7135  0.0708
   38MOL    H12 9706   3.573   2.138   7.332 -0.6991  1.1209  0.7872
   38MOL    H13 9707   3.529   2.001   7.416 -0.7593  1.3562 -2.1127
   38MOL    H14 9708   3.575   2.296   7.772 -1.9244 -1.0719 -1.7192
   38MOL    C15 9709   3.738   2.012   7.357  0.6017 -0.7655  0.6839
   38MOL    C16 9710   3.850   2.105   7.369  0.2780  0.0089  0.1440
   38MOL    C17 9711   3.966   2.088   7.297 -0.4540 -0.0877  0.0344
   38MOL    C18 9712   3.967   1.974   7.186 -0.3356 -0.6372 -0.4322
   38MOL    C19 9713   4.090   2.160   7.328 -0.1104  0.2642 -0.4419
   38MOL    H20 9714   3.726   1.974   7.256  0.6276  3.0501 -0.8453
   38MOL    H21 9715   3.776   1.923   7.406  2.6036  0.7887  2.0560
   38MOL    H22 9716   3.842   2.175   7.451  1.1310  1.9655 -1.3992
   38MOL    H23 9717   4.070   1.941   7.177  0.3490  1.5218 -0.9060
   38MOL    H24 9718   3.946   2.016   7.087 -3.8035  0.0121  0.5209
   38MOL    H25 9719   3.906   1.888   7.213 -1.0789 -0.4239 -1.3947
   38MOL    H26 9720   4.148   2.091   7.389 -0.4555  0.4192  0.0655
   38MOL    H27 9721   4.070   2.245   7.394 -0.6013  0.0068 -0.2612
   38MOL    C28 9722   4.162   2.218   7.205  0.1835 -0.6332 -0.2202
   38MOL    C29 9723   4.308   2.261   7.232  0.3368  0.6431  0.0052
   38MOL    C30 9724   4.345   2.382   7.284  0.3122 -0.0087 -0.0641
   38MOL    C31 9725   4.247   2.484   7.345 -0.2540  0.4143 -0.3469
   38MOL    C32 9726   4.487   2.405   7.322  0.5851  0.3385 -0.6357
   38MOL    H33 9727   4.106   2.306   7.172  0.2806 -0.6698 -0.4764
   38MOL    H34 9728   4.149   2.147   7.124 -0.1386  1.1612 -1.7733
   38MOL    H35 9729   4.382   2.187   7.208 -1.5267 -1.0886 -0.5801
   38MOL    H36 9730   4.199   2.456   7.438  1.7174  1.6172  1.0707
   38MOL    H37 9731   4.167   2.510   7.276  0.6987  0.5452 -1.4149
   38MOL    H38 9732   4.304   2.576   7.362  0.7858 -0.2940  0.1060
   38MOL    H39 9733   4.539   2.310   7.322 -1.9680 -1.1132 -0.3964
   38MOL    H40 9734   4.495   2.445   7.423 -2.3664  0.2185 -0.2932
   38MOL    C41 9735   4.576   2.499   7.234  0.1223  0.1988 -0.2598
   38MOL    C42 9736   4.719   2.497   7.282  0.2422  0.1649  0.7727
   38MOL    C43 9737   4.822   2.414   7.247 -0.8248  0.0959 -0.3893
   38MOL    C44 9738   4.807   2.301   7.147 -0.6110 -0.1735 -0.3791
   38MOL    C45 9739   4.960   2.437   7.308 -1.0135  0.1500 -0.0736
   38MOL    H46 9740   4.540   2.602   7.242 -0.0223  0.2767 -1.8711
   38MOL    H47 9741   4.562   2.465   7.132 -1.3729  0.1241 -0.0464
   38MOL    H48 9742   4.745   2.570   7.357  0.1025  1.0593 -0.0394
   38MOL    H49 9743   4.869   2.220   7.184  0.5082  0.4169 -0.9193
   38MOL    H50 9744   4.844   2.321   7.046 -2.7173 -1.1657 -1.3950
   38MOL    H51 9745   4.703   2.269   7.145 -0.1610 -1.7795  1.0246
   38MOL    H52 9746   5.002   2.346   7.350 -1.9985 -0.9586 -1.4601
   38MOL    H53 9747   4.949   2.506   7.392 -0.3738 -0.7394  0.7537
   38MOL    C54 9748   5.052   2.493   7.195  0.8125 -0.1651 -0.0286
   38MOL    C55 9749   5.136   2.389   7.120 -0.6761 -0.3099 -0.1090
   38MOL    C56 9750   5.142   2.370   6.987 -1.0573  0.2289  0.3634
   38MOL    C57 9751   5.075   2.467   6.894  0.6064 -0.5426 -0.4748
   38MOL    C58 9752   5.246   2.275   6.915 -0.6927 -0.0983 -0.6112
   38MOL    H59 9753   5.118   2.559   7.251 -1.1294  1.7985 -0.0089
   38MOL    H60 9754   4.995   2.552   7.124 -1.8967 -1.7282  0.7515
   38MOL    H61 9755   5.188   2.321   7.186 -2.5686  0.5464  2.3280
   38MOL    H62 9756   4.974   2.495   6.924  1.5240  1.7381  0.6317
   38MOL    H63 9757   5.053   2.437   6.791  0.8227 -1.0022 -0.3857
   38MOL    H64 9758   5.122   2.566   6.899 -2.6916  0.9626  2.4031
   38MOL    H65 9759   5.179   2.209   6.860 -0.6325 -0.7617  0.1076
   38MOL    H66 9760   5.307   2.222   6.988 -1.0963  1.0794  0.5903
   38MOL    C67 9761   5.328   2.350   6.813  0.1050  0.5430  0.2316
   38MOL    C68 9762   5.438   2.257   6.762  0.3129 -0.2581  0.0046
   38MOL    C69 9763   5.547   2.227   6.830  0.0754  0.1412  0.6358
   38MOL    C70 9764   5.594   2.308   6.950  0.4629  0.2166  0.0853
   38MOL    C71 9765   5.645   2.116   6.787 -0.4581  0.1792 -0.3655
   38MOL    H72 9766   5.375   2.440   6.852  2.2654 -0.2169 -0.5194
   38MOL    H73 9767   5.266   2.372   6.726  0.2554  1.8025  0.4427
   38MOL    H74 9768   5.409   2.214   6.667 -2.0737 -0.2932  0.7217
   38MOL    H75 9769   5.656   2.240   7.007 -2.8360 -2.7806  0.2361
   38MOL    H76 9770   5.508   2.330   7.014  0.0713 -0.4039 -0.2309
   38MOL    H77 9771   5.639   2.399   6.909  1.3143  0.0942  0.7341
   38MOL    H78 9772   5.606   2.076   6.693  1.3355 -0.1778 -0.9644
   38MOL    H79 9773   5.631   2.031   6.854 -1.0121  0.1657 -0.4940
   38MOL    C80 9774   5.791   2.154   6.763  0.2378  0.5098 -0.2623
   38MOL    C81 9775   5.860   2.029   6.712 -0.5855 -0.1497 -0.0980
   38MOL    C82 9776   5.881   1.996   6.580 -0.0620  0.4757 -0.0627
   38MOL    C83 9777   5.827   2.068   6.457 -0.2618  0.1638  0.3639
   38MOL    C84 9778   5.964   1.872   6.550 -0.0119  0.0329 -0.4773
   38MOL    H85 9779   5.841   2.181   6.856  0.8630  1.7724 -0.9386
   38MOL    H86 9780   5.813   2.233   6.690  1.0551  0.0436 -0.5232
   38MOL    H87 9781   5.885   1.953   6.785  1.5795 -1.0154 -1.6944
   38MOL    H88 9782   5.724   2.094   6.485 -1.8590 -3.9634 -1.3122
   38MOL    H89 9783   5.823   2.008   6.367 -0.0488 -0.5091  0.8022
   38MOL    H90 9784   5.880   2.160   6.432  2.9724 -1.9367 -0.7412
   38MOL    H91 9785   6.013   1.831   6.638  2.5506  2.1852 -0.8608
   38MOL    H92 9786   6.048   1.898   6.486  1.1104 -0.4545  0.7856
   38MOL    C93 9787   5.881   1.764   6.486  0.4446 -0.0724  0.5059
   38MOL    C94 9788   5.962   1.639   6.460  0.9891  0.1842 -0.9075
   38MOL    C95 9789   5.928   1.508   6.481  0.4737  0.3339 -0.1986
   38MOL    C96 9790   5.799   1.468   6.543  0.1958  0.4505 -0.4942
   38MOL    C97 9791   6.007   1.391   6.430 -0.3354  0.1130 -0.1817
   38MOL    H98 9792   5.858   1.800   6.386 -1.2416  1.4720  1.4280
   38MOL    H99 9793   5.787   1.747   6.539  0.7286  3.2219  2.1954
   38MOL   H100 9794   6.058   1.649   6.410  2.1061 -0.5228  1.0319
   38MOL   H101 9795   5.809   1.408   6.633  0.0518  1.6410  0.3142
   38MOL   H102 9796   5.743   1.397   6.481  0.8178  1.3332 -2.0974
   38MOL   H103 9797   5.728   1.548   6.563  0.4483  0.0465  2.1146
   38MOL   H104 9798   5.931   1.328   6.385 -1.0128 -0.3253  1.5426
   38MOL   H105 9799   6.026   1.330   6.518 -0.5191 -1.5296 -1.2559
   38MOL   C106 9800   6.116   1.420   6.320  0.0184 -0.0041  0.4260
   38MOL   C107 9801   6.135   1.307   6.216 -0.3974  0.1189  0.2064
   38MOL   C108 9802   6.227   1.209   6.223 -0.8333 -0.3964  0.3995
   38MOL   C109 9803   6.325   1.188   6.339  0.7187 -0.3079  0.2615
   38MOL   C110 9804   6.224   1.092   6.123 -0.1170 -0.6903 -0.1537
   38MOL   H111 9805   6.211   1.441   6.368  1.2361  0.1718 -1.9848
   38MOL   H112 9806   6.094   1.503   6.253  0.9497 -1.0817 -1.2416
   38MOL   H113 9807   6.057   1.311   6.140  1.1155  2.6753 -1.3062
   38MOL   H114 9808   6.422   1.165   6.294 -1.3258 -1.7685 -3.6697
   38MOL   H115 9809   6.289   1.102   6.395 -1.6136 -0.1733 -0.9771
   38MOL   H116 9810   6.336   1.272   6.408 -0.8552  0.2678 -0.1625
   38MOL   H117 9811   6.329   1.064   6.130  0.2054  0.1753 -1.4316
   38MOL   H118 9812   6.205   1.126   6.021  2.5617 -1.8033 -1.0704
   38MOL   C119 9813   6.130   0.971   6.162 -0.0095 -0.2571 -0.2242
   38MOL   C120 9814   5.994   0.987   6.099  0.3133  0.1479 -0.3011
   38MOL   C121 9815   5.876   1.018   6.162  1.2374 -0.4230 -0.6790
   38MOL   C122 9816   5.877   1.039   6.315 -0.2576 -0.2144  0.7129
   38MOL   C123 9817   5.746   1.023   6.087  0.3040  0.0651 -0.4026
   38MOL   H124 9818   6.130   0.939   6.266  1.2518 -2.1989 -0.8047
   38MOL   H125 9819   6.174   0.891   6.104  1.2962  0.2610  0.0308
   38MOL   H126 9820   5.990   0.962   5.994 -2.0039  1.1834 -0.4863
   38MOL   H127 9821   5.841   0.948   6.364 -1.0764  0.2389  0.9735
   38MOL   H128 9822   5.809   1.121   6.337 -0.6677 -0.3658  0.0395
   38MOL   H129 9823   5.973   1.070   6.355 -0.2849 -2.3879  2.6168
   38MOL   H130 9824   5.675   0.965   6.145  1.6195 -0.6864  0.4667
   38MOL   H131 9825   5.766   0.976   5.991 -2.8624 -0.0219 -1.0548
   38MOL   C132 9826   5.700   1.171   6.056  0.3178  0.6562  0.4000
   38MOL   C133 9827   5.565   1.181   5.987 -0.3855 -0.1406  0.4463
   38MOL   C134 9828   5.556   1.182   5.851 -0.0423  0.3545 -0.3073
   38MOL   C135 9829   5.667   1.162   5.747  0.2472  0.2328  0.2508
   38MOL   C136 9830   5.416   1.205   5.793 -0.0300 -0.2585 -0.2109
   38MOL   H137 9831   5.780   1.228   6.008 -0.3547  0.8945 -0.4525
   38MOL   H138 9832   5.679   1.231   6.145  1.6776  1.6380  0.0873
   38MOL   H139 9833   5.482   1.192   6.056  0.1504  0.1056  1.0571
   38MOL   H140 9834   5.626   1.084   5.682  0.2269 -0.0607  0.6181
   38MOL   H141 9835   5.765   1.126   5.778 -0.8821 -1.6513  1.7265
   38MOL   H142 9836   5.673   1.250   5.683 -1.0701 -0.1751 -0.4510
   38MOL   H143 9837   5.336   1.166   5.856  1.0072 -2.0636  0.0354
   38MOL   H144 9838   5.401   1.142   5.704 -2.1087  1.4481 -1.1042
   38MOL   C145 9839   5.390   1.354   5.772  0.1579 -0.5164  0.4893
   38MOL   C146 9840   5.249   1.375   5.709  0.0124  0.0866  0.2548
   38MOL   C147 9841   5.221   1.390   5.582 -0.3743 -0.3326  0.2841
   38MOL   C148 9842   5.326   1.396   5.478  0.5776 -0.7655  0.0665
   38MOL   C149 9843   5.082   1.405   5.528 -0.8162 -0.0012 -0.3087
   38MOL   H150 9844   5.469   1.402   5.715 -1.2135  0.1816 -0.8706
   38MOL   H151 9845   5.380   1.411   5.864  0.8802 -1.3030  1.0593
   38MOL   H152 9846   5.166   1.368   5.777 -1.4440  0.9219 -1.4029
   38MOL   H153 9847   5.286   1.340   5.393  0.0074 -0.6077  0.2320
   38MOL   H154 9848   5.416   1.342   5.508 -0.9945 -2.6590  1.5582
   38MOL   H155 9849   5.348   1.498   5.448  2.8861 -1.7400 -1.7325
   38MOL   H156 9850   4.999   1.364   5.586 -0.8604  0.8253  0.2163
   38MOL   H157 9851   5.080   1.349   5.434 -0.2079 -1.5597  0.5815
   38MOL   C158 9852   5.038   1.545   5.495  0.6172 -0.0030  0.8627
   38MOL   C159 9853   4.920   1.541   5.399  0.6507 -0.0917  0.0777
   38MOL   C160 9854   4.792   1.530   5.438  0.1905 -0.3464 -0.1838
   38MOL   C161 9855   4.758   1.493   5.580 -0.5248  0.3242 -0.4491
   38MOL   C162 9856   4.674   1.529   5.341  0.2555 -0.1631 -0.0213
   38MOL   H163 9857   5.123   1.591   5.445  0.6479 -1.2343 -0.2725
   38MOL   H164 9858   5.024   1.595   5.591  1.2665 -0.3652  1.1517
   38MOL   H165 9859   4.948   1.561   5.297 -1.4885  1.7371 -0.1805
   38MOL   H166 9860   4.674   1.557   5.608  0.0190  0.9046 -0.1336
   38MOL   H167 9861   4.832   1.485   5.659 -1.8702 -1.8270  0.6464
   38MOL   H168 9862   4.726   1.388   5.577  0.9032 -0.1102 -0.7892
   38MOL   H169 9863   4.600   1.461   5.383  1.6570 -0.8158  1.4738
   38MOL   H170 9864   4.696   1.494   5.241 -0.5785  0.2699 -0.3627
   38MOL   C171 9865   4.603   1.661   5.347 -0.7929 -0.2547 -0.4860
   38MOL   C172 9866   4.499   1.665   5.235  0.4083 -0.0528  0.5102
   38MOL   C173 9867   4.368   1.685   5.236  0.1458  0.3590  0.0294
   38MOL   C174 9868   4.289   1.687   5.364 -0.2542  0.4158 -0.0900
   38MOL   C175 9869   4.291   1.674   5.105 -0.4357 -0.1276  0.0811
   38MOL   H176 9870   4.668   1.748   5.359  0.2520 -1.6184  4.6238
   38MOL   H177 9871   4.551   1.666   5.442  1.6357  0.1603  0.8411
   38MOL   H178 9872   4.536   1.666   5.133 -3.1409 -0.1222 -0.8347
   38MOL   H179 9873   4.238   1.592   5.379  1.6463 -0.9959 -2.2738
   38MOL   H180 9874   4.212   1.765   5.359 -0.4245  0.2989  0.6656
   38MOL   H181 9875   4.347   1.722   5.450 -0.0873  0.2575 -0.1407
   38MOL   H182 9876   4.353   1.660   5.016  0.0622  0.3399  0.3432
   38MOL   H183 9877   4.228   1.762   5.088  2.0158  1.7722  0.4706
   38MOL   C184 9878   4.189   1.568   5.108 -0.1083  0.3760 -0.4663
   38MOL   C185 9879   4.102   1.572   4.983  0.0109  0.1890  0.6203
   38MOL   C186 9880   3.977   1.625   4.976  0.5405  0.1152  0.8100
   38MOL   C187 9881   3.890   1.663   5.097 -0.6639  0.6173 -0.6340
   38MOL   C188 9882   3.918   1.646   4.843 -0.3595 -0.6704 -0.4668
   38MOL   H189 9883   4.126   1.585   5.195  2.2030 -1.3583  1.6226
   38MOL   H190 9884   4.236   1.470   5.116  0.6730  0.6432 -1.5492
   38MOL   H191 9885   4.159   1.556   4.892 -0.5475  0.0053  0.3027
   38MOL   H192 9886   3.884   1.771   5.091  1.3105  0.7493 -0.3601
   38MOL   H193 9887   3.924   1.611   5.186 -2.4766  1.2982  0.4828
   38MOL   H194 9888   3.797   1.613   5.067  0.1416  0.9236 -3.7646
   38MOL   H195 9889   3.825   1.588   4.838 -1.2880  0.4450  2.7806
   38MOL   H196 9890   3.985   1.608   4.766  0.7370  2.1186 -0.9496
   38MOL   C197 9891   3.898   1.792   4.812 -0.0044 -0.4343  0.2080
   38MOL   C198 9892   3.852   1.832   4.670  0.1794 -0.1978  0.1716
   38MOL   C199 9893   3.930   1.860   4.567  0.6533  0.1142  0.3437
   38MOL   C200 9894   4.079   1.870   4.560  0.2718 -0.0581 -0.3088
   38MOL   C201 9895   3.869   1.885   4.426  0.0353 -0.1910  0.1960
   38MOL   H202 9896   3.991   1.846   4.835  1.9334 -2.8862 -1.6426
   38MOL   H203 9897   3.825   1.840   4.877  1.4162 -1.1978  2.4342
   38MOL   H204 9898   3.747   1.817   4.650  0.2698 -1.9615  0.9133
   38MOL   H205 9899   4.111   1.868   4.456 -1.6156 -0.1264 -0.9087
   38MOL   H206 9900   4.119   1.790   4.624  0.1839 -0.0313 -0.2200
   38MOL   H207 9901   4.109   1.965   4.605  2.3759 -1.4397  1.3240
   38MOL   H208 9902   3.764   1.855   4.419 -0.8730  2.6766  0.9185
   38MOL   H209 9903   3.922   1.817   4.359 -0.5956 -2.8409  2.2909
   38MOL   C210 9904   3.876   2.035   4.379  0.1388  1.0969  0.1573
   38MOL   C211 9905   3.834   2.052   4.236 -0.7579 -0.7846 -0.8659
   38MOL   C212 9906   3.914   2.087   4.135  0.1701 -0.2588  0.1032
   38MOL   C213 9907   4.063   2.112   4.151 -0.0157 -0.8170 -0.3559
   38MOL   C214 9908   3.856   2.101   3.997  0.0381 -0.2307 -0.1858
   38MOL   H215 9909   3.979   2.069   4.393  1.1442 -1.9141  0.3658
   38MOL   H216 9910   3.812   2.093   4.445  0.1122  0.2600  0.8679
   38MOL   H217 9911   3.728   2.037   4.222 -1.0223  0.0058  0.2686
   38MOL   H218 9912   4.116   2.045   4.219  0.3370  0.1577  0.3231
   38MOL   H219 9913   4.080   2.214   4.183  1.1305 -0.3197 -2.4357
   38MOL   H220 9914   4.112   2.091   4.056  0.1652  0.7175 -0.6005
   38MOL   H221 9915   3.759   2.053   3.994  0.3650 -1.1839  2.7613
   38MOL   H222 9916   3.921   2.041   3.932 -0.0883 -1.1195  0.5066
   38MOL   C223 9917   3.842   2.246   3.948 -0.0225 -0.3441 -0.6902
   38MOL   C224 9918   3.769   2.251   3.816 -0.1292 -0.1324  0.1554
   38MOL   C225 9919   3.822   2.221   3.695 -0.1566 -0.3051  0.3293
   38MOL   C226 9920   3.965   2.167   3.671  0.0113 -0.2714  0.2342
   38MOL   C227 9921   3.741   2.246   3.568  0.0722  0.1632 -0.3610
   38MOL   H228 9922   3.937   2.299   3.940 -0.7427  0.7182 -2.4505
   38MOL   H229 9923   3.782   2.305   4.018 -0.9942 -1.7726 -0.3055
   38MOL   H230 9924   3.666   2.282   3.826 -0.2354 -0.4422  0.0326
   38MOL   H231 9925   3.955   2.071   3.620 -0.8174 -1.0504  1.8203
   38MOL   H232 9926   4.025   2.143   3.758  0.2148 -0.0371  0.1582
   38MOL   H233 9927   4.032   2.221   3.604 -0.9947 -0.3015 -0.8074
   38MOL   H234 9928   3.707   2.148   3.534  0.2141 -0.6809  1.8327
   38MOL   H235 9929   3.801   2.285   3.486 -0.8452  1.1761 -0.5557
   38MOL   C236 9930   3.632   2.354   3.578 -0.3855  0.0076 -0.9095
   38MOL   C237 9931   3.500   2.296   3.620 -0.0553  0.4209 -0.3039
   38MOL   C238 9932   3.372   2.351   3.610 -0.8014 -0.7404  0.6755
   38MOL   C239 9933   3.357   2.492   3.570  0.0206  0.0915 -0.2331
   38MOL   C240 9934   3.250   2.273   3.651  0.3597 -0.0360 -0.0779
   38MOL   H241 9935   3.632   2.400   3.479 -1.9684  0.5861 -0.6479
   38MOL   H242 9936   3.663   2.428   3.651  1.8643 -0.8716 -0.9346
   38MOL   H243 9937   3.498   2.202   3.673 -1.6193  0.4732 -0.2642
   38MOL   H244 9938   3.255   2.512   3.535  0.0361 -0.3842 -0.5578
   38MOL   H245 9939   3.423   2.515   3.487  2.0829  2.4980  1.9986
   38MOL   H246 9940   3.380   2.565   3.648 -0.3115  0.2640 -0.2949
   38MOL   H247 9941   3.264   2.166   3.635  0.0540  0.0043 -0.6008
   38MOL   H248 9942   3.169   2.304   3.585 -0.8442  0.2136  1.4638
   38MOL   C249 9943   3.207   2.307   3.789  0.3634 -0.4167  0.3608
   38MOL   C250 9944   3.305   2.241   3.889 -0.2573  0.1191  0.6627
   38MOL   C251 9945   3.401   2.292   3.965 -0.2780 -0.0693  0.0821
   38MOL   C252 9946   3.431   2.440   3.971 -0.1037  0.0322  0.3559
   38MOL   C253 9947   3.489   2.199   4.047  0.1094 -0.5173 -0.3070
   38MOL   H254 9948   3.108   2.262   3.801 -0.1590  0.0869 -1.7788
   38MOL   H255 9949   3.206   2.414   3.807 -0.4203 -0.5961  1.4910
   38MOL   H256 9950   3.284   2.136   3.902 -1.4807  0.4873  1.7763
   38MOL   H257 9951   3.518   2.468   3.913  0.9261 -2.5323  0.5922
   38MOL   H258 9952   3.441   2.476   4.073 -2.7441 -0.8086  0.9632
   38MOL   H259 9953   3.344   2.492   3.930 -0.5701 -1.2117 -0.2576
   38MOL   H260 9954   3.541   2.259   4.121 -0.3672 -1.4315  0.7846
   38MOL   H261 9955   3.551   2.142   3.977 -0.5990 -1.2603 -0.3376
   38MOL   H262 9956   3.428   2.130   4.105 -0.1104  0.9890  1.2583
   39MOL     C1 9957   0.094   2.756   5.394 -0.2482  0.5711  0.2063
   39MOL     C2 9958   0.202   2.822   5.314  0.3847 -0.2925  0.4896
   39MOL     C3 9959   0.317   2.777   5.274  0.3952  0.3412  0.1910
   39MOL     C4 9960   0.387   2.649   5.315  0.0722 -0.8536  0.8973
   39MOL     C5 9961   0.400   2.855   5.173  0.2752 -0.6727  0.2041
   39MOL     H6 9962   0.012   2.744   5.324  0.4343  2.0174 -0.8568
   39MOL     H7 9963   0.130   2.661   5.435 -1.9137 -0.4945 -0.7136
   39MOL     H8 9964   0.177   2.918   5.270  1.5945 -0.4165 -0.4859
   39MOL     H9 9965   0.360   2.621   5.417  1.0806  1.0687  1.7330
   39MOL    H10 9966   0.493   2.676   5.322 -0.2566  0.8035 -0.3779
   39MOL    H11 9967   0.374   2.562   5.251  0.1356 -1.3398  1.5423
   39MOL    H12 9968   0.484   2.902   5.223 -0.4439  0.4436  0.3810
   39MOL    H13 9969   0.332   2.928   5.130 -0.5995 -3.3586 -3.3103
   39MOL    H14 9970   0.058   2.817   5.476 -0.0601  0.9523  0.0068
   39MOL    C15 9971   0.449   2.773   5.047 -0.0235 -0.8329 -0.0866
   39MOL    C16 9972   0.495   2.869   4.938  0.1668 -0.3031 -0.3137
   39MOL    C17 9973   0.611   2.861   4.869 -0.2674 -0.5993 -0.1750
   39MOL    C18 9974   0.721   2.768   4.908 -0.2090 -0.6126 -0.1984
   39MOL    C19 9975   0.643   2.947   4.746  0.2139  0.1717 -0.7109
   39MOL    H20 9976   0.371   2.714   4.999 -0.1818  0.6880 -1.7541
   39MOL    H21 9977   0.525   2.701   5.076  0.5395 -0.6733 -1.1516
   39MOL    H22 9978   0.416   2.937   4.909 -0.0305 -0.4487 -0.1126
   39MOL    H23 9979   0.721   2.728   5.009  1.1141 -1.1371 -0.3913
   39MOL    H24 9980   0.812   2.823   4.883 -0.7847  0.2652 -0.3910
   39MOL    H25 9981   0.726   2.677   4.847 -2.4424  0.3248 -1.8485
   39MOL    H26 9982   0.650   2.884   4.657 -2.6935 -0.7159 -0.3717
   39MOL    H27 9983   0.739   2.998   4.753 -0.2817  0.7840  2.0366
   39MOL    C28 9984   0.540   3.067   4.713 -0.4246  0.0901  0.3664
   39MOL    C29 9985   0.574   3.141   4.584 -0.1758 -0.0743  0.1363
   39MOL    C30 9986   0.517   3.121   4.465 -0.0143 -0.7891 -0.1338
   39MOL    C31 9987   0.408   3.010   4.440 -0.4484 -0.1055 -0.0392
   39MOL    C32 9988   0.553   3.206   4.343  0.0209 -0.0147 -0.3383
   39MOL    H33 9989   0.540   3.133   4.800 -1.0460 -0.6726  0.9662
   39MOL    H34 9990   0.437   3.033   4.698 -1.4225  3.1876 -0.0195
   39MOL    H35 9991   0.649   3.217   4.602  0.0091 -0.7880  2.5617
   39MOL    H36 9992   0.349   3.027   4.350 -0.4950 -0.0092  0.0103
   39MOL    H37 9993   0.332   3.000   4.518 -1.5419  2.3097 -0.7473
   39MOL    H38 9994   0.449   2.909   4.429 -0.4802 -0.2962  1.5109
   39MOL    H39 9995   0.642   3.265   4.366  0.2696 -0.3293 -0.5114
   39MOL    H40 9996   0.472   3.273   4.313  2.1679  2.2472 -1.2211
   39MOL    C41 9997   0.595   3.116   4.226  0.0338 -0.3733 -0.2336
   39MOL    C42 9998   0.699   3.179   4.124 -0.2745  0.2872  0.6166
   39MOL    C43 9999   0.694   3.172   3.990  1.2638 -0.0572 -0.2316
   39MOL    C4410000   0.581   3.123   3.911  0.0401 -0.1757  0.6852
   39MOL    C4510001   0.808   3.224   3.899 -0.6478  0.0616  0.3036
   39MOL    H4610002   0.503   3.098   4.171  0.3063 -0.5514 -0.6380
   39MOL    H4710003   0.639   3.019   4.251  0.1849 -0.2978 -0.2066
   39MOL    H4810004   0.793   3.210   4.166 -1.0069  0.1827  2.3748
   39MOL    H4910005   0.561   3.016   3.920 -2.8566  0.2947  0.2831
   39MOL    H5010006   0.584   3.166   3.810  0.4018  0.8655  1.1308
   39MOL    H5110007   0.494   3.157   3.967  0.5631  1.6546  0.4343
   39MOL    H5210008   0.876   3.287   3.956 -2.8754  1.2431  1.7103
   39MOL    H5310009   0.760   3.289   3.826 -1.7354  1.1045  1.9057
   39MOL    C5410010   0.887   3.107   3.850 -0.8164  0.2241 -0.8027
   39MOL    C5510011   1.005   3.159   3.766  0.1678  0.3423  0.0657
   39MOL    C5610012   1.024   3.129   3.637 -0.8858  0.5011 -0.2169
   39MOL    C5710013   0.917   3.058   3.560  0.1593  0.4773 -0.5892
   39MOL    C5810014   1.131   3.207   3.561  0.5102 -0.2235 -0.1595
   39MOL    H5910015   0.819   3.033   3.808 -2.7537 -0.2728  3.0413
   39MOL    H6010016   0.925   3.032   3.919  1.4601  0.4185 -1.7804
   39MOL    H6110017   1.094   3.197   3.814  0.5125  0.0837 -0.3645
   39MOL    H6210018   0.888   2.969   3.616 -0.8562  1.3716  0.3272
   39MOL    H6310019   0.948   3.016   3.464 -2.0601  0.1721 -1.2051
   39MOL    H6410020   0.831   3.112   3.519  0.5105  0.7214 -1.0082
   39MOL    H6510021   1.164   3.298   3.611 -0.9233 -0.3997  1.1523
   39MOL    H6610022   1.097   3.237   3.462 -0.3817 -2.3635 -0.5297
   39MOL    C6710023   1.254   3.124   3.532  0.1528  0.0046 -0.0861
   39MOL    C6810024   1.223   2.991   3.459  0.3104  0.1547 -0.5315
   39MOL    C6910025   1.197   2.867   3.512  0.8806  0.1192 -0.0137
   39MOL    C7010026   1.181   2.842   3.662  0.0302 -0.1136  1.0775
   39MOL    C7110027   1.171   2.741   3.436  0.4991 -0.2495  0.0287
   39MOL    H7210028   1.324   3.105   3.614  0.3455 -1.8512 -0.6486
   39MOL    H7310029   1.311   3.188   3.465  0.8335 -0.1806  0.3093
   39MOL    H7410030   1.228   3.002   3.352 -2.4600  0.6532 -0.6538
   39MOL    H7510031   1.227   2.745   3.680  0.4725  0.0336  0.7413
   39MOL    H7610032   1.075   2.834   3.686 -0.4513 -1.1728 -1.3013
   39MOL    H7710033   1.230   2.917   3.723 -0.7056  0.9417  0.3968
   39MOL    H7810034   1.204   2.652   3.490 -0.8758 -0.7008  0.1555
   39MOL    H7910035   1.224   2.743   3.341  2.4242  0.0766  1.0844
   39MOL    C8010036   1.014   2.716   3.420 -0.8562  0.3705 -0.0761
   39MOL    C8110037   0.994   2.566   3.395  0.8116  0.2735  0.0547
   39MOL    C8210038   0.952   2.517   3.279  0.0020 -0.1099  0.3549
   39MOL    C8310039   0.928   2.604   3.159 -0.3312  0.4776  0.3876
   39MOL    C8410040   0.928   2.371   3.252 -0.0847  0.2525 -0.3031
   39MOL    H8510041   0.956   2.780   3.353  0.6100  1.6591 -0.1377
   39MOL    H8610042   0.969   2.728   3.518 -0.3976 -1.0713  0.3155
   39MOL    H8710043   1.015   2.508   3.484  0.6294 -0.3019 -0.2777
   39MOL    H8810044   0.864   2.559   3.083  0.3826 -0.6894  0.4750
   39MOL    H8910045   1.024   2.642   3.125  0.6856 -2.0092  0.4113
   39MOL    H9010046   0.861   2.686   3.185  1.5584  2.1521  0.0425
   39MOL    H9110047   0.830   2.363   3.206 -1.0966 -0.2215  1.8947
   39MOL    H9210048   0.921   2.317   3.346  0.3808  0.2775 -0.2522
   39MOL    C9310049   1.043   2.311   3.178  0.3098 -0.0314 -0.4390
   39MOL    C9410050   1.036   2.157   3.178  0.1629  0.0069 -0.3512
   39MOL    C9510051   1.110   2.073   3.104  0.2565  0.2125  0.2326
   39MOL    C9610052   1.197   2.123   2.988  0.5077 -0.3852  0.0189
   39MOL    C9710053   1.099   1.922   3.108  0.6714  0.3893 -0.0914
   39MOL    H9810054   1.140   2.339   3.219 -0.7904  0.8477  1.6357
   39MOL    H9910055   1.042   2.340   3.073 -1.4708 -0.5397 -0.5786
   39MOL   H10010056   0.963   2.114   3.244 -0.8113  2.3271  0.1313
   39MOL   H10110057   1.251   2.215   3.008 -0.1120 -0.0876  0.3091
   39MOL   H10210058   1.129   2.142   2.905  0.8828  2.0462  0.2498
   39MOL   H10310059   1.267   2.048   2.949  0.1056 -0.7407 -0.0171
   39MOL   H10410060   1.085   1.869   3.013  1.0621  0.2067 -0.0489
   39MOL   H10510061   1.012   1.906   3.172  0.4064  0.2690 -0.4781
   39MOL   C10610062   1.213   1.857   3.191 -0.3461  0.1563  0.2456
   39MOL   C10710063   1.201   1.890   3.337  1.3530  0.2706  0.2296
   39MOL   C10810064   1.136   1.831   3.435  0.4590  0.0729  0.0501
   39MOL   C10910065   1.054   1.705   3.410  0.2549  0.0642  0.2706
   39MOL   C11010066   1.140   1.901   3.569 -0.3796 -0.4890  0.4846
   39MOL   H11110067   1.301   1.911   3.155 -0.2950  0.4277  0.7720
   39MOL   H11210068   1.217   1.749   3.178 -1.2256  0.2287 -0.7220
   39MOL   H11310069   1.246   1.988   3.351  1.3717  0.4049 -0.7123
   39MOL   H11410070   0.959   1.714   3.462 -0.8369 -0.9350 -1.5105
   39MOL   H11510071   1.099   1.613   3.449 -0.9207 -1.1044 -1.0923
   39MOL   H11610072   1.040   1.698   3.302 -0.4381  0.6449  0.3221
   39MOL   H11710073   1.039   1.906   3.609 -0.2682  0.1532  0.6932
   39MOL   H11810074   1.170   2.004   3.553 -0.3898 -0.4147  0.9200
   39MOL   C11910075   1.223   1.828   3.684  0.5911  0.7129  0.0419
   39MOL   C12010076   1.212   1.896   3.823  0.8693 -0.5005 -0.5567
   39MOL   C12110077   1.180   1.831   3.938 -0.0048 -0.8332  0.3298
   39MOL   C12210078   1.139   1.685   3.959  0.2162 -0.6336  1.0491
   39MOL   C12310079   1.167   1.916   4.069 -0.5334 -0.4806  1.1921
   39MOL   H12410080   1.323   1.808   3.647  0.7431  0.0945  0.7918
   39MOL   H12510081   1.178   1.729   3.690 -1.5512  1.4388 -2.8736
   39MOL   H12610082   1.221   2.003   3.817  1.5621 -0.5533 -0.5000
   39MOL   H12710083   1.030   1.687   3.960  0.2248  0.6007  3.2643
   39MOL   H12810084   1.177   1.656   4.057  3.4937  0.5293  0.1877
   39MOL   H12910085   1.183   1.625   3.880 -0.7559 -1.3984  1.0719
   39MOL   H13010086   1.187   2.023   4.056 -0.9009 -0.4447  0.9248
   39MOL   H13110087   1.239   1.873   4.138 -0.2218 -0.6395  0.7741
   39MOL   C13210088   1.019   1.912   4.121 -0.3055  0.7880  0.3702
   39MOL   C13310089   0.986   2.021   4.220 -1.2306 -0.5821  0.2227
   39MOL   C13410090   0.897   2.126   4.208  0.4153 -0.3931 -0.2467
   39MOL   C13510091   0.831   2.168   4.075  0.4743 -0.1813 -0.1225
   39MOL   C13610092   0.874   2.220   4.324 -0.3084 -0.1998  0.1325
   39MOL   H13710093   0.987   1.816   4.162 -0.9482  0.7970 -0.1065
   39MOL   H13810094   0.945   1.919   4.042 -0.1825  0.3183  0.2127
   39MOL   H13910095   1.041   2.013   4.313 -1.7623  2.0993  0.7921
   39MOL   H14010096   0.846   2.092   3.998  1.0509 -1.3647  1.1358
   39MOL   H14110097   0.873   2.263   4.042  0.7544 -0.6000 -0.9949
   39MOL   H14210098   0.723   2.183   4.081  0.2350 -1.5194 -0.7917
   39MOL   H14310099   0.897   2.320   4.288 -1.4790 -0.1771 -0.5654
   39MOL   H14410100   0.932   2.188   4.411  0.5159 -3.8718 -1.6616
   39MOL   C14510101   0.733   2.216   4.386 -0.3027  0.5486  0.3519
   39MOL   C14610102   0.710   2.334   4.473 -0.5414  0.7862  0.2996
   39MOL   C14710103   0.594   2.413   4.475  0.0867  0.2551  0.2307
   39MOL   C14810104   0.474   2.377   4.389  0.0533 -0.6132  0.2052
   39MOL   C14910105   0.571   2.546   4.554 -0.7030 -1.6519  0.3259
   39MOL   H15010106   0.716   2.123   4.440 -0.1187  1.1560  1.4779
   39MOL   H15110107   0.656   2.218   4.310 -0.8071 -0.6144  0.8202
   39MOL   H15210108   0.790   2.363   4.541  0.2884  1.6007 -1.0123
   39MOL   H15310109   0.447   2.271   4.382  1.1785 -0.9649  1.0850
   39MOL   H15410110   0.481   2.424   4.291  0.9818  0.5363  0.8231
   39MOL   H15510111   0.391   2.421   4.445  1.4093 -0.9238  2.5304
   39MOL   H15610112   0.539   2.627   4.489  0.5859 -0.4012  1.2228
   39MOL   H15710113   0.669   2.571   4.596 -1.1672  1.2044 -0.2263
   39MOL   C15810114   0.472   2.548   4.670  0.0637 -0.4552 -0.1777
   39MOL   C15910115   0.500   2.462   4.792  0.5592 -0.2670 -0.1248
   39MOL   C16010116   0.443   2.343   4.822  0.2719 -0.0171 -0.7415
   39MOL   C16110117   0.328   2.290   4.743  0.1353 -0.0871  0.4042
   39MOL   C16210118   0.489   2.265   4.949 -0.5538 -0.0161 -0.1706
   39MOL   H16310119   0.374   2.548   4.622  0.1566  0.8187 -0.3768
   39MOL   H16410120   0.473   2.650   4.709  1.8599 -0.7065  0.4552
   39MOL   H16510121   0.582   2.494   4.854  0.5985 -1.2744  0.3478
   39MOL   H16610122   0.236   2.337   4.777 -0.0122 -1.0878  1.4312
   39MOL   H16710123   0.315   2.182   4.757 -0.7718 -0.0044  0.2329
   39MOL   H16810124   0.339   2.314   4.637  0.3848  0.4625  0.5534
   39MOL   H16910125   0.578   2.310   4.994 -1.3592  0.8500  0.5785
   39MOL   H17010126   0.511   2.161   4.924 -0.2844 -0.3457  1.3603
   39MOL   C17110127   0.373   2.261   5.043 -0.0464 -0.5416  0.1165
   39MOL   C17210128   0.376   2.148   5.140 -0.4476 -0.1696  0.3498
   39MOL   C17310129   0.321   2.145   5.261  0.2684 -0.1768 -0.4030
   39MOL   C17410130   0.245   2.263   5.322 -0.2624 -0.7156  0.3283
   39MOL   C17510131   0.344   2.030   5.356 -0.1220 -0.3847 -0.1561
   39MOL   H17610132   0.284   2.239   4.984  0.6144  0.1704 -1.1827
   39MOL   H17710133   0.347   2.363   5.070 -0.6939 -0.4907 -0.6749
   39MOL   H17810134   0.429   2.059   5.110 -1.1127  0.1399 -1.7970
   39MOL   H17910135   0.149   2.287   5.277 -1.9687 -2.9929  2.5982
   39MOL   H18010136   0.309   2.351   5.320 -1.8958  0.4771  0.5198
   39MOL   H18110137   0.217   2.254   5.427 -2.0510 -0.7006 -0.1343
   39MOL   H18210138   0.386   1.947   5.298  1.0071  0.6230 -0.7913
   39MOL   H18310139   0.251   2.001   5.405 -1.4749  2.1555 -1.1196
   39MOL   C18410140   0.436   2.059   5.477 -0.4142 -0.2389  0.0479
   39MOL   C18510141   0.545   2.154   5.450  0.4805  0.1633  0.3264
   39MOL   C18610142   0.564   2.272   5.514  0.4578 -0.0438  0.4727
   39MOL   C18710143   0.488   2.325   5.634 -0.0020  0.0901  0.4097
   39MOL   C18810144   0.688   2.349   5.475  0.1734  0.2707 -0.0475
   39MOL   H18910145   0.485   1.971   5.519  1.0083  0.9745  1.0083
   39MOL   H19010146   0.374   2.082   5.564  1.1979 -2.9910  2.0085
   39MOL   H19110147   0.615   2.118   5.376 -1.0594 -1.9507 -0.1348
   39MOL   H19210148   0.387   2.289   5.651  0.3416 -0.2895  1.6529
   39MOL   H19310149   0.476   2.433   5.623  1.3797  0.3518  1.4312
   39MOL   H19410150   0.537   2.316   5.730  0.5004 -0.6385  0.0862
   39MOL   H19510151   0.752   2.284   5.415 -0.1152  0.3975 -0.4944
   39MOL   H19610152   0.743   2.367   5.567 -0.7889  0.3682  0.5141
   39MOL   C19710153   0.660   2.473   5.395 -0.0469 -0.6092 -0.0236
   39MOL   C19810154   0.785   2.536   5.335  0.6819  0.1327 -0.4506
   39MOL   C19910155   0.854   2.497   5.225  0.6863  0.2818  0.2226
   39MOL   C20010156   0.815   2.376   5.137 -0.3925  0.2405 -0.5714
   39MOL   C20110157   0.981   2.559   5.186 -0.8051  0.8019  0.1887
   39MOL   H20210158   0.598   2.542   5.452  0.6979 -0.4348  0.5876
   39MOL   H20310159   0.594   2.451   5.311 -2.5232  2.9441  0.8952
   39MOL   H20410160   0.840   2.611   5.392 -3.0541  0.6805  2.6596
   39MOL   H20510161   0.902   2.311   5.147 -0.9488 -0.1544  1.8837
   39MOL   H20610162   0.807   2.408   5.033  0.0651 -1.2324 -1.0845
   39MOL   H20710163   0.724   2.323   5.164  0.7776 -1.0124  0.9717
   39MOL   H20810164   1.005   2.639   5.256 -0.7978  0.3666  0.6919
   39MOL   H20910165   0.966   2.605   5.089  0.5127  3.3392  1.1595
   39MOL   C21010166   1.109   2.469   5.167 -0.0110 -0.2553  0.1603
   39MOL   C21110167   1.218   2.556   5.101  0.5475  0.8166  0.5644
   39MOL   C21210168   1.352   2.528   5.090  0.4861  0.4090 -0.5318
   39MOL   C21310169   1.421   2.405   5.159 -0.6015  0.3735 -0.5861
   39MOL   C21410170   1.447   2.614   5.007  0.4682 -0.6042  0.4708
   39MOL   H21510171   1.102   2.383   5.101  1.2413 -1.7217  1.8862
   39MOL   H21610172   1.142   2.426   5.261 -0.6399  2.3497  1.6242
   39MOL   H21710173   1.167   2.630   5.042  1.6892  1.0008 -0.2001
   39MOL   H21810174   1.505   2.443   5.217  0.0598  0.4030 -1.5604
   39MOL   H21910175   1.452   2.337   5.080  0.4687  0.1622  0.0013
   39MOL   H22010176   1.364   2.356   5.238  1.6381  0.4412  1.0892
   39MOL   H22110177   1.454   2.565   4.909  0.7661 -0.7874  0.5823
   39MOL   H22210178   1.543   2.598   5.056  0.7453  0.0081  0.1313
   39MOL   C22310179   1.429   2.762   5.006  0.1058  0.3416 -0.0136
   39MOL   C22410180   1.541   2.831   4.931  0.4385 -0.9672 -0.2212
   39MOL   C22510181   1.596   2.947   4.971 -0.0708  0.1038  0.2665
   39MOL   C22610182   1.565   3.026   5.095  0.6502  0.5719 -0.2086
   39MOL   C22710183   1.701   3.012   4.887 -0.0984  0.2878 -0.0419
   39MOL   H22810184   1.429   2.800   5.108  0.9635 -0.0601  0.1321
   39MOL   H22910185   1.336   2.778   4.950  0.5204  1.1010 -0.4911
   39MOL   H23010186   1.575   2.774   4.845  0.3548  0.5346 -1.2612
   39MOL   H23110187   1.647   3.084   5.139  3.5381 -3.1531 -0.4012
   39MOL   H23210188   1.529   2.967   5.180  0.2256  0.9689 -0.1129
   39MOL   H23310189   1.484   3.096   5.075 -0.6382 -1.0964 -0.8466
   39MOL   H23410190   1.683   3.119   4.878  0.4480  0.1824 -2.6269
   39MOL   H23510191   1.698   2.975   4.785  0.6373  1.5042 -0.5171
   39MOL   C23610192   1.844   2.999   4.939  0.3242  0.9677  0.9642
   39MOL   C23710193   1.880   2.858   4.963 -0.4291  0.4311 -0.1724
   39MOL   C23810194   1.991   2.794   4.909  0.7723 -0.4959 -0.6668
   39MOL   C23910195   2.091   2.867   4.819 -0.1314  0.6292  0.2869
   39MOL   C24010196   2.022   2.648   4.918 -0.0616 -0.6955  1.3552
   39MOL   H24110197   1.869   3.059   5.026 -0.2241  1.3131  0.8842
   39MOL   H24210198   1.906   3.051   4.866  0.8748 -2.2975 -1.0162
   39MOL   H24310199   1.817   2.800   5.029 -0.1971  0.9284  0.4932
   39MOL   H24410200   2.141   2.802   4.747  1.5630  1.4043  0.7368
   39MOL   H24510201   2.166   2.908   4.887 -0.3526  2.5497 -0.5905
   39MOL   H24610202   2.052   2.955   4.767 -1.6052  0.8080  1.6771
   39MOL   H24710203   2.102   2.640   4.991 -1.2226  1.1915  2.8884
   39MOL   H24810204   2.042   2.612   4.817 -0.0359  0.2303  1.0259
   39MOL   C24910205   1.898   2.567   4.971  0.6135 -0.1370  0.0014
   39MOL   C25010206   1.953   2.425   4.980 -0.1315 -0.2363  0.2186
   39MOL   C25110207   1.891   2.308   4.952  0.5495 -0.5429  0.0606
   39MOL   C25210208   1.749   2.299   4.906  0.2132 -0.2582 -0.2389
   39MOL   C25310209   1.956   2.175   4.973  0.7954 -0.4904 -1.1289
   39MOL   H25410210   1.812   2.584   4.907  0.7384 -0.3643 -0.2284
   39MOL   H25510211   1.875   2.595   5.074  0.3755  1.8838 -0.5753
   39MOL   H25610212   2.053   2.413   5.017 -0.1843  0.1256  0.4816
   39MOL   H25710213   1.691   2.276   4.996  0.6807 -2.5311 -0.4713
   39MOL   H25810214   1.735   2.225   4.827 -2.2040 -0.2944  0.1897
   39MOL   H25910215   1.723   2.395   4.861 -0.1672 -0.3045 -0.1165
   39MOL   H26010216   2.063   2.194   4.980  1.1147 -2.4449 -0.5169
   39MOL   H26110217   1.951   2.103   4.892  1.5983 -3.6397  1.5276
   39MOL   H26210218   1.926   2.125   5.065 -0.6927  2.2297 -0.0926
   40MOL     C110219   1.962   5.570   0.272  0.3644 -0.2744 -0.5230
   40MOL     C210220   1.951   5.501   0.407  0.1215 -0.2117 -0.5307
   40MOL     C310221   1.971   5.551   0.532 -0.2749  0.8198 -0.3234
   40MOL     C410222   2.003   5.699   0.561  0.4890 -0.0493  0.3883
   40MOL     C510223   1.977   5.455   0.654 -0.6455  0.6639 -0.0872
   40MOL     H610224   1.908   5.504   0.204  1.4140 -0.8590 -0.8016
   40MOL     H710225   1.929   5.673   0.287 -0.9295 -0.7076 -0.3408
   40MOL     H810226   1.937   5.393   0.405  2.3507 -0.5210 -0.9754
   40MOL     H910227   1.904   5.745   0.566 -0.1233 -1.2304 -0.6223
   40MOL    H1010228   2.058   5.748   0.480 -0.3347  0.2272 -0.0037
   40MOL    H1110229   2.054   5.721   0.655  0.3572  0.8565  0.2559
   40MOL    H1210230   2.067   5.467   0.715  0.0006 -1.9346 -0.4508
   40MOL    H1310231   1.982   5.363   0.595  1.2178  1.0438 -0.5466
   40MOL    H1410232   2.061   5.561   0.227 -0.5344 -3.2263 -2.0337
   40MOL    C1510233   1.848   5.452   0.735  0.5646 -0.3155 -0.6769
   40MOL    C1610234   1.731   5.400   0.658 -0.0331 -0.3494 -0.3410
   40MOL    C1710235   1.666   5.285   0.683 -0.0074  0.2743 -0.2086
   40MOL    C1810236   1.688   5.189   0.801  0.4580  0.1600  0.7469
   40MOL    C1910237   1.542   5.238   0.610  0.0380 -0.3955  0.6946
   40MOL    H2010238   1.829   5.550   0.781 -0.4444 -0.8876  0.1395
   40MOL    H2110239   1.864   5.392   0.825 -0.7323  0.2393 -0.0620
   40MOL    H2210240   1.700   5.465   0.578  1.3747 -0.9607 -1.4082
   40MOL    H2310241   1.744   5.243   0.877  1.7096  0.5824 -0.4526
   40MOL    H2410242   1.748   5.103   0.771 -0.3981  0.0315 -0.6141
   40MOL    H2510243   1.595   5.158   0.851  0.4826 -0.0336  0.6735
   40MOL    H2610244   1.510   5.325   0.552  2.5589 -0.5966 -1.0799
   40MOL    H2710245   1.466   5.206   0.682 -1.3018  1.1689  0.0244
   40MOL    C2810246   1.573   5.123   0.511 -0.3886 -0.9655 -0.2918
   40MOL    C2910247   1.442   5.048   0.472  0.4828  0.5450  0.7257
   40MOL    C3010248   1.417   4.919   0.463  0.1157  0.1817  1.0262
   40MOL    C3110249   1.512   4.811   0.505  0.1694  1.3359 -0.4463
   40MOL    C3210250   1.275   4.862   0.421  0.6513 -0.1016  0.1714
   40MOL    H3310251   1.645   5.049   0.545  1.3089  1.6668  2.0614
   40MOL    H3410252   1.622   5.165   0.423  0.6551 -0.6393  0.4207
   40MOL    H3510253   1.360   5.108   0.435 -0.6093 -1.3970 -0.0484
   40MOL    H3610254   1.609   4.839   0.546  0.7534 -1.1253 -0.0594
   40MOL    H3710255   1.538   4.750   0.418 -0.1601 -1.6623  1.5086
   40MOL    H3810256   1.471   4.743   0.579  0.8797 -0.2627 -1.4903
   40MOL    H3910257   1.196   4.935   0.437  0.9709  0.1894  0.4498
   40MOL    H4010258   1.253   4.780   0.489 -0.0418 -1.2655 -1.4532
   40MOL    C4110259   1.278   4.831   0.272  0.1795  0.3242  0.2774
   40MOL    C4210260   1.152   4.749   0.223 -0.0398 -0.9144  0.5394
   40MOL    C4310261   1.041   4.808   0.171  0.1380 -0.3539  0.8454
   40MOL    C4410262   1.024   4.956   0.151 -0.2948 -0.5050  0.4091
   40MOL    C4510263   0.919   4.724   0.132 -0.1721 -0.4446  0.4199
   40MOL    H4610264   1.368   4.777   0.241 -0.7883 -1.4369  0.4951
   40MOL    H4710265   1.284   4.925   0.217  0.0736  0.9732  1.3654
   40MOL    H4810266   1.157   4.641   0.232 -0.6845 -1.0128 -0.2286
   40MOL    H4910267   1.098   5.015   0.205 -0.2869 -0.3287  0.2064
   40MOL    H5010268   0.923   4.992   0.171 -0.8383 -3.1224  2.5772
   40MOL    H5110269   1.030   4.990   0.047 -0.2794  0.3648  0.6903
   40MOL    H5210270   0.935   4.617   0.139 -1.4693 -0.5228  2.5349
   40MOL    H5310271   0.898   4.747   0.027  0.2428 -0.9514  0.2237
   40MOL    C5410272   0.794   4.756   0.212 -0.1148  0.0650 -0.0064
   40MOL    C5510273   0.684   4.650   0.188 -1.2141  0.2117  0.7214
   40MOL    C5610274   0.607   4.587   0.282 -0.5099 -0.6893 -0.8926
   40MOL    C5710275   0.619   4.598   0.440 -0.1439 -0.7903  0.0560
   40MOL    C5810276   0.481   4.512   0.235 -0.6844 -0.2112 -0.2227
   40MOL    H5910277   0.752   4.856   0.204  0.2651  0.4521  2.3830
   40MOL    H6010278   0.819   4.757   0.319  2.9704  0.4423 -0.6887
   40MOL    H6110279   0.655   4.641   0.085 -0.3682  1.1884  0.3900
   40MOL    H6210280   0.651   4.511   0.498  1.5731  0.7907  1.5655
   40MOL    H6310281   0.526   4.645   0.470 -0.0556  0.0030 -0.9160
   40MOL    H6410282   0.692   4.667   0.482 -0.1844  0.4864 -1.9119
   40MOL    H6510283   0.446   4.563   0.145  0.2841  2.1772  0.7256
   40MOL    H6610284   0.413   4.540   0.316  0.9661 -0.2799  1.2172
   40MOL    C6710285   0.520   4.370   0.213 -0.3385 -0.1713  0.0624
   40MOL    C6810286   0.397   4.289   0.196 -0.1648 -0.3112  0.4269
   40MOL    C6910287   0.331   4.270   0.080 -0.6092 -0.6892  0.7192
   40MOL    C7010288   0.385   4.336   7.837  0.3219  0.8155 -0.5367
   40MOL    C7110289   0.212   4.181   0.059 -0.2119  0.8375 -0.2674
   40MOL    H7210290   0.579   4.330   0.295  0.8956 -0.7351 -1.0713
   40MOL    H7310291   0.579   4.343   0.125 -1.7421 -1.2208 -0.5782
   40MOL    H7410292   0.359   4.248   0.288  1.6379  1.3302  1.9510
   40MOL    H7510293   0.328   4.311   7.748  0.1433 -1.5263  0.2079
   40MOL    H7610294   0.485   4.294   7.825 -0.5399 -1.2050 -0.8191
   40MOL    H7710295   0.386   4.445   7.847 -0.5159  0.7190  0.7340
   40MOL    H7810296   0.207   4.104   0.136 -1.3620 -0.1621 -1.3106
   40MOL    H7910297   0.246   4.125   7.854 -1.1706  0.0503 -0.1479
   40MOL    C8010298   0.082   4.258   0.019 -0.1647  0.7736  0.3227
   40MOL    C8110299   0.026   4.330   0.148  0.0630 -0.0312  0.5528
   40MOL    C8210300   7.882   4.454   0.165 -0.9944 -0.6506  0.4463
   40MOL    C8310301   0.009   4.558   0.053 -0.5801 -0.7405  0.5123
   40MOL    C8410302   7.840   4.506   0.301  0.1029 -0.4222 -0.1182
   40MOL    H8510303   0.011   4.187   7.858 -1.2366  3.7150 -3.0524
   40MOL    H8610304   0.087   4.324   7.815  0.5447 -0.4436 -0.5837
   40MOL    H8710305   0.020   4.266   0.235 -1.8765 -0.2486  0.2618
   40MOL    H8810306   0.059   4.530   7.843 -0.8002 -0.9643  0.4594
   40MOL    H8910307   0.071   4.639   0.091  0.0885 -0.7159 -0.6129
   40MOL    H9010308   7.792   4.598   0.033 -0.1329  1.0936  1.8187
   40MOL    H9110309   7.795   4.424   0.356 -0.3487 -1.4639 -2.0319
   40MOL    H9210310   7.769   4.587   0.289  0.3026 -0.5788 -2.5085
   40MOL    C9310311   0.079   4.559   0.370  0.0877  0.1421 -0.2174
   40MOL    C9410312   0.152   4.437   0.420 -0.0506  0.0339 -0.9501
   40MOL    C9510313   0.141   4.387   0.542 -0.1372 -0.2661  0.1772
   40MOL    C9610314   0.068   4.448   0.658 -0.0444 -0.0161 -0.2094
   40MOL    C9710315   0.222   4.264   0.577  0.2668 -0.9971 -0.6663
   40MOL    H9810316   0.063   4.625   0.456  1.4289  0.6867 -0.3729
   40MOL    H9910317   0.140   4.615   0.299  1.6217  0.0655  0.9928
   40MOL   H10010318   0.215   4.394   0.344  1.8672  1.3002 -0.1108
   40MOL   H10110319   0.140   4.474   0.736 -1.1615  2.2932  0.0924
   40MOL   H10210320   0.015   4.373   0.716 -0.4676  2.5168  2.8512
   40MOL   H10310321   0.002   4.527   0.623 -1.1912 -1.3181 -1.0350
   40MOL   H10410322   0.263   4.218   0.487 -2.2652 -0.9207 -1.8932
   40MOL   H10510323   0.150   4.195   0.621 -2.2940  1.7762 -0.2961
   40MOL   C10610324   0.341   4.284   0.677 -0.3714  0.1896 -0.0971
   40MOL   C10710325   0.398   4.155   0.737  0.0218  0.0920 -0.0049
   40MOL   C10810326   0.503   4.081   0.701 -0.1149 -0.4142  0.5677
   40MOL   C10910327   0.595   4.118   0.581  1.0314  0.1587  1.0622
   40MOL   C11010328   0.536   3.962   0.793  0.2415 -0.1553 -0.2816
   40MOL   H11110329   0.318   4.342   0.766  0.1775 -1.9473  1.4935
   40MOL   H11210330   0.424   4.332   0.626  0.6975 -2.4652 -0.9601
   40MOL   H11310331   0.346   4.117   0.824  0.0525  2.4697  1.0672
   40MOL   H11410332   0.545   4.202   0.533 -0.0835 -0.2207  1.5315
   40MOL   H11510333   0.604   4.035   0.511 -1.3089  1.1071 -0.4259
   40MOL   H11610334   0.696   4.148   0.610  0.6355 -0.1475  2.7992
   40MOL   H11710335   0.439   3.927   0.830 -0.4790  2.4803  0.4574
   40MOL   H11810336   0.583   4.013   0.877 -0.6173  0.8912 -0.4181
   40MOL   C11910337   0.606   3.851   0.721 -0.3816 -0.2629  0.1956
   40MOL   C12010338   0.618   3.730   0.814  0.0910 -0.3110 -0.1832
   40MOL   C12110339   0.677   3.610   0.785 -0.6935 -0.1962  0.2163
   40MOL   C12210340   0.750   3.592   0.656  0.3187  0.1053  0.0499
   40MOL   C12310341   0.675   3.494   0.880 -0.0063 -0.1019 -0.2755
   40MOL   H12410342   0.710   3.872   0.695 -1.2280  1.5189 -1.8625
   40MOL   H12510343   0.543   3.831   0.635  1.2730  1.1078 -1.3577
   40MOL   H12610344   0.556   3.727   0.902 -0.0377 -2.6023 -0.3108
   40MOL   H12710345   0.728   3.494   0.612  0.2643 -0.1830  0.7195
   40MOL   H12810346   0.856   3.606   0.677  0.5845 -0.1863 -1.0636
   40MOL   H12910347   0.734   3.660   0.573  1.3950 -2.0942 -2.0416
   40MOL   H13010348   0.632   3.410   0.825 -2.0286  1.3058 -0.8640
   40MOL   H13110349   0.615   3.522   0.966 -1.7727 -0.0349 -1.5152
   40MOL   C13210350   0.815   3.450   0.935 -0.0765  0.4676 -1.0287
   40MOL   C13310351   0.902   3.570   0.979  0.1225  0.8556 -0.0836
   40MOL   C13410352   0.908   3.626   1.100 -0.5632 -0.2199  0.5658
   40MOL   C13510353   0.835   3.581   1.220  0.1204 -0.1594 -0.4551
   40MOL   C13610354   0.979   3.759   1.107 -0.4780 -0.3504 -0.0799
   40MOL   H13710355   0.872   3.399   0.857 -0.2762 -1.1342 -0.1254
   40MOL   H13810356   0.793   3.382   1.017 -0.7714 -1.2214 -2.5751
   40MOL   H13910357   0.944   3.615   0.890 -0.5451 -2.1658 -1.9808
   40MOL   H14010358   0.733   3.620   1.215 -0.7420 -2.1196  1.3627
   40MOL   H14110359   0.880   3.592   1.318 -2.2889  2.3958  0.4471
   40MOL   H14210360   0.819   3.473   1.212  1.0425 -0.6138  3.1266
   40MOL   H14310361   1.045   3.772   1.021 -1.2281  0.8387 -0.4767
   40MOL   H14410362   1.039   3.765   1.198  1.5164 -0.9239 -1.3230
   40MOL   C14510363   0.871   3.867   1.112 -0.3034  0.0889  0.2544
   40MOL   C14610364   0.937   4.001   1.143 -0.0215 -0.1220  0.4104
   40MOL   C14710365   0.988   4.087   1.053 -0.5775 -0.3933 -0.2219
   40MOL   C14810366   0.965   4.066   0.903  1.0249 -0.1480 -0.3312
   40MOL   C14910367   1.037   4.224   1.085  0.3308 -0.1281 -0.9459
   40MOL   H15010368   0.801   3.850   1.194 -0.2636 -1.0480  0.0666
   40MOL   H15110369   0.809   3.872   1.022  0.6988  0.7792 -0.4083
   40MOL   H15210370   0.955   4.007   1.249  0.7957  2.4250  0.1646
   40MOL   H15310371   0.866   4.093   0.868  1.0150 -0.5052 -0.5859
   40MOL   H15410372   0.983   3.962   0.875 -0.1055 -0.2689 -0.5991
   40MOL   H15510373   1.042   4.123   0.850 -1.3652  1.4296 -2.1959
   40MOL   H15610374   1.085   4.270   0.999  0.1306 -1.1514 -1.6125
   40MOL   H15710375   1.101   4.200   1.170  0.4387 -0.5296 -1.1437
   40MOL   C15810376   0.922   4.310   1.150  0.2267  0.1756 -0.0857
   40MOL   C15910377   0.832   4.368   1.032  0.2652  0.9857  0.2245
   40MOL   C16010378   0.699   4.348   1.006 -0.5180 -0.3904 -0.0375
   40MOL   C16110379   0.609   4.246   1.083 -0.1792 -0.8084  0.2773
   40MOL   C16210380   0.637   4.418   0.884 -0.5971 -0.3797  0.0737
   40MOL   H16310381   0.960   4.392   1.211 -0.3943  0.8683 -0.6149
   40MOL   H16410382   0.857   4.241   1.204 -1.1379  1.6458  0.2035
   40MOL   H16510383   0.886   4.436   0.968 -0.5998  0.4562 -1.0974
   40MOL   H16610384   0.509   4.243   1.039 -0.2418  0.5228  0.3187
   40MOL   H16710385   0.613   4.263   1.191 -1.4851 -2.4527  0.6076
   40MOL   H16810386   0.648   4.145   1.074  0.4121 -0.4878 -0.8551
   40MOL   H16910387   0.591   4.333   0.835 -1.8099  0.8996 -1.0304
   40MOL   H17010388   0.719   4.460   0.826  0.0437  0.2587  1.3997
   40MOL   C17110389   0.532   4.523   0.926  0.4607 -0.6271  0.5093
   40MOL   C17210390   0.459   4.579   0.804 -0.1427 -0.2123  0.2233
   40MOL   C17310391   0.368   4.679   0.823  0.1005  0.1322 -0.1577
   40MOL   C17410392   0.318   4.736   0.960  0.0427 -0.7522 -0.2639
   40MOL   C17510393   0.293   4.733   0.696 -1.1043 -0.0528  0.4875
   40MOL   H17610394   0.572   4.614   0.970 -3.2712  0.4283  1.9101
   40MOL   H17710395   0.457   4.482   0.994  0.4634 -1.9493 -0.2670
   40MOL   H17810396   0.481   4.541   0.705  0.3079  0.7668 -0.0519
   40MOL   H17910397   0.220   4.688   0.966 -1.6015  2.3664 -1.0510
   40MOL   H18010398   0.314   4.845   0.964  2.5321 -0.3817 -4.5671
   40MOL   H18110399   0.375   4.703   1.046 -0.8334  0.3992  0.7704
   40MOL   H18210400   0.185   4.729   0.709 -0.8761 -1.4084  2.2655
   40MOL   H18310401   0.324   4.671   0.612 -0.1822  0.9335  0.0916
   40MOL   C18410402   0.329   4.880   0.669  0.1386  0.2589 -0.3839
   40MOL   C18510403   0.313   4.921   0.527 -0.2058  0.4649 -1.0521
   40MOL   C18610404   0.202   4.973   0.471  0.2421  0.0077 -0.1851
   40MOL   C18710405   0.068   4.978   0.539  0.5134 -0.5450  0.1611
   40MOL   C18810406   0.189   5.018   0.325 -0.4854 -0.1777  0.1240
   40MOL   H18910407   0.435   4.898   0.689  0.1473  1.5558 -1.4892
   40MOL   H19010408   0.281   4.943   0.745 -0.1916 -0.2576 -0.1622
   40MOL   H19110409   0.405   4.925   0.471 -0.2386  0.0149 -1.1417
   40MOL   H19210410   7.871   4.964   0.466  0.8626 -1.4504 -0.0520
   40MOL   H19310411   0.044   5.074   0.585  0.3002  0.8640 -2.7659
   40MOL   H19410412   0.044   4.903   0.615 -0.9745  1.7591  2.0451
   40MOL   H19510413   0.165   5.124   0.312  3.4255  1.0697  2.1901
   40MOL   H19610414   0.103   4.959   0.293 -1.7044  2.6326 -2.0587
   40MOL   C19710415   0.311   4.991   0.230  0.0900 -0.1724  0.5228
   40MOL   C19810416   0.279   5.018   0.086  0.0622  0.5724  0.0764
   40MOL   C19910417   0.290   4.923   7.867  0.0700  0.1191 -0.5137
   40MOL   C20010418   0.342   4.785   0.020 -0.2229 -0.2720  0.6499
   40MOL   C20110419   0.258   4.953   7.727  0.0563  0.2053  0.1246
   40MOL   H20210420   0.352   4.890   0.240  2.6998  0.7278 -0.5120
   40MOL   H20310421   0.394   5.057   0.256  0.0563 -0.0386  0.2858
   40MOL   H20410422   0.240   5.116   0.062 -1.1926  0.0117 -0.2180
   40MOL   H20510423   0.328   4.720   7.816 -0.3634 -0.4046  0.7716
   40MOL   H20610424   0.285   4.739   0.101 -0.4362 -0.0458  0.6306
   40MOL   H20710425   0.446   4.777   0.051 -0.0855  1.8970  0.8044
   40MOL   H20810426   0.186   5.034   7.735  0.2729  0.7384 -2.7045
   40MOL   H20910427   0.219   4.871   7.668  0.0925 -0.0582  0.4677
   40MOL   C21010428   0.388   4.983   7.641  0.1618 -0.1181  0.3650
   40MOL   C21110429   0.488   4.871   7.631  0.3692  0.4774 -0.8254
   40MOL   C21210430   0.611   4.873   7.691  0.1022 -1.4489  0.6961
   40MOL   C21310431   0.649   4.989   7.781 -0.3590 -0.7016  0.0705
   40MOL   C21410432   0.705   4.754   7.684 -0.2580  0.0342 -0.5305
   40MOL   H21510433   0.435   5.071   7.682 -3.9673  1.2156  2.5402
   40MOL   H21610434   0.338   5.003   7.546  1.8337  1.0603 -0.2879
   40MOL   H21710435   0.454   4.784   7.578 -1.4682  0.4977  0.2832
   40MOL   H21810436   0.590   4.993   7.872  0.6301  0.6897  0.6695
   40MOL   H21910437   0.664   5.082   7.726 -0.4030 -0.1579  0.9658
   40MOL   H22010438   0.748   4.962   7.818  0.6532 -0.7226 -2.5300
   40MOL   H22110439   0.655   4.671   7.635 -1.0486  0.7011 -0.8620
   40MOL   H22210440   0.734   4.723   7.785  0.0534  0.8684 -0.3580
   40MOL   C22310441   0.835   4.786   7.609 -0.1006 -0.4848 -0.1095
   40MOL   C22410442   0.893   4.663   7.544 -0.1950  0.2749  0.9168
   40MOL   C22510443   1.023   4.619   7.548 -0.5485 -0.0558  0.3222
   40MOL   C22610444   1.146   4.674   7.627 -0.2669 -0.1418  0.3329
   40MOL   C22710445   1.065   4.515   7.442 -0.4404  0.1120  0.4549
   40MOL   H22810446   0.911   4.817   7.680 -0.2221  2.1761 -1.0754
   40MOL   H22910447   0.818   4.866   7.536  0.7862  1.5946  1.9201
   40MOL   H23010448   0.824   4.605   7.484  2.0316 -2.4511  0.9106
   40MOL   H23110449   1.209   4.721   7.552 -2.7295  1.6783 -0.6741
   40MOL   H23210450   1.194   4.586   7.670  1.3521  1.3189  1.5760
   40MOL   H23310451   1.114   4.739   7.708 -0.4391  1.2485 -0.8365
   40MOL   H23410452   1.145   4.563   7.386 -0.4113  2.1146  2.1430
   40MOL   H23510453   0.975   4.503   7.382 -0.4403  3.8790 -0.4232
   40MOL   C23610454   1.115   4.380   7.505  0.4064  0.0134 -0.1635
   40MOL   C23710455   1.165   4.287   7.397 -0.0929  0.1372  0.3551
   40MOL   C23810456   1.099   4.182   7.343  0.1233  0.6033 -0.4849
   40MOL   C23910457   0.960   4.129   7.382 -0.5521 -0.1952  0.1326
   40MOL   C24010458   1.162   4.099   7.234  0.9217 -1.0448  0.1501
   40MOL   H24110459   1.032   4.348   7.569 -0.0210  1.4064  0.0021
   40MOL   H24210460   1.201   4.395   7.569 -0.6049 -1.5482  1.6301
   40MOL   H24310461   1.266   4.300   7.358 -0.3182 -0.6916 -0.5305
   40MOL   H24410462   0.897   4.127   7.293  1.3390  0.2689 -1.2571
   40MOL   H24510463   0.916   4.190   7.460  1.4515  1.3172  0.1241
   40MOL   H24610464   0.973   4.024   7.411  0.9103 -0.5073 -1.5501
   40MOL   H24710465   1.168   4.000   7.280 -1.8393 -0.4701  1.8117
   40MOL   H24810466   1.263   4.137   7.216  0.0459  0.3591 -1.9101
   40MOL   C24910467   1.092   4.099   7.101  0.1074  0.3059  0.0093
   40MOL   C25010468   1.064   4.241   7.051  0.8952  0.7342 -0.1163
   40MOL   C25110469   1.144   4.344   7.018  0.1651  0.6051 -0.2240
   40MOL   C25210470   1.296   4.323   7.018  0.0447  0.4135  0.1198
   40MOL   C25310471   1.092   4.478   6.973  0.1603 -0.0849  0.2456
   40MOL   H25410472   1.000   4.041   7.106  0.1324  0.3956  1.6017
   40MOL   H25510473   1.156   4.049   7.028 -1.0152 -2.2546  0.6919
   40MOL   H25610474   0.959   4.266   7.065  0.5519 -0.9548  0.4891
   40MOL   H25710475   1.330   4.373   7.109  1.6393 -1.3752  0.5367
   40MOL   H25810476   1.341   4.363   6.927  0.9156  2.1562  1.2743
   40MOL   H25910477   1.330   4.221   7.034 -1.3290  0.1692  1.7526
   40MOL   H26010478   1.147   4.526   6.892 -1.1559  1.0179 -0.0205
   40MOL   H26110479   1.109   4.549   7.054 -1.2352 -0.7204  1.1245
   40MOL   H26210480   0.984   4.480   6.956  0.0687  1.6418  0.8627
   41MOL     C110481   4.783   0.774   6.118  0.1908  0.0706 -0.5868
   41MOL     C210482   4.860   0.876   6.199  0.4150 -0.1023 -0.5328
   41MOL     C310483   4.850   0.892   6.334  0.2270  0.2733 -0.1570
   41MOL     C410484   4.754   0.812   6.424 -0.8108  0.5537  0.5594
   41MOL     C510485   4.949   0.983   6.417  0.3466  0.4816 -0.1194
   41MOL     H610486   4.836   0.770   6.023  0.2627  1.4639 -0.6191
   41MOL     H710487   4.782   0.677   6.167 -1.3206  0.3147 -0.0890
   41MOL     H810488   4.919   0.952   6.150  0.7936  1.1540  1.7842
   41MOL     H910489   4.758   0.859   6.522  2.1726 -0.6126  1.0395
   41MOL    H1010490   4.802   0.719   6.453 -2.6518 -0.5911  0.0248
   41MOL    H1110491   4.655   0.798   6.380 -0.6849 -1.1424  0.7993
   41MOL    H1210492   4.989   0.911   6.488 -4.2595  0.4552  2.5806
   41MOL    H1310493   4.900   1.066   6.467  1.0366  0.5701  0.4125
   41MOL    H1410494   4.683   0.816   6.109 -0.2907 -0.8726  0.2137
   41MOL    C1510495   5.074   1.029   6.331  0.0010  0.7539  0.4645
   41MOL    C1610496   5.150   1.128   6.414  0.1795 -0.7969  0.2449
   41MOL    C1710497   5.282   1.137   6.423  0.0307 -0.8970  0.4929
   41MOL    C1810498   5.376   1.043   6.360 -0.2454  0.1819  0.1567
   41MOL    C1910499   5.345   1.249   6.504 -0.3476 -0.2902 -0.7432
   41MOL    H2010500   5.054   1.085   6.240 -1.2896 -2.2310 -1.1567
   41MOL    H2110501   5.132   0.941   6.302 -0.7383 -0.0738  1.4301
   41MOL    H2210502   5.095   1.207   6.462  1.2222 -0.8173  1.4812
   41MOL    H2310503   5.398   1.083   6.261  0.1396  1.1063  0.6076
   41MOL    H2410504   5.342   0.940   6.350  1.1438 -0.2401 -0.3369
   41MOL    H2510505   5.473   1.049   6.410 -0.4763  1.0310  0.5065
   41MOL    H2610506   5.269   1.323   6.530  0.7709 -0.3783  3.0762
   41MOL    H2710507   5.412   1.305   6.439  0.9238 -1.3748 -0.3968
   41MOL    C2810508   5.427   1.206   6.635  0.3561 -0.5687 -0.1891
   41MOL    C2910509   5.491   1.328   6.689  0.0346  0.5037  0.3693
   41MOL    C3010510   5.536   1.332   6.820  0.3970  1.1046 -0.2932
   41MOL    C3110511   5.529   1.205   6.904  0.0892  0.8947 -0.1871
   41MOL    C3210512   5.591   1.457   6.882  0.0798 -0.2131  0.1972
   41MOL    H3310513   5.507   1.135   6.620  0.6614  0.3810 -3.3274
   41MOL    H3410514   5.359   1.160   6.707  0.7662 -0.9280 -0.0303
   41MOL    H3510515   5.488   1.414   6.625 -2.2244 -0.1697 -0.4817
   41MOL    H3610516   5.453   1.198   6.982  1.2926 -0.6898  0.9140
   41MOL    H3710517   5.621   1.199   6.963  0.2147 -3.1525 -0.6185
   41MOL    H3810518   5.525   1.116   6.841 -0.9926  2.2868 -2.1250
   41MOL    H3910519   5.630   1.523   6.803 -1.3783 -1.4613 -1.6059
   41MOL    H4010520   5.676   1.430   6.945  2.0166  0.8818 -1.8415
   41MOL    C4110521   5.481   1.532   6.967 -0.1049 -0.8301  0.4457
   41MOL    C4210522   5.524   1.669   7.014 -0.2480 -0.3702  0.1556
   41MOL    C4310523   5.498   1.733   7.130  0.3183 -0.6283 -0.3905
   41MOL    C4410524   5.407   1.666   7.234  0.6229 -0.3434  0.3522
   41MOL    C4510525   5.549   1.872   7.170  0.7162  0.6366  1.0660
   41MOL    H4610526   5.458   1.474   7.056 -0.8174 -1.3123 -0.0486
   41MOL    H4710527   5.386   1.538   6.914 -0.1279  1.5936  0.7164
   41MOL    H4810528   5.585   1.722   6.942  0.6874 -1.9138 -0.2131
   41MOL    H4910529   5.337   1.733   7.284  1.0638  0.4878 -0.1405
   41MOL    H5010530   5.458   1.610   7.312  1.6819  0.9041  0.5675
   41MOL    H5110531   5.343   1.591   7.188  0.5652 -0.2003  0.2015
   41MOL    H5210532   5.469   1.921   7.227 -2.9597 -0.9980 -2.4256
   41MOL    H5310533   5.552   1.926   7.075 -3.6553  0.4182  0.6658
   41MOL    C5410534   5.676   1.878   7.259 -0.9918 -0.0177 -0.1039
   41MOL    C5510535   5.787   1.798   7.190 -0.4732  0.5372  0.5740
   41MOL    C5610536   5.899   1.849   7.127 -0.6359 -0.7108 -0.6885
   41MOL    C5710537   5.949   1.995   7.126  0.4933 -0.6074  0.2436
   41MOL    C5810538   5.994   1.745   7.074  0.1551 -0.1353  0.3123
   41MOL    H5910539   5.652   1.829   7.354 -0.7512 -1.0899 -0.5967
   41MOL    H6010540   5.712   1.980   7.272  1.5370 -0.6809 -1.6754
   41MOL    H6110541   5.761   1.694   7.181 -1.9924  0.8985  0.7436
   41MOL    H6210542   5.889   2.059   7.061 -0.5824  1.0033  2.7320
   41MOL    H6310543   6.048   1.991   7.080 -0.0270 -1.4914 -0.8308
   41MOL    H6410544   5.946   2.046   7.222 -0.1053 -0.1852  0.0038
   41MOL    H6510545   6.017   1.789   6.976 -3.6576 -1.1960 -1.1528
   41MOL    H6610546   5.950   1.648   7.051 -0.3662  0.0614  0.4885
   41MOL    C6710547   6.122   1.720   7.159 -0.1155 -0.4811  0.6742
   41MOL    C6810548   6.206   1.605   7.106 -0.0714  0.5914  0.1935
   41MOL    C6910549   6.283   1.528   7.184  0.3457  0.3913 -0.3622
   41MOL    C7010550   6.295   1.552   7.335 -0.2780 -0.1726  0.1898
   41MOL    C7110551   6.364   1.419   7.118  0.3502  0.6610  0.7017
   41MOL    H7210552   6.080   1.687   7.254 -1.1354  1.8360  1.0577
   41MOL    H7310553   6.183   1.810   7.163 -0.2780 -0.1903 -2.3961
   41MOL    H7410554   6.208   1.594   6.999 -2.7898  0.9370  0.0727
   41MOL    H7510555   6.399   1.526   7.354 -0.4046 -1.8604 -1.3282
   41MOL    H7610556   6.225   1.492   7.394  0.2931 -0.6235  0.4100
   41MOL    H7710557   6.279   1.656   7.367  1.5776 -0.4463  2.1324
   41MOL    H7810558   6.469   1.432   7.143  0.2882  0.1919  1.1957
   41MOL    H7910559   6.358   1.418   7.009  0.6267  3.4768  0.6040
   41MOL    C8010560   6.306   1.280   7.156  0.4184 -0.0000  0.3471
   41MOL    C8110561   6.384   1.159   7.110  0.2330 -0.2275  0.1964
   41MOL    C8210562   6.384   1.044   7.182 -0.5000 -0.3735  0.2143
   41MOL    C8310563   6.311   1.029   7.316 -0.0662  0.0867 -0.2599
   41MOL    C8410564   6.461   0.920   7.134 -0.1675 -0.1969  0.1389
   41MOL    H8510565   6.206   1.265   7.114 -1.0933  3.0884  2.6921
   41MOL    H8610566   6.306   1.274   7.265  0.6199  0.0333  0.3488
   41MOL    H8710567   6.436   1.154   7.015  0.0135 -1.8872  0.1368
   41MOL    H8810568   6.258   0.934   7.316 -2.2105  1.2667  0.5461
   41MOL    H8910569   6.236   1.104   7.342 -1.4712 -1.7017  0.9864
   41MOL    H9010570   6.374   1.015   7.404 -0.7460  0.7165  0.3260
   41MOL    H9110571   6.502   0.947   7.037  1.4225  3.4875  1.7508
   41MOL    H9210572   6.392   0.836   7.127 -1.1930  0.5565  0.9758
   41MOL    C9310573   6.582   0.872   7.224  0.0508  0.2181  0.1487
   41MOL    C9410574   6.608   0.723   7.207 -0.6962  0.4493  0.5677
   41MOL    C9510575   6.697   0.638   7.269 -0.1485  0.2224  0.3916
   41MOL    C9610576   6.797   0.685   7.367  0.0984 -0.4756  0.2409
   41MOL    C9710577   6.700   0.487   7.233  0.0264 -0.1725 -0.1391
   41MOL    H9810578   6.572   0.877   7.332 -0.6190 -0.5001  0.1198
   41MOL    H9910579   6.674   0.926   7.197  0.4032  0.1147  1.1221
   41MOL   H10010580   6.543   0.680   7.132 -1.4794  2.0385  0.3353
   41MOL   H10110581   6.898   0.663   7.331 -0.4711 -0.4332 -1.4147
   41MOL   H10210582   6.778   0.624   7.455 -0.9229 -0.2307  0.1882
   41MOL   H10310583   6.784   0.791   7.388 -1.2523 -0.3550 -1.1544
   41MOL   H10410584   6.685   0.430   7.325 -0.2164  0.4005  0.1816
   41MOL   H10510585   6.804   0.466   7.209  0.5875  0.9125  1.2510
   41MOL   C10610586   6.616   0.433   7.119  0.0434  0.0592  0.3018
   41MOL   C10710587   6.664   0.296   7.078 -0.3195 -0.0242  0.9531
   41MOL   C10810588   6.745   0.266   6.970  0.2456 -0.4673  0.1312
   41MOL   C10910589   6.806   0.367   6.876  0.1150 -0.1911  0.4575
   41MOL   C11010590   6.784   0.128   6.944  0.6970  0.2644 -0.4360
   41MOL   H11110591   6.629   0.504   7.038 -0.8474  0.6186  0.6374
   41MOL   H11210592   6.512   0.420   7.149  0.8015 -0.0559  3.0565
   41MOL   H11310593   6.640   0.211   7.141  1.7444 -0.3989  1.2996
   41MOL   H11410594   6.818   0.461   6.930  0.0809 -0.5306  1.0495
   41MOL   H11510595   6.739   0.389   6.792  0.8482  2.1926  0.4341
   41MOL   H11610596   6.906   0.334   6.847  0.1377 -0.4329  0.8154
   41MOL   H11710597   6.781   0.062   7.030  0.4685 -1.7954 -1.9750
   41MOL   H11810598   6.891   0.130   6.919  0.6536  2.6838 -0.5752
   41MOL   C11910599   6.716   0.077   6.814 -0.2836  0.1177  0.5540
   41MOL   C12010600   6.789   7.831   6.753 -0.5220  0.1661 -0.4173
   41MOL   C12110601   6.896   7.831   6.674  0.0817  0.2413  0.4942
   41MOL   C12210602   6.958   0.066   6.602 -0.3725  0.2814  0.5049
   41MOL   C12310603   6.958   7.694   6.644  0.0884  0.3119 -0.0695
   41MOL   H12410604   6.717   0.157   6.741 -0.4189 -0.9125 -0.5999
   41MOL   H12510605   6.611   0.064   6.842  0.0598 -0.2637  1.7116
   41MOL   H12610606   6.757   7.741   6.803 -2.7627  0.5990 -1.0035
   41MOL   H12710607   6.937   0.164   6.644 -0.9781 -0.5856  2.2614
   41MOL   H12810608   6.934   0.068   6.496  0.2196  2.1150  0.3799
   41MOL   H12910609   7.066   0.062   6.606 -0.1903 -1.9265 -3.9248
   41MOL   H13010610   6.881   7.622   6.673 -0.6312  1.3234  0.5403
   41MOL   H13110611   7.040   7.685   6.715  1.7721  1.1720 -1.8831
   41MOL   C13210612   6.998   7.684   6.498  0.8315  0.1472 -0.2108
   41MOL   C13310613   7.074   7.561   6.468 -0.3439 -0.0596  0.5175
   41MOL   C13410614   7.051   7.466   6.374 -0.1887 -0.2819 -0.0844
   41MOL   C13510615   6.928   7.452   6.292  0.0167 -0.0638 -0.2357
   41MOL   C13610616   7.148   7.353   6.347 -0.3430  0.1628 -0.2794
   41MOL   H13710617   7.065   7.763   6.462  2.7462 -0.9436  0.8812
   41MOL   H13810618   6.922   7.694   6.420  2.4170 -0.1958 -1.8633
   41MOL   H13910619   7.168   7.540   6.516 -0.0836  1.2951  0.5958
   41MOL   H14010620   6.853   7.531   6.302 -1.2521 -1.5043  2.1692
   41MOL   H14110621   6.867   7.366   6.321 -0.7064  1.3076  2.4965
   41MOL   H14210622   6.959   7.443   6.188 -0.5195 -0.8850 -0.3259
   41MOL   H14310623   7.106   7.254   6.335  0.4571 -0.0726 -1.2577
   41MOL   H14410624   7.205   7.340   6.439 -0.4233 -0.9055 -0.3809
   41MOL   C14510625   7.252   7.384   6.237  0.2100 -0.3206 -0.2965
   41MOL   C14610626   7.338   7.273   6.204  0.1730  0.1402 -0.2164
   41MOL   C14710627   7.373   7.221   6.079 -0.4088 -1.0042 -0.3455
   41MOL   C14810628   7.318   7.281   5.945  0.1617  0.0023  0.0164
   41MOL   C14910629   7.456   7.096   6.064 -0.5394  0.0845  0.1000
   41MOL   H15010630   7.308   7.471   6.270 -1.7817 -0.4774  3.8849
   41MOL   H15110631   7.207   7.422   6.145  0.2392  0.7859  0.1427
   41MOL   H15210632   7.392   7.232   6.288 -2.2730 -0.0367  1.3131
   41MOL   H15310633   7.256   7.202   5.903 -1.2674  0.1310  1.8109
   41MOL   H15410634   7.394   7.301   5.869  0.6667 -0.1423  0.4770
   41MOL   H15510635   7.257   7.370   5.956 -1.3846 -0.7592 -2.2176
   41MOL   H15610636   7.395   7.018   6.018 -1.5356 -1.6151  4.1165
   41MOL   H15710637   7.468   7.056   6.164  2.9481 -1.9873 -1.0585
   41MOL   C15810638   7.588   7.114   5.992  1.0828 -0.5494  0.1634
   41MOL   C15910639   7.677   6.991   5.984  0.0324 -0.4248 -0.5045
   41MOL   C16010640   7.805   6.988   5.952  0.3370 -0.6658 -0.0853
   41MOL   C16110641   0.009   7.112   5.937  0.3996  0.0727  0.2961
   41MOL   C16210642   7.882   6.859   5.933  0.6219 -0.0960 -0.2269
   41MOL   H16310643   7.629   7.198   6.049 -1.9019  0.4005  0.9783
   41MOL   H16410644   7.568   7.152   5.892 -0.6720 -2.1615 -0.1173
   41MOL   H16510645   7.628   6.895   5.995  0.3963 -0.5537  0.0355
   41MOL   H16610646   0.097   7.103   6.001  0.3421  0.4854  0.4308
   41MOL   H16710647   7.831   7.200   5.958 -0.2285 -0.3098  0.0972
   41MOL   H16810648   0.046   7.112   5.834  1.1391  1.9120  0.5450
   41MOL   H16910649   7.829   6.782   5.989 -0.0533  1.1198  0.8151
   41MOL   H17010650   0.095   6.870   5.985  0.1123 -1.0023  0.9308
   41MOL   C17110651   0.009   6.814   5.789  1.1298 -0.2792 -0.3257
   41MOL   C17210652   0.054   6.670   5.785  0.5890  0.1226  0.0054
   41MOL   C17310653   0.166   6.618   5.727  0.1644  0.2324 -0.5254
   41MOL   C17410654   0.275   6.705   5.673  0.3371  0.3372 -0.0686
   41MOL   C17510655   0.188   6.471   5.711 -0.3473 -0.3280 -0.3029
   41MOL   H17610656   0.071   6.887   5.737  2.3707  0.9450  2.7519
   41MOL   H17710657   7.802   6.809   5.726  0.8127 -1.4520  0.2210
   41MOL   H17810658   7.865   6.607   5.835 -0.0144 -0.0877 -1.1124
   41MOL   H17910659   0.376   6.669   5.694 -0.2322 -1.0063  0.3675
   41MOL   H18010660   0.275   6.805   5.718  0.7438  0.2526  0.1244
   41MOL   H18110661   0.260   6.713   5.565  0.5922 -1.4085 -0.2359
   41MOL   H18210662   0.109   6.418   5.765  1.3535 -0.9821  1.5747
   41MOL   H18310663   0.277   6.443   5.767  0.2361 -0.9074 -1.5141
   41MOL   C18410664   0.214   6.439   5.566 -0.3268  0.1095  0.8386
   41MOL   C18510665   0.249   6.287   5.543  0.4391  0.3738 -0.2838
   41MOL   C18610666   0.360   6.236   5.480  0.4706 -0.1718 -0.1119
   41MOL   C18710667   0.448   6.324   5.393  0.2795 -0.4306 -0.1631
   41MOL   C18810668   0.399   6.083   5.483  0.1421 -0.1828 -0.6383
   41MOL   H18910669   0.290   6.498   5.515 -0.0628 -0.4206  0.6086
   41MOL   H19010670   0.122   6.443   5.508  1.3055  1.9976 -1.7805
   41MOL   H19110671   0.198   6.212   5.601 -0.0570  0.2898 -0.8272
   41MOL   H19210672   0.543   6.325   5.447 -0.5649 -1.0937  1.3605
   41MOL   H19310673   0.404   6.419   5.365  0.5283 -0.1210  0.4746
   41MOL   H19410674   0.454   6.259   5.306  2.2673 -1.5984  0.7826
   41MOL   H19510675   0.369   6.034   5.575  1.4568 -0.9086 -0.5910
   41MOL   H19610676   0.507   6.082   5.471  0.1293 -0.6275 -0.7286
   41MOL   C19710677   0.327   6.011   5.369 -1.0834  0.8463  0.5341
   41MOL   C19810678   0.344   5.859   5.375  0.6360  0.0206 -0.3039
   41MOL   C19910679   0.270   5.770   5.306  0.4353 -0.2939 -0.3465
   41MOL   C20010680   0.175   5.817   5.202  0.2944  0.0384  0.2170
   41MOL   C20110681   0.276   5.619   5.332 -0.2281  0.6167  0.1590
   41MOL   H20210682   0.362   6.054   5.275 -3.6514 -0.8696 -1.2571
   41MOL   H20310683   0.221   6.033   5.367 -1.4250 -0.8053 -0.5789
   41MOL   H20410684   0.409   5.824   5.453  2.8103  0.6113 -1.8110
   41MOL   H20510685   0.071   5.785   5.210  0.4432 -0.1438  1.6680
   41MOL   H20610686   0.216   5.774   5.111 -1.2131 -0.6486 -0.1526
   41MOL   H20710687   0.177   5.924   5.180  1.3446 -0.3861 -1.8355
   41MOL   H20810688   0.180   5.580   5.363  0.3404 -0.1354  0.9970
   41MOL   H20910689   0.343   5.598   5.416 -1.9492  1.6771  1.8188
   41MOL   C21010690   0.321   5.531   5.213  0.7686  0.3645  0.0250
   41MOL   C21110691   0.294   5.389   5.238 -0.5022  0.6588 -0.0815
   41MOL   C21210692   0.382   5.289   5.233 -0.3250  0.1049  0.0292
   41MOL   C21310693   0.525   5.311   5.181 -0.5258  0.9152 -0.1702
   41MOL   C21410694   0.337   5.144   5.248 -0.2470  0.0220 -0.3023
   41MOL   H21510695   0.421   5.562   5.183 -0.2424  0.4962 -3.4414
   41MOL   H21610696   0.257   5.569   5.133  0.4545 -2.4244 -1.0682
   41MOL   H21710697   0.193   5.364   5.268 -0.7767  1.0116 -0.6830
   41MOL   H21810698   0.522   5.390   5.105 -0.6202 -0.9598 -2.1703
   41MOL   H21910699   0.558   5.224   5.126 -4.2832 -0.8060  0.1127
   41MOL   H22010700   0.592   5.347   5.258 -1.5298 -1.0180  1.6370
   41MOL   H22110701   0.368   5.101   5.153  0.9848  0.5250 -0.1395
   41MOL   H22210702   0.230   5.136   5.265 -0.7214  3.2532 -1.3818
   41MOL   C22310703   0.419   5.081   5.365 -0.0754  0.0806  0.0406
   41MOL   C22410704   0.386   4.928   5.377 -0.1155 -0.3507  0.6275
   41MOL   C22510705   0.273   4.868   5.427  0.3159 -0.1031  0.6958
   41MOL   C22610706   0.156   4.951   5.470 -0.3265 -0.2211 -0.4434
   41MOL   C22710707   0.257   4.723   5.413  0.4449  0.0281 -0.4807
   41MOL   H22810708   0.401   5.126   5.462  0.1883  0.5194 -0.1097
   41MOL   H22910709   0.524   5.092   5.336  0.4131 -0.2379  1.6712
   41MOL   H23010710   0.459   4.865   5.328 -2.3397 -2.7965  0.3576
   41MOL   H23110711   0.175   5.059   5.469  3.8175 -0.8514 -2.8302
   41MOL   H23210712   0.100   4.921   5.559  0.4352  0.9082  0.4361
   41MOL   H23310713   0.083   4.938   5.391  0.1413 -0.6694 -0.8061
   41MOL   H23410714   0.217   4.680   5.505 -1.8549  0.9891 -0.9969
   41MOL   H23510715   0.358   4.687   5.392  1.1337  1.8154 -0.3338
   41MOL   C23610716   0.140   4.683   5.311 -0.0191 -0.0915  0.7667
   41MOL   C23710717   0.081   4.542   5.336  0.2960  0.9218  0.3388
   41MOL   C23810718   0.068   4.447   5.239 -0.0020 -0.3572 -0.7813
   41MOL   C23910719   0.106   4.468   5.091 -1.2248 -0.5343 -0.5187
   41MOL   C24010720   0.007   4.316   5.264 -0.1004 -0.3931  0.2262
   41MOL   H24110721   0.170   4.694   5.207 -3.4057 -0.9877 -0.3532
   41MOL   H24210722   0.057   4.751   5.326  0.5396  1.3384 -2.3442
   41MOL   H24310723   0.046   4.516   5.435  0.0483 -0.4892 -0.1119
   41MOL   H24410724   0.100   4.570   5.053  0.1763  0.5251  2.0306
   41MOL   H24510725   0.071   4.388   5.024 -0.0606  0.3333 -2.2006
   41MOL   H24610726   0.212   4.442   5.090 -0.0266  3.9520 -1.4370
   41MOL   H24710727   0.071   4.236   5.228  0.4180  0.2518 -0.2880
   41MOL   H24810728   7.798   4.301   5.207  0.9839 -1.5092 -1.2509
   41MOL   C24910729   7.866   4.274   5.414  0.5150  0.5460 -0.8029
   41MOL   C25010730   7.811   4.133   5.422 -0.1192  0.2357  0.3234
   41MOL   C25110731   7.867   4.028   5.487  0.2952 -0.2477 -0.5156
   41MOL   C25210732   0.115   4.035   5.565 -0.1611 -1.0447  0.2096
   41MOL   C25310733   7.814   3.882   5.480  0.1316  0.3127  0.4295
   41MOL   H25410734   7.783   4.338   5.443  0.3847 -0.2190  0.5962
   41MOL   H25510735   0.062   4.290   5.489 -0.5470 -0.0027  0.4486
   41MOL   H25610736   7.722   4.131   5.360 -0.4596  1.4660  0.7665
   41MOL   H25710737   0.132   3.955   5.637  0.1317 -2.0612 -0.9828
   41MOL   H25810738   0.120   4.120   5.633 -1.4780 -0.3744 -0.5066
   41MOL   H25910739   0.200   4.045   5.498 -1.8628 -3.1724 -2.3640
   41MOL   H26010740   7.790   3.861   5.584  1.1072  0.1610  0.6288
   41MOL   H26110741   0.003   3.806   5.447 -1.2336 -1.0473  0.5262
   41MOL   H26210742   7.728   3.883   5.414 -1.1549 -1.0798  2.0356
   42MOL     C110743   1.219   3.179   5.421  0.0256  0.2585  0.4325
   42MOL     C210744   1.161   3.228   5.553 -0.2760 -0.0235 -0.0288
   42MOL     C310745   1.057   3.306   5.575  0.1412  0.7784 -0.0903
   42MOL     C410746   0.968   3.356   5.455  0.3984 -0.2411  0.1691
   42MOL     C510747   1.021   3.347   5.719 -0.0921  0.0727  0.6388
   42MOL     H610748   1.258   3.257   5.355 -1.6244  1.5979  1.0034
   42MOL     H710749   1.308   3.125   5.452  0.3739 -0.4054 -1.6885
   42MOL     H810750   1.201   3.210   5.651  1.5754  0.5616 -0.6507
   42MOL     H910751   0.999   3.311   5.361 -0.5158 -0.8674  0.1635
   42MOL    H1010752   0.973   3.465   5.452  1.0252 -0.2670  0.1454
   42MOL    H1110753   0.866   3.321   5.468 -0.3762  1.8873  0.0466
   42MOL    H1210754   0.985   3.449   5.704 -1.0054 -0.4586 -0.8117
   42MOL    H1310755   1.110   3.364   5.780 -1.7526  2.1420  2.5931
   42MOL    H1410756   1.156   3.109   5.366 -0.1074 -0.6853  1.7687
   42MOL    C1510757   0.925   3.259   5.795 -0.1397  0.0578 -0.7212
   42MOL    C1610758   0.789   3.269   5.731  1.1427  0.7054  0.0742
   42MOL    C1710759   0.669   3.296   5.788 -0.2435  0.2932 -0.6433
   42MOL    C1810760   0.653   3.343   5.925 -0.4811  0.2306 -0.1930
   42MOL    C1910761   0.544   3.296   5.703  0.3069  0.2492 -0.8455
   42MOL    H2010762   0.925   3.290   5.899 -0.8096  0.5678 -0.8645
   42MOL    H2110763   0.963   3.158   5.810 -1.4589 -0.2632  0.5158
   42MOL    H2210764   0.785   3.244   5.626 -3.3154  0.2648  0.2770
   42MOL    H2310765   0.584   3.272   5.970 -2.5216  1.8896 -0.5976
   42MOL    H2410766   0.588   3.431   5.930 -1.6933 -0.2317 -4.8540
   42MOL    H2510767   0.742   3.355   5.987  0.0907 -1.2190 -0.7339
   42MOL    H2610768   0.581   3.323   5.604 -2.2785  0.0046 -1.9128
   42MOL    H2710769   0.480   3.381   5.725  0.6321  0.3707 -0.3528
   42MOL    C2810770   0.456   3.171   5.696  0.5289 -0.3333  0.4752
   42MOL    C2910771   0.350   3.175   5.585  0.2939 -0.2177 -0.7864
   42MOL    C3010772   0.217   3.183   5.597 -0.5116 -0.2282 -0.0507
   42MOL    C3110773   0.145   3.198   5.725 -0.5133 -0.6289 -0.5061
   42MOL    C3210774   0.122   3.170   5.478  0.1931 -0.1591 -0.6477
   42MOL    H3310775   0.401   3.157   5.789 -2.2471  1.0400 -0.9207
   42MOL    H3410776   0.510   3.076   5.684  1.2288 -0.0307  1.1606
   42MOL    H3510777   0.395   3.151   5.490 -0.4228 -0.7611 -0.9998
   42MOL    H3610778   0.127   3.097   5.763 -0.2093 -0.4595  0.1015
   42MOL    H3710779   0.046   3.238   5.707 -0.3003 -0.5709 -1.5731
   42MOL    H3810780   0.203   3.245   5.804  1.3989 -1.1476 -1.5488
   42MOL    H3910781   0.031   3.120   5.512  0.8402 -1.8226 -1.2774
   42MOL    H4010782   0.177   3.120   5.398  2.9318 -1.3883  1.8864
   42MOL    C4110783   0.084   3.310   5.414  0.6080  0.4123  0.2620
   42MOL    C4210784   7.877   3.288   5.296  0.0069  0.5030 -0.5313
   42MOL    C4310785   7.828   3.385   5.217 -0.1041 -0.3753  0.4884
   42MOL    C4410786   7.870   3.531   5.224  0.2419  0.6187  0.5529
   42MOL    C4510787   7.720   3.356   5.109  0.2143 -0.7574 -0.3196
   42MOL    H4610788   0.171   3.371   5.391  1.1813  0.2859  2.0244
   42MOL    H4710789   0.024   3.364   5.488  0.0472 -1.4923  1.2353
   42MOL    H4810790   7.843   3.185   5.291 -0.6140  0.6947 -0.3190
   42MOL    H4910791   0.074   3.548   5.160 -0.6887  0.3514 -0.7752
   42MOL    H5010792   0.021   3.557   5.325  1.2733 -2.1807  0.9766
   42MOL    H5110793   7.800   3.608   5.194  1.0580  0.0389 -3.1000
   42MOL    H5210794   7.749   3.374   5.006 -0.7848 -0.0924 -0.4923
   42MOL    H5310795   7.643   3.430   5.132 -0.1663 -0.5131 -2.3260
   42MOL    C5410796   7.650   3.226   5.114 -0.0759 -0.2999 -0.0102
   42MOL    C5510797   7.547   3.234   5.006 -0.4283  0.4040  0.1300
   42MOL    C5610798   7.410   3.243   5.017 -0.4692 -0.6011  0.6639
   42MOL    C5710799   7.328   3.257   5.142 -0.6229 -0.3415  0.2218
   42MOL    C5810800   7.328   3.242   4.890  0.2256 -0.4782  0.3009
   42MOL    H5910801   7.605   3.224   5.213 -0.2975 -0.5603 -0.1158
   42MOL    H6010802   7.717   3.142   5.100 -0.7423 -0.7442 -0.5628
   42MOL    H6110803   7.594   3.226   4.909 -0.5265  1.3323  0.0007
   42MOL    H6210804   7.261   3.342   5.129 -0.1844  0.0304  0.3671
   42MOL    H6310805   7.374   3.279   5.239  1.2030  1.7969 -1.0812
   42MOL    H6410806   7.282   3.159   5.156 -0.1434 -0.5006  0.7179
   42MOL    H6510807   7.400   3.257   4.809  0.9930 -1.4923  0.7796
   42MOL    H6610808   7.257   3.324   4.894  1.4189  0.6277 -0.6794
   42MOL    C6710809   7.257   3.110   4.866  0.0340  0.6998  0.2480
   42MOL    C6810810   7.224   3.089   4.717  0.0776 -0.7940  0.0691
   42MOL    C6910811   7.281   3.003   4.633  0.0592 -0.2975  0.0080
   42MOL    C7010812   7.372   2.893   4.679 -0.2782 -0.5668  0.8100
   42MOL    C7110813   7.264   3.015   4.478  0.1643 -0.2478  0.7376
   42MOL    H7210814   7.160   3.107   4.914 -0.8679 -1.4266 -1.6347
   42MOL    H7310815   7.320   3.033   4.910  2.9585  2.2928 -0.9442
   42MOL    H7410816   7.158   3.167   4.682 -1.0909 -0.6332  2.5332
   42MOL    H7510817   7.470   2.938   4.666 -0.8458  0.3576 -0.3788
   42MOL    H7610818   7.367   2.810   4.609 -0.9193  2.3381 -2.7228
   42MOL    H7710819   7.348   2.846   4.774 -0.1707  0.5127  1.3884
   42MOL    H7810820   7.354   2.984   4.425  0.2417  0.4766  0.4416
   42MOL    H7910821   7.254   3.122   4.457 -0.1265 -0.3792  0.2195
   42MOL    C8010822   7.151   2.932   4.429  0.2648  0.4512 -0.4037
   42MOL    C8110823   7.122   2.921   4.280 -0.4569  0.0425  0.2294
   42MOL    C8210824   7.069   2.808   4.226  0.9684  0.1862 -0.8667
   42MOL    C8310825   7.006   2.688   4.305  0.0951 -0.1746 -0.8229
   42MOL    C8410826   7.058   2.794   4.079  0.3383 -0.3376 -0.2635
   42MOL    H8510827   7.061   2.962   4.484  0.0617 -0.0027 -0.4877
   42MOL    H8610828   7.185   2.831   4.450  0.0538  0.1332 -1.5609
   42MOL    H8710829   7.150   3.001   4.214 -0.5630  1.2624  1.6312
   42MOL    H8810830   6.964   2.721   4.400  0.0662 -1.9957 -0.1819
   42MOL    H8910831   7.088   2.615   4.312  0.2572 -0.1381 -2.2812
   42MOL    H9010832   6.926   2.637   4.252  0.1945 -0.8461 -0.3492
   42MOL    H9110833   7.081   2.691   4.054  0.5033  0.0070 -1.5286
   42MOL    H9210834   7.132   2.861   4.036 -0.3214 -0.8010 -2.1704
   42MOL    C9310835   6.917   2.827   4.026 -0.0413  0.2153  0.3487
   42MOL    C9410836   6.916   2.782   3.886 -0.1907  0.2251  0.2701
   42MOL    C9510837   6.829   2.821   3.787 -0.4940 -0.7018 -0.4760
   42MOL    C9610838   6.715   2.934   3.803  0.2361  0.0832 -0.2412
   42MOL    C9710839   6.831   2.757   3.648 -0.3035  0.6781  0.4842
   42MOL    H9810840   6.912   2.936   4.036  0.1852  0.4153 -1.5617
   42MOL    H9910841   6.837   2.771   4.075  0.2243  0.4284  1.0353
   42MOL   H10010842   6.989   2.705   3.868 -1.3866 -0.9512  0.3598
   42MOL   H10110843   6.738   3.010   3.877 -2.6390 -0.1610  0.9870
   42MOL   H10210844   6.629   2.871   3.829  0.6609 -0.8508 -1.0902
   42MOL   H10310845   6.701   2.974   3.703  0.1508  0.7037  0.0171
   42MOL   H10410846   6.933   2.725   3.633 -1.0850 -1.8811  0.4859
   42MOL   H10510847   6.804   2.839   3.581 -1.0959  0.5120  0.5927
   42MOL   C10610848   6.720   2.644   3.629 -0.7744 -1.0699  0.0931
   42MOL   C10710849   6.583   2.696   3.591  0.7731 -0.9697 -0.3289
   42MOL   C10810850   6.463   2.699   3.651  0.1924  0.2689  0.4153
   42MOL   C10910851   6.438   2.631   3.787  0.8641 -0.0336  0.6814
   42MOL   C11010852   6.344   2.777   3.596  0.0631  0.1812  0.6734
   42MOL   H11110853   6.706   2.586   3.721  0.5101 -1.5115  0.0264
   42MOL   H11210854   6.750   2.575   3.549  3.4757 -0.6138  1.1926
   42MOL   H11310855   6.587   2.763   3.506 -0.6321  0.3929  0.6410
   42MOL   H11410856   6.506   2.546   3.785  2.7033  1.4268 -0.7001
   42MOL   H11510857   6.339   2.587   3.799  0.8701 -0.2822 -0.1503
   42MOL   H11610858   6.464   2.704   3.863 -0.9602  1.9274 -0.5004
   42MOL   H11710859   6.254   2.722   3.624 -1.7759  2.1744 -1.1332
   42MOL   H11810860   6.350   2.777   3.487  0.6712  2.9508  0.6867
   42MOL   C11910861   6.335   2.918   3.657  0.3714 -0.3603 -0.3587
   42MOL   C12010862   6.213   3.000   3.629 -0.2463  0.5992 -0.3009
   42MOL   C12110863   6.206   3.136   3.644  0.5867  0.3362 -0.5449
   42MOL   C12210864   6.331   3.224   3.667  0.0565  0.7541 -0.1818
   42MOL   C12310865   6.080   3.221   3.611  0.1805 -0.0681 -0.0346
   42MOL   H12410866   6.432   2.968   3.654 -0.0477  0.4891  0.0100
   42MOL   H12510867   6.323   2.919   3.765  1.0136 -0.8225 -0.2857
   42MOL   H12610868   6.128   2.940   3.603  1.7691 -2.2048 -0.6662
   42MOL   H12710869   6.398   3.173   3.736 -3.2400 -0.7842  2.0396
   42MOL   H12810870   6.313   3.322   3.713 -0.4710 -0.0532  1.3545
   42MOL   H12910871   6.385   3.246   3.575 -0.3759  0.9988 -0.3792
   42MOL   H13010872   6.066   3.296   3.688 -2.0228  0.5553 -1.0089
   42MOL   H13110873   5.992   3.159   3.624 -0.3829  0.6808 -0.2433
   42MOL   C13210874   6.080   3.281   3.474  0.1178  0.1494  0.1082
   42MOL   C13310875   5.980   3.398   3.462 -0.5722  0.1561  0.8794
   42MOL   C13410876   5.912   3.423   3.348  0.0605  0.0856  0.6335
   42MOL   C13510877   5.921   3.334   3.228 -0.3491  0.2832 -0.4045
   42MOL   C13610878   5.806   3.537   3.346  0.2153 -0.4256 -0.2387
   42MOL   H13710879   6.056   3.201   3.404 -0.6164 -1.7242  2.4197
   42MOL   H13810880   6.181   3.314   3.448 -0.4274  1.9747  0.2651
   42MOL   H13910881   5.978   3.469   3.544 -0.7322  0.1748  0.8583
   42MOL   H14010882   6.028   3.320   3.213  0.1057  2.4246  0.5375
   42MOL   H14110883   5.875   3.371   3.136 -1.3603 -1.2577 -0.5262
   42MOL   H14210884   5.892   3.233   3.255 -1.1353  0.2721 -1.2654
   42MOL   H14310885   5.822   3.601   3.260 -0.0661  0.7960  0.6088
   42MOL   H14410886   5.812   3.594   3.439 -0.2179 -0.3421 -0.2600
   42MOL   C14510887   5.662   3.475   3.347  0.0892  0.4756  0.1082
   42MOL   C14610888   5.544   3.572   3.359 -0.2527 -0.0840  0.2881
   42MOL   C14710889   5.429   3.558   3.430  0.4432  0.4065 -0.0058
   42MOL   C14810890   5.387   3.433   3.498  0.5040  0.1527  0.3101
   42MOL   C14910891   5.326   3.671   3.438 -0.2714  0.1268 -0.0102
   42MOL   H15010892   5.661   3.394   3.420  0.3269 -1.0302 -1.5100
   42MOL   H15110893   5.657   3.416   3.255 -1.6977 -2.3448  1.9328
   42MOL   H15210894   5.552   3.666   3.305  0.8950  0.8432  2.0078
   42MOL   H15310895   5.354   3.470   3.595 -3.2431  1.5904 -1.4286
   42MOL   H15410896   5.462   3.355   3.514  1.6425  0.1443 -4.4543
   42MOL   H15510897   5.301   3.384   3.451  1.5526 -1.2233 -0.2185
   42MOL   H15610898   5.386   3.762   3.430 -1.3489  0.7567 -1.3422
   42MOL   H15710899   5.275   3.669   3.534  0.7464 -0.0252  0.5308
   42MOL   C15810900   5.224   3.669   3.322  0.6977  0.1915  0.7764
   42MOL   C15910901   5.096   3.738   3.368 -0.5978 -0.2549 -0.0823
   42MOL   C16010902   4.993   3.683   3.428 -0.4581 -0.6162  0.3669
   42MOL   C16110903   4.981   3.535   3.464  0.2994 -0.1194 -0.3133
   42MOL   C16210904   4.878   3.770   3.473  0.0816  0.3898 -0.1627
   42MOL   H16310905   5.190   3.573   3.283  2.3591  0.2761 -0.8990
   42MOL   H16410906   5.271   3.727   3.242 -1.2439  1.1138  0.2633
   42MOL   H16510907   5.105   3.843   3.345  2.2584 -0.6661 -1.0839
   42MOL   H16610908   4.898   3.480   3.420  2.3387 -1.2906 -2.7917
   42MOL   H16710909   4.967   3.513   3.570  0.9065  1.5627  0.1421
   42MOL   H16810910   5.071   3.481   3.437 -0.0854 -0.9485  0.0687
   42MOL   H16910911   4.791   3.762   3.409 -0.7516  2.3331  0.6840
   42MOL   H17010912   4.901   3.877   3.466 -0.4024  0.4634 -0.6322
   42MOL   C17110913   4.846   3.751   3.624 -0.3458  0.6588 -0.7627
   42MOL   C17210914   4.756   3.859   3.679  0.2499  0.4708 -0.7901
   42MOL   C17310915   4.630   3.848   3.730  0.0329  0.0076  0.1162
   42MOL   C17410916   4.534   3.722   3.716 -0.1014  0.0957 -0.0785
   42MOL   C17510917   4.569   3.972   3.789 -0.2974 -0.1381 -0.4423
   42MOL   H17610918   4.937   3.750   3.684 -2.1143  0.1524  1.9929
   42MOL   H17710919   4.794   3.656   3.635  1.5662 -0.2932  0.3466
   42MOL   H17810920   4.801   3.957   3.683 -0.8395  1.0809 -2.7954
   42MOL   H17910921   4.542   3.655   3.802 -0.8443 -1.6792 -1.3785
   42MOL   H18010922   4.562   3.668   3.627 -2.1668 -1.7021  0.3356
   42MOL   H18110923   4.433   3.751   3.691  0.8979  2.4833 -1.5022
   42MOL   H18210924   4.502   4.014   3.713 -1.4341 -0.4444  0.3726
   42MOL   H18310925   4.647   4.048   3.789  0.8105 -1.2436  0.5538
   42MOL   C18410926   4.507   3.955   3.925  0.8428 -0.5306 -0.2484
   42MOL   C18510927   4.452   4.090   3.980 -0.1342  0.3395  0.6454
   42MOL   C18610928   4.499   4.165   4.082  1.2018 -0.4279  0.2354
   42MOL   C18710929   4.621   4.136   4.171  0.3095  0.0785 -0.1656
   42MOL   C18810930   4.421   4.284   4.125  0.2075 -0.0386 -0.3007
   42MOL   H18910931   4.571   3.912   4.003 -1.2740 -0.1088  1.7650
   42MOL   H19010932   4.436   3.874   3.908  2.8145 -1.8036 -2.8440
   42MOL   H19110933   4.356   4.122   3.941 -0.2577 -1.2237 -0.4065
   42MOL   H19210934   4.593   4.137   4.276 -1.8671  3.4129 -0.7217
   42MOL   H19310935   4.704   4.205   4.156  0.8524 -0.4824  0.1888
   42MOL   H19410936   4.663   4.036   4.155 -0.6606 -0.4174  0.3367
   42MOL   H19510937   4.388   4.264   4.227  2.6419  0.9432  0.7087
   42MOL   H19610938   4.323   4.292   4.078  0.2873 -0.1965 -0.4941
   42MOL   C19710939   4.504   4.414   4.122 -0.9616  0.2397  0.2586
   42MOL   C19810940   4.412   4.522   4.177  0.3780 -0.2763 -0.1208
   42MOL   C19910941   4.391   4.651   4.131  0.5368  0.3123  0.6723
   42MOL   C20010942   4.478   4.726   4.032  0.1229  0.5537 -1.0327
   42MOL   C20110943   4.280   4.744   4.188 -0.7587 -0.3153 -0.3708
   42MOL   H20210944   4.548   4.431   4.024 -1.5738 -1.7390 -0.3767
   42MOL   H20310945   4.591   4.402   4.187 -0.2764 -2.3780 -1.0819
   42MOL   H20410946   4.352   4.488   4.260  1.3052 -1.2357  0.1679
   42MOL   H20510947   4.569   4.672   4.006 -0.8111 -1.5037 -0.1309
   42MOL   H20610948   4.503   4.822   4.078  0.1126 -0.2757  0.7347
   42MOL   H20710949   4.432   4.739   3.934 -1.2385 -1.5057 -0.6901
   42MOL   H20810950   4.228   4.681   4.260  1.9734 -2.5946 -0.3182
   42MOL   H20910951   4.209   4.768   4.109  1.7680  1.4173 -2.2064
   42MOL   C21010952   4.343   4.862   4.270 -0.2539  0.4347  0.1928
   42MOL   C21110953   4.241   4.906   4.374  0.3338  0.1778 -0.3708
   42MOL   C21210954   4.269   4.946   4.501  0.3695  0.4621  0.3924
   42MOL   C21310955   4.413   4.956   4.561  0.4649  0.0382 -0.2279
   42MOL   C21410956   4.156   4.962   4.599 -0.3293 -0.3458  0.6365
   42MOL   H21510957   4.367   4.950   4.211 -1.7509  1.2994  0.8576
   42MOL   H21610958   4.436   4.832   4.319  0.8973 -0.0351 -2.2116
   42MOL   H21710959   4.138   4.912   4.343  0.2011 -0.3000 -0.0302
   42MOL   H21810960   4.484   4.969   4.480 -0.8391  1.4517 -1.1595
   42MOL   H21910961   4.442   4.864   4.614 -3.6494 -1.5213 -0.5423
   42MOL   H22010962   4.422   5.045   4.624 -1.5457 -0.1163  0.3134
   42MOL   H22110963   4.174   4.895   4.683  0.0821 -0.4901  0.4351
   42MOL   H22210964   4.064   4.920   4.559 -0.1711  1.5792 -1.9269
   42MOL   C22310965   4.140   5.103   4.660 -0.0716  0.1029  0.0547
   42MOL   C22410966   4.123   5.209   4.551  0.3571  0.2274 -0.1243
   42MOL   C22510967   4.004   5.260   4.494 -0.4742  0.1790 -0.4515
   42MOL   C22610968   3.866   5.227   4.538  0.3038  0.7686 -0.6145
   42MOL   C22710969   4.006   5.359   4.381 -0.0485  1.5224  0.6102
   42MOL   H22810970   4.230   5.121   4.717 -0.1644  0.5411  0.0641
   42MOL   H22910971   4.060   5.101   4.734  0.5992  0.1635  0.7786
   42MOL   H23010972   4.220   5.245   4.519  0.0962  0.6200 -0.4836
   42MOL   H23110973   3.871   5.185   4.638 -0.9094  1.9244 -0.0580
   42MOL   H23210974   3.820   5.164   4.462 -1.6128  2.5244 -0.9616
   42MOL   H23310975   3.806   5.317   4.548  0.1626  0.4872  1.2977
   42MOL   H23410976   3.963   5.454   4.414  1.5996  2.7081 -0.5747
   42MOL   H23510977   3.933   5.303   4.322  1.3839 -0.5890  0.7829
   42MOL   C23610978   4.144   5.377   4.305  0.4153 -0.4844 -0.0316
   42MOL   C23710979   4.127   5.428   4.164  0.2138 -0.1148  0.1321
   42MOL   C23810980   4.179   5.547   4.111 -0.0454 -0.2162 -0.5149
   42MOL   C23910981   4.262   5.645   4.185  0.6744 -0.5258 -0.5385
   42MOL   C24010982   4.142   5.598   3.974  0.1275  0.3517  0.0904
   42MOL   H24110983   4.189   5.278   4.294 -1.3767 -1.3786  0.3962
   42MOL   H24210984   4.198   5.442   4.374  0.9320  0.9729 -1.7946
   42MOL   H24310985   4.066   5.365   4.102 -0.5903  2.6197 -1.9557
   42MOL   H24410986   4.304   5.609   4.279 -1.1666  2.2438  1.4523
   42MOL   H24510987   4.196   5.726   4.217 -1.0522 -1.3285 -1.9684
   42MOL   H24610988   4.326   5.692   4.110 -0.2626 -0.2019 -1.1529
   42MOL   H24710989   4.080   5.515   3.942 -0.0656 -0.4474  2.4992
   42MOL   H24810990   4.240   5.582   3.928  1.5323 -0.3027  3.2121
   42MOL   C24910991   4.077   5.735   3.961 -0.1337 -0.3144  0.4206
   42MOL   C25010992   3.955   5.756   4.053  0.1808 -0.0646 -0.0852
   42MOL   C25110993   3.932   5.862   4.129 -0.3325  0.3443 -0.5520
   42MOL   C25210994   4.015   5.987   4.143  0.2806  0.1679  0.7812
   42MOL   C25310995   3.824   5.851   4.237  0.1341 -0.3742  0.4476
   42MOL   H25410996   4.029   5.741   3.864 -1.0696 -0.2776  0.8840
   42MOL   H25510997   4.161   5.805   3.961  0.5023 -1.0643 -0.8377
   42MOL   H25610998   3.893   5.668   4.062  0.6470 -0.1358  2.7028
   42MOL   H25710999   4.071   5.997   4.236 -1.7122 -0.2795  2.0483
   42MOL   H25811000   3.951   6.075   4.143  0.0686  0.0146  0.7095
   42MOL   H25911001   4.082   5.999   4.058  0.4334  2.1182  1.1595
   42MOL   H26011002   3.744   5.784   4.205  1.3264 -1.0257 -1.2355
   42MOL   H26111003   3.782   5.950   4.256  0.8148 -0.3747  2.0400
   42MOL   H26211004   3.874   5.814   4.327 -0.3665 -1.5848  0.2419
   43MOL     C111005   1.305   2.416   0.723 -0.8478  0.1922 -0.4726
   43MOL     C211006   1.189   2.447   0.816 -0.0764 -0.5751 -0.1646
   43MOL     C311007   1.179   2.532   0.916  0.3753  0.5369 -0.1879
   43MOL     C411008   1.282   2.625   0.972  0.0866 -0.2188  0.9054
   43MOL     C511009   1.036   2.545   0.977  0.3976 -0.3567  0.7116
   43MOL     H611010   1.367   2.340   0.770  0.4894  0.2353 -2.0937
   43MOL     H711011   1.275   2.378   0.625  0.9415 -0.0109 -0.9614
   43MOL     H811012   1.098   2.390   0.804  0.4406 -1.2400 -1.0014
   43MOL     H911013   1.246   2.727   0.960 -0.7278 -0.7014 -0.8076
   43MOL    H1011014   1.374   2.629   0.914 -1.0735  0.7558 -0.8887
   43MOL    H1111015   1.310   2.621   1.078 -0.4827 -2.2140  1.0057
   43MOL    H1211016   0.961   2.524   0.901  0.7563 -0.5979  0.4275
   43MOL    H1311017   1.005   2.648   0.998  0.6724  0.4021 -2.4841
   43MOL    H1411018   1.383   2.490   0.706 -0.4602 -0.2999 -0.8676
   43MOL    C1511019   1.027   2.460   1.106 -0.0886  0.2950  0.3983
   43MOL    C1611020   0.904   2.503   1.193  0.7706  0.3723  0.7782
   43MOL    C1711021   0.903   2.572   1.305  0.3074 -0.3757 -0.3399
   43MOL    C1811022   1.030   2.617   1.375  0.4434  0.4157  0.0458
   43MOL    C1911023   0.771   2.620   1.363 -0.1318 -0.7207 -0.6966
   43MOL    H2011024   1.120   2.463   1.163  0.8710 -3.5690 -0.8328
   43MOL    H2111025   1.019   2.355   1.081  0.9164  0.0989  0.8671
   43MOL    H2211026   0.812   2.477   1.143  2.5671 -1.3333 -1.8184
   43MOL    H2311027   1.119   2.559   1.351 -0.2997 -0.2721 -1.0269
   43MOL    H2411028   1.010   2.602   1.481 -0.4429 -0.0749 -0.1946
   43MOL    H2511029   1.052   2.721   1.349  1.6535  0.2285  0.2901
   43MOL    H2611030   0.746   2.721   1.331  0.0986 -0.2459  0.5988
   43MOL    H2711031   0.790   2.605   1.469 -0.5962  0.0158 -0.5056
   43MOL    C2811032   0.644   2.546   1.327 -0.2327 -0.0020 -0.8986
   43MOL    C2911033   0.527   2.592   1.413 -0.5798 -0.3523 -0.2347
   43MOL    C3011034   0.473   2.531   1.518 -0.0197  0.4251  0.2305
   43MOL    C3111035   0.525   2.397   1.572  0.1152 -0.4157  0.6327
   43MOL    C3211036   0.361   2.593   1.603 -0.8814  0.1091 -0.0700
   43MOL    H3311037   0.662   2.440   1.342  2.0037  0.2352 -1.8525
   43MOL    H3411038   0.628   2.570   1.222  0.1096 -2.9303 -1.6449
   43MOL    H3511039   0.504   2.695   1.389  1.3650  0.9030  3.0445
   43MOL    H3611040   0.561   2.333   1.492 -0.2114  2.7024 -2.0986
   43MOL    H3711041   0.448   2.344   1.628  0.1613  0.3330  1.4097
   43MOL    H3811042   0.608   2.412   1.641 -2.1226  0.5512  3.2265
   43MOL    H3911043   0.287   2.519   1.633 -0.2296 -0.0191  1.2637
   43MOL    H4011044   0.316   2.682   1.558  0.8485  1.7442  1.3171
   43MOL    C4111045   0.419   2.643   1.740 -0.0885 -0.2331 -0.5059
   43MOL    C4211046   0.494   2.768   1.721 -0.0222  0.4679 -0.4877
   43MOL    C4311047   0.611   2.806   1.777 -0.1262 -0.5193 -0.0407
   43MOL    C4411048   0.697   2.699   1.847 -0.3451  0.2062  0.3918
   43MOL    C4511049   0.672   2.943   1.754 -0.5437 -0.4143 -0.6277
   43MOL    H4611050   0.462   2.555   1.788  0.4548  0.8241  0.9700
   43MOL    H4711051   0.341   2.661   1.814  0.9892 -0.1430  0.6149
   43MOL    H4811052   0.441   2.843   1.665 -0.8315  0.2590 -0.0020
   43MOL    H4911053   0.644   2.650   1.928  0.4363 -0.5349  0.4523
   43MOL    H5011054   0.787   2.743   1.890  0.6247  0.9605 -2.2618
   43MOL    H5111055   0.735   2.623   1.779 -2.5547  0.7230 -1.5193
   43MOL    H5211056   0.719   2.981   1.844  0.4630 -1.7137 -0.5937
   43MOL    H5311057   0.590   3.013   1.736  0.4371  1.9845  3.5828
   43MOL    C5411058   0.773   2.938   1.640 -0.6575 -0.4436 -0.9800
   43MOL    C5511059   0.842   3.074   1.630  0.3725  0.0357 -0.7579
   43MOL    C5611060   0.878   3.141   1.523  0.6759 -0.5044 -0.1195
   43MOL    C5711061   0.850   3.093   1.384 -0.2855 -0.2835 -0.5113
   43MOL    C5811062   0.930   3.283   1.534  0.1095  0.6542  0.2750
   43MOL    H5911063   0.725   2.912   1.546 -0.2071  0.9387 -1.6137
   43MOL    H6011064   0.857   2.873   1.667 -1.4350 -1.7064 -1.5545
   43MOL    H6111065   0.870   3.126   1.720 -1.6117 -2.5506  1.4469
   43MOL    H6211066   0.742   3.097   1.373 -0.2988  0.0503 -0.2551
   43MOL    H6311067   0.891   2.996   1.355 -0.4976 -0.6547  0.4219
   43MOL    H6411068   0.898   3.157   1.310 -0.1467 -0.2780 -0.4162
   43MOL    H6511069   0.963   3.319   1.437 -1.4955 -0.6915 -0.8197
   43MOL    H6611070   1.013   3.271   1.603 -0.1419  1.0489  0.6515
   43MOL    C6711071   0.823   3.378   1.581 -0.2120  0.7148  0.0734
   43MOL    C6811072   0.888   3.505   1.638  0.7404  0.3418 -1.0355
   43MOL    C6911073   0.845   3.630   1.614 -0.5805 -0.8832  0.6665
   43MOL    C7011074   0.712   3.661   1.547 -0.4006 -0.2780  0.5060
   43MOL    C7111075   0.925   3.757   1.651  0.8077  0.2690 -0.0736
   43MOL    H7211076   0.775   3.326   1.664 -1.0219  1.0659 -0.1651
   43MOL    H7311077   0.749   3.397   1.503  0.8710 -0.8484 -1.3650
   43MOL    H7411078   0.976   3.477   1.694 -0.7609 -1.1346  0.6566
   43MOL    H7511079   0.711   3.698   1.445  0.0935  0.2788  0.6946
   43MOL    H7611080   0.658   3.720   1.622  0.0373  0.5649  0.1687
   43MOL    H7711081   0.649   3.573   1.552  1.9377 -1.9601  1.5534
   43MOL    H7811082   0.886   3.846   1.602 -1.3049 -0.6998 -0.1916
   43MOL    H7911083   1.025   3.743   1.609  0.4977 -0.2089 -0.6593
   43MOL    C8011084   0.930   3.770   1.803 -0.1620  0.5383 -0.4082
   43MOL    C8111085   0.973   3.911   1.849  0.0336 -0.5758 -0.4697
   43MOL    C8211086   0.884   4.012   1.878 -0.1515 -0.6569  0.4108
   43MOL    C8311087   0.731   4.007   1.862  0.6430  0.3241 -0.1524
   43MOL    C8411088   0.933   4.147   1.927 -0.2416 -0.6007 -0.0301
   43MOL    H8511089   0.996   3.693   1.842 -0.4833  0.9201  0.9310
   43MOL    H8611090   0.830   3.755   1.844 -0.2387  0.5515 -0.5928
   43MOL    H8711091   1.080   3.927   1.848 -0.0693  0.1190 -0.3584
   43MOL    H8811092   0.685   4.066   1.783 -0.6013  0.2655  0.5271
   43MOL    H8911093   0.687   4.034   1.958  0.9098 -3.5180  1.1594
   43MOL    H9011094   0.697   3.905   1.841  1.0747  0.9874 -4.6334
   43MOL    H9111095   0.897   4.161   2.029  0.0622  0.3140 -0.0423
   43MOL    H9211096   0.879   4.223   1.871  1.1192  0.0969 -0.4207
   43MOL    C9311097   1.085   4.173   1.903 -0.0304  0.0027 -0.4598
   43MOL    C9411098   1.106   4.322   1.934 -0.8366 -0.8714  0.2117
   43MOL    C9511099   1.191   4.384   2.022 -0.3483  0.4425 -0.2775
   43MOL    C9611100   1.305   4.322   2.102  0.3167  0.2489 -0.0418
   43MOL    C9711101   1.179   4.536   2.035  0.3980 -0.6252  0.1168
   43MOL    H9811102   1.118   4.158   1.800  1.9869  0.2945  0.1206
   43MOL    H9911103   1.154   4.113   1.962 -0.1707  0.1687 -0.1223
   43MOL   H10011104   1.042   4.383   1.872  1.3069  0.5823 -0.6386
   43MOL   H10111105   1.397   4.360   2.058  0.8311 -1.6237 -0.6343
   43MOL   H10211106   1.299   4.213   2.099 -0.6542  0.2691  0.7729
   43MOL   H10311107   1.290   4.351   2.206 -0.3892 -1.2398  0.2867
   43MOL   H10411108   1.135   4.561   2.131  0.6400 -3.8748  1.1258
   43MOL   H10511109   1.113   4.567   1.954 -0.5072 -1.5018  0.5025
   43MOL   C10611110   1.311   4.605   2.025  0.2384 -0.5734  0.1362
   43MOL   C10711111   1.291   4.757   2.007 -0.9169  0.1852  0.3538
   43MOL   C10811112   1.271   4.825   1.888  0.1078  0.3976 -0.2634
   43MOL   C10911113   1.266   4.755   1.751  0.2315  0.4213  0.0439
   43MOL   C11011114   1.254   4.973   1.878 -0.0798  0.5753  0.1333
   43MOL   H11111115   1.372   4.568   1.942  1.5107  0.7797  0.4440
   43MOL   H11211116   1.375   4.599   2.113 -0.1758 -0.3988  0.4500
   43MOL   H11311117   1.299   4.821   2.094  0.6913 -0.1504  0.4624
   43MOL   H11411118   1.356   4.770   1.692 -0.7498 -0.5577 -1.7694
   43MOL   H11511119   1.179   4.792   1.697  0.5752  0.5942 -0.3920
   43MOL   H11611120   1.256   4.646   1.756 -0.4690  0.5646  2.2000
   43MOL   H11711121   1.312   5.017   1.797 -1.0210  0.4266 -0.6251
   43MOL   H11811122   1.303   5.016   1.965 -1.0414  0.0614  0.9422
   43MOL   C11911123   1.115   5.025   1.840 -0.5150 -0.0010  0.0119
   43MOL   C12011124   1.018   4.969   1.947  0.3967  0.7734  0.1125
   43MOL   C12111125   0.946   5.033   2.043  0.2319 -0.4056  0.9590
   43MOL   C12211126   0.948   5.182   2.068  0.3235 -0.2789  0.4681
   43MOL   C12311127   0.851   4.958   2.132  0.2518  0.0224 -0.3953
   43MOL   H12411128   1.083   4.998   1.740 -0.9259  0.9247 -0.1148
   43MOL   H12511129   1.107   5.134   1.837  2.2536  0.1982 -1.0676
   43MOL   H12611130   1.001   4.863   1.931 -1.6835  1.4786 -2.8627
   43MOL   H12711131   1.011   5.242   2.001  0.7747  0.6989  1.7435
   43MOL   H12811132   0.993   5.204   2.165  1.5171  0.1969 -0.1798
   43MOL   H12911133   0.843   5.211   2.073  0.4394  0.8772 -2.5182
   43MOL   H13011134   0.870   4.851   2.119  0.9038  0.0022  0.6528
   43MOL   H13111135   0.750   4.972   2.094  0.4414 -0.1759 -0.9809
   43MOL   C13211136   0.854   4.985   2.290 -0.3712  0.1837 -0.2146
   43MOL   C13311137   0.755   4.909   2.370 -0.3953 -0.6545 -0.7400
   43MOL   C13411138   0.660   4.966   2.448 -0.2413  0.2930  0.3168
   43MOL   C13511139   0.631   5.117   2.458  0.3383  0.8122  0.2203
   43MOL   C13611140   0.566   4.873   2.526 -0.0301  0.1015  0.1338
   43MOL   H13711141   0.855   5.092   2.313  0.8387 -0.4180  2.7895
   43MOL   H13811142   0.945   4.952   2.341  0.3493  0.8834 -1.0363
   43MOL   H13911143   0.766   4.802   2.367  2.1770 -0.4213 -0.7893
   43MOL   H14011144   0.665   5.178   2.374  1.3845  1.0583  0.8157
   43MOL   H14111145   0.685   5.153   2.546  1.2752 -0.1596  0.0579
   43MOL   H14211146   0.527   5.138   2.481  0.1461  0.9948 -0.7832
   43MOL   H14311147   0.588   4.768   2.508 -0.5021 -0.2843  1.7602
   43MOL   H14411148   0.471   4.880   2.474 -0.4510 -1.8475  0.6109
   43MOL   C14511149   0.573   4.893   2.682  0.1006  0.0832  0.7197
   43MOL   C14611150   0.468   4.821   2.766 -1.0300  1.0772  0.6992
   43MOL   C14711151   0.501   4.737   2.866 -0.2109  0.4446 -0.0560
   43MOL   C14811152   0.643   4.717   2.926  0.5742 -0.2296  0.2567
   43MOL   C14911153   0.401   4.650   2.945 -0.1533 -0.1863  0.3909
   43MOL   H15011154   0.558   4.999   2.703 -0.6888  0.8437 -3.3874
   43MOL   H15111155   0.675   4.874   2.714  0.0888  0.0468  0.7369
   43MOL   H15211156   0.368   4.826   2.727 -0.3328 -1.6441 -1.5685
   43MOL   H15311157   0.691   4.809   2.960  1.9495 -1.1488  0.8298
   43MOL   H15411158   0.703   4.669   2.849 -0.4626 -1.1192  0.0000
   43MOL   H15511159   0.633   4.643   3.005 -0.0205  1.0456  1.4141
   43MOL   H15611160   0.434   4.546   2.953  0.8081 -0.2445 -3.4630
   43MOL   H15711161   0.306   4.642   2.893  0.3067 -1.4452 -0.2582
   43MOL   C15811162   0.383   4.716   3.080 -0.2801  0.2174 -0.2744
   43MOL   C15911163   0.258   4.654   3.145  0.0225  0.7612 -0.3900
   43MOL   C16011164   0.255   4.563   3.242 -0.0741 -0.0858 -0.6076
   43MOL   C16111165   0.382   4.505   3.301 -0.5933  0.4941 -0.2816
   43MOL   C16211166   0.124   4.506   3.290  0.0507  0.0292 -0.8007
   43MOL   H16311167   0.377   4.824   3.066  0.4413  0.2796 -0.1432
   43MOL   H16411168   0.469   4.698   3.145 -1.8442  0.2685  1.8744
   43MOL   H16511169   0.163   4.687   3.105 -1.0448 -0.0115  1.4433
   43MOL   H16611170   0.369   4.405   3.344 -2.4079  1.0981  0.6202
   43MOL   H16711171   0.410   4.567   3.386  2.0978 -0.6288 -0.2721
   43MOL   H16811172   0.464   4.487   3.230  0.4817 -2.4596  1.6019
   43MOL   H16911173   0.151   4.400   3.300  1.6374  0.6588  2.2121
   43MOL   H17011174   0.060   4.519   3.203 -1.2742  0.3064  0.1998
   43MOL   C17111175   0.052   4.567   3.410  0.3381  0.4234 -0.7057
   43MOL   C17211176   7.786   4.525   3.417 -0.1079  0.1704  0.2493
   43MOL   C17311177   7.673   4.600   3.410 -0.3380  0.2283 -0.3048
   43MOL   C17411178   7.676   4.752   3.409 -0.3601  0.1243  0.4804
   43MOL   C17511179   7.539   4.540   3.411  0.7299 -0.5401 -0.0300
   43MOL   H17611180   0.063   4.675   3.398  0.1448  0.4325 -0.8075
   43MOL   H17711181   0.103   4.527   3.498 -0.6996 -1.0387 -0.7577
   43MOL   H17811182   7.787   4.417   3.411  0.0938  0.2470 -1.4346
   43MOL   H17911183   7.596   4.786   3.343 -0.9188 -1.8855  0.0766
   43MOL   H18011184   7.769   4.799   3.380 -0.9845  1.1527  0.1531
   43MOL   H18111185   7.661   4.791   3.510  0.2962  3.4069 -0.6365
   43MOL   H18211186   7.469   4.605   3.463 -0.0781 -2.9555  1.9972
   43MOL   H18311187   7.546   4.458   3.482  1.2233  0.2901  0.8886
   43MOL   C18411188   7.473   4.506   3.277  0.4268 -0.3056 -0.5117
   43MOL   C18511189   7.320   4.490   3.279 -0.0865  0.0913  0.0802
   43MOL   C18611190   7.241   4.478   3.167  0.0001 -0.4517 -0.0799
   43MOL   C18711191   7.292   4.466   3.025  0.4231 -0.1632 -0.1672
   43MOL   C18811192   7.089   4.477   3.179 -0.6778  0.1114 -0.7480
   43MOL   H18911193   7.511   4.412   3.236  1.3359  0.6698 -2.0005
   43MOL   H19011194   7.496   4.580   3.200  0.6161 -1.6087 -1.7472
   43MOL   H19111195   7.284   4.491   3.380  2.4089  1.3029  0.9790
   43MOL   H19211196   7.255   4.555   2.974 -0.0004 -1.6098 -2.4095
   43MOL   H19311197   7.257   4.368   2.993  0.6858 -0.5323  0.6433
   43MOL   H19411198   7.401   4.471   3.024  0.5587 -2.5498  0.2300
   43MOL   H19511199   7.054   4.379   3.148 -0.9794 -0.7061  2.0461
   43MOL   H19611200   7.056   4.556   3.111  2.4700  0.7756 -1.5968
   43MOL   C19711201   7.020   4.515   3.309  0.1149  0.4179 -0.3312
   43MOL   C19811202   6.871   4.503   3.294  0.2223 -0.5767  0.2589
   43MOL   C19911203   6.789   4.421   3.364 -0.2070  0.4089 -0.5263
   43MOL   C20011204   6.838   4.322   3.466  0.1515 -0.4074  0.1395
   43MOL   C20111205   6.636   4.414   3.339 -0.7640 -0.0951 -0.4748
   43MOL   H20211206   7.036   4.621   3.329 -0.1063 -0.2022  3.5314
   43MOL   H20311207   7.049   4.458   3.398 -2.0495 -0.6835 -0.2760
   43MOL   H20411208   6.825   4.579   3.232  3.6760  0.9507 -0.5581
   43MOL   H20511209   6.764   4.246   3.490  0.3490  0.1570  2.6830
   43MOL   H20611210   6.857   4.375   3.560 -1.7586  0.4835  0.0494
   43MOL   H20711211   6.927   4.271   3.430  0.5585 -1.3348  2.3978
   43MOL   H20811212   6.618   4.324   3.281  0.2245 -0.3339 -0.4194
   43MOL   H20911213   6.613   4.491   3.266 -3.1516  0.8160  1.1628
   43MOL   C21011214   6.536   4.426   3.460  0.4499 -0.4169  0.0773
   43MOL   C21111215   6.529   4.574   3.488  0.6508 -0.0392  0.3495
   43MOL   C21211216   6.563   4.643   3.602 -0.3390  0.0784 -0.9508
   43MOL   C21311217   6.626   4.576   3.722  0.0725 -0.4247  0.5614
   43MOL   C21411218   6.537   4.794   3.620 -0.3934  0.4924 -0.3964
   43MOL   H21511219   6.568   4.369   3.548 -0.0964 -0.9478 -0.0678
   43MOL   H21611220   6.443   4.379   3.428  0.5226 -0.4948 -0.0150
   43MOL   H21711221   6.480   4.632   3.411  0.0634  0.2861  0.9572
   43MOL   H21811222   6.710   4.634   3.760 -0.2500  0.1608  0.4019
   43MOL   H21911223   6.669   4.479   3.698 -0.3826 -0.2512 -1.0010
   43MOL   H22011224   6.560   4.574   3.809 -1.9796  0.2033 -0.9555
   43MOL   H22111225   6.504   4.808   3.723 -2.0842 -0.0984 -0.8482
   43MOL   H22211226   6.467   4.829   3.544 -0.9393 -1.9311 -1.0351
   43MOL   C22311227   6.659   4.890   3.606 -0.5883  0.2435 -0.1803
   43MOL   C22411228   6.743   4.851   3.483 -0.1943 -0.1381  0.3673
   43MOL   C22511229   6.772   4.933   3.376  0.4362  0.3952 -0.2639
   43MOL   C22611230   6.718   5.072   3.370  0.8067  0.0598  0.2736
   43MOL   C22711231   6.852   4.885   3.261  0.4396  0.5359 -0.6308
   43MOL   H22811232   6.722   4.873   3.693 -0.0534  2.6292 -0.0729
   43MOL   H22911233   6.640   4.998   3.609  0.8364  0.5751 -2.3058
   43MOL   H23011234   6.780   4.751   3.471  0.2089 -0.0517  0.8750
   43MOL   H23111235   6.743   5.125   3.462 -0.4176 -1.5234  1.5576
   43MOL   H23211236   6.610   5.077   3.352  0.6009  1.3107  1.7765
   43MOL   H23311237   6.774   5.129   3.296 -1.6952  3.2507  0.7132
   43MOL   H23411238   6.919   4.802   3.282  0.8443  0.3577 -2.5304
   43MOL   H23511239   6.929   4.956   3.232  1.1946  0.4507  1.1058
   43MOL   C23611240   6.765   4.843   3.140  0.5567 -0.0464  0.1488
   43MOL   C23711241   6.833   4.765   3.026  0.1637 -0.9638 -0.4631
   43MOL   C23811242   6.786   4.666   2.947  0.6708 -0.4357 -0.8649
   43MOL   C23911243   6.640   4.619   2.941  0.3345  0.4496  0.1277
   43MOL   C24011244   6.878   4.622   2.828 -0.5260  0.1879 -0.6739
   43MOL   H24111245   6.720   4.935   3.104 -1.4242 -0.7784  0.6996
   43MOL   H24211246   6.684   4.789   3.188  1.3863  0.7864  2.5531
   43MOL   H24311247   6.930   4.811   3.015 -1.2774  2.4233  0.0820
   43MOL   H24411248   6.641   4.511   2.926  2.9668  0.6358 -1.3890
   43MOL   H24511249   6.611   4.670   2.849  1.9253  1.1916  0.0325
   43MOL   H24611250   6.584   4.654   3.027  0.1129  1.4682 -0.4191
   43MOL   H24711251   6.905   4.519   2.854  1.5784  1.5495  2.9927
   43MOL   H24811252   6.973   4.676   2.834  0.0383 -0.6981 -1.5858
   43MOL   C24911253   6.836   4.631   2.682  0.2635 -0.2184  0.0964
   43MOL   C25011254   6.938   4.567   2.584  0.3928 -0.7337  0.0555
   43MOL   C25111255   6.992   4.618   2.468 -0.0118 -0.5293  0.1515
   43MOL   C25211256   6.940   4.751   2.406  0.1888 -0.0540  0.0334
   43MOL   C25311257   7.097   4.540   2.394 -0.1694 -0.3797  0.0566
   43MOL   H25411258   6.806   4.732   2.653 -2.8711 -0.7452  1.2668
   43MOL   H25511259   6.737   4.589   2.664  0.5804 -2.2740  2.8088
   43MOL   H25611260   6.978   4.472   2.618 -0.2450 -0.9064  0.3307
   43MOL   H25711261   6.836   4.740   2.374 -0.0892  0.6241  0.6695
   43MOL   H25811262   7.002   4.788   2.325 -0.2432 -0.3623 -0.4387
   43MOL   H25911263   6.941   4.835   2.475  0.8844  1.7720 -2.1433
   43MOL   H26011264   7.055   4.502   2.301 -0.5467 -2.1050  0.9118
   43MOL   H26111265   7.119   4.460   2.464  1.0957  1.9950  2.4907
   43MOL   H26211266   7.186   4.602   2.394  0.4411 -1.2519  0.9506
   44MOL     C111267   0.355   0.425   5.433 -0.4355  0.1245 -0.5658
   44MOL     C211268   0.464   0.501   5.498  0.8065 -0.0732 -0.0258
   44MOL     C311269   0.590   0.452   5.520  0.6081  0.2195 -0.1321
   44MOL     C411270   0.624   0.315   5.485  0.3893 -0.4954  0.3792
   44MOL     C511271   0.701   0.530   5.588 -0.0074 -0.2136 -0.3113
   44MOL     H611272   0.396   0.381   5.342 -1.3675 -1.8753 -0.0534
   44MOL     H711273   0.320   0.352   5.506  2.4096 -0.6995  0.0427
   44MOL     H811274   0.434   0.597   5.540 -1.0833 -1.7660  2.6657
   44MOL     H911275   0.557   0.263   5.418  3.5969 -3.1792 -0.9084
   44MOL    H1011276   0.607   0.264   5.580  0.5682 -0.2873  0.5243
   44MOL    H1111277   0.723   0.311   5.440 -1.1649  3.4918 -3.7607
   44MOL    H1211278   0.746   0.465   5.663  0.2719  1.0459  0.6202
   44MOL    H1311279   0.655   0.598   5.659 -1.6958 -1.6666  0.0226
   44MOL    H1411280   0.269   0.487   5.405  1.4305  2.8977 -0.3680
   44MOL    C1511281   0.803   0.606   5.514 -0.7349  0.0745  0.0338
   44MOL    C1611282   0.914   0.660   5.602 -0.4032  0.1647  0.1238
   44MOL    C1711283   0.928   0.783   5.653 -0.3064 -0.6780  0.1869
   44MOL    C1811284   0.818   0.892   5.640 -0.7512  0.3482  0.5309
   44MOL    C1911285   1.042   0.827   5.742  0.4276 -0.0649  0.3910
   44MOL    H2011286   0.753   0.688   5.464 -0.3931  0.1466 -0.1931
   44MOL    H2111287   0.861   0.553   5.438  1.5267  1.6268  0.6251
   44MOL    H2211288   0.995   0.590   5.616 -1.4844 -0.9412  0.8803
   44MOL    H2311289   0.730   0.840   5.600 -2.0425  1.4836  1.8514
   44MOL    H2411290   0.864   0.960   5.568 -1.3240  0.5697  0.3649
   44MOL    H2511291   0.785   0.928   5.737 -0.8872 -0.4257  0.7811
   44MOL    H2611292   1.105   0.740   5.762  2.5862  1.6174  1.0735
   44MOL    H2711293   1.003   0.846   5.842  0.6931  1.2817  0.2447
   44MOL    C2811294   1.123   0.941   5.690  0.9768  0.0903 -0.0960
   44MOL    C2911295   1.255   0.942   5.758 -0.6301  0.0158 -0.0189
   44MOL    C3011296   1.376   0.964   5.702  1.3854  0.3095  0.3825
   44MOL    C3111297   1.398   1.008   5.562  0.4134  0.6472  0.3846
   44MOL    C3211298   1.504   0.944   5.795 -0.1081  0.6608 -0.0125
   44MOL    H3311299   1.068   1.035   5.693  0.1287 -0.4182  1.0010
   44MOL    H3411300   1.136   0.926   5.583  2.7610  1.7824 -0.1363
   44MOL    H3511301   1.248   0.904   5.858  1.5988 -1.5446 -0.4248
   44MOL    H3611302   1.316   1.079   5.556 -1.0733 -1.1575 -1.5520
   44MOL    H3711303   1.390   0.923   5.494  2.3461 -0.0399  0.9904
   44MOL    H3811304   1.494   1.053   5.540  1.5202 -0.9485  1.8074
   44MOL    H3911305   1.579   0.886   5.742  0.8300  1.2349  0.6641
   44MOL    H4011306   1.487   0.883   5.884  1.5792 -2.6172 -1.8464
   44MOL    C4111307   1.559   1.083   5.840 -0.5138  0.2263  0.5767
   44MOL    C4211308   1.691   1.076   5.915 -0.2730  0.9836 -0.9628
   44MOL    C4311309   1.720   1.138   6.031 -0.4682 -1.4115  0.3555
   44MOL    C4411310   1.628   1.230   6.100  0.8138  0.4930  0.3793
   44MOL    C4511311   1.851   1.115   6.108 -0.7394  0.2140 -0.6709
   44MOL    H4611312   1.487   1.141   5.896 -1.6995  0.3450 -1.0299
   44MOL    H4711313   1.578   1.152   5.757 -1.3017 -1.8769 -1.4140
   44MOL    H4811314   1.756   1.007   5.863 -0.1137 -2.9300  4.0680
   44MOL    H4911315   1.687   1.309   6.145  2.5944  0.3134 -1.5689
   44MOL    H5011316   1.564   1.182   6.174  2.6477 -0.2540  1.5345
   44MOL    H5111317   1.573   1.286   6.025  0.6205 -1.9136 -1.3594
   44MOL    H5211318   1.915   1.202   6.124 -0.7564 -0.0735  1.0378
   44MOL    H5311319   1.908   1.046   6.047 -1.6406 -1.8342  0.7454
   44MOL    C5411320   1.828   1.055   6.250  0.4682 -0.2394 -0.6906
   44MOL    C5511321   1.952   0.987   6.305  0.1516  0.0787 -0.1124
   44MOL    C5611322   2.014   1.006   6.424 -0.1237  0.2245 -0.2269
   44MOL    C5711323   1.968   1.084   6.538 -0.3016 -0.0201 -0.5377
   44MOL    C5811324   2.149   0.934   6.455 -0.4128 -0.1729  0.1353
   44MOL    H5911325   1.753   0.978   6.236 -0.7636  0.8514 -0.1437
   44MOL    H6011326   1.797   1.127   6.325  1.7298 -0.7766  0.3817
   44MOL    H6111327   2.007   0.925   6.235 -0.6876 -0.8811  0.0673
   44MOL    H6211328   2.037   1.159   6.575  0.9799 -2.2185  1.6869
   44MOL    H6311329   1.938   1.005   6.607  0.0136 -1.1199 -1.6448
   44MOL    H6411330   1.877   1.141   6.519  0.4192  2.2956  2.5583
   44MOL    H6511331   2.197   1.010   6.516  0.5998  0.2906 -1.2016
   44MOL    H6611332   2.202   0.914   6.362 -0.5260 -1.5212  0.3523
   44MOL    C6711333   2.127   0.800   6.527 -0.3585 -0.2046  0.5439
   44MOL    C6811334   2.244   0.705   6.535  0.5596 -0.2030 -0.3951
   44MOL    C6911335   2.272   0.608   6.449  0.2585 -0.0961 -0.9989
   44MOL    C7011336   2.183   0.559   6.342  0.4764  0.0295  0.4871
   44MOL    C7111337   2.390   0.509   6.488 -1.1271 -0.1485 -0.1097
   44MOL    H7211338   2.045   0.762   6.466 -0.9182 -0.7535  1.6257
   44MOL    H7311339   2.093   0.821   6.628  2.3002 -0.4535  1.5291
   44MOL    H7411340   2.312   0.720   6.618  0.8784 -1.0162 -0.5047
   44MOL    H7511341   2.224   0.551   6.241  0.8857 -3.0475  0.8495
   44MOL    H7611342   2.089   0.614   6.330  1.9459  2.4701 -0.1601
   44MOL    H7711343   2.153   0.456   6.362 -1.0054  0.5583  1.0722
   44MOL    H7811344   2.340   0.412   6.489 -0.2499 -0.6310 -1.4563
   44MOL    H7911345   2.430   0.520   6.589  1.8073  1.8494 -1.4327
   44MOL    C8011346   2.504   0.505   6.387  1.2325 -0.7834 -0.4792
   44MOL    C8111347   2.603   0.394   6.412  0.6398  0.5089 -0.0205
   44MOL    C8211348   2.652   0.310   6.315 -1.2183 -0.5696 -0.4416
   44MOL    C8311349   2.591   0.304   6.175  0.1621 -0.3611 -0.3689
   44MOL    C8411350   2.763   0.204   6.343  0.5732 -0.2110 -0.3871
   44MOL    H8511351   2.544   0.604   6.404  0.2979 -0.6524  1.0466
   44MOL    H8611352   2.472   0.500   6.282 -0.4593 -0.7022  0.0142
   44MOL    H8711353   2.645   0.383   6.511  0.3960 -2.5162 -0.1893
   44MOL    H8811354   2.484   0.283   6.182  0.3219 -1.7747 -1.7916
   44MOL    H8911355   2.631   0.223   6.114  1.4642 -0.5983  0.7595
   44MOL    H9011356   2.603   0.403   6.133  3.4744 -0.5124  0.0726
   44MOL    H9111357   2.814   0.212   6.439  0.9905  1.9524 -0.7738
   44MOL    H9211358   2.850   0.224   6.281  1.0592  1.3297  0.7740
   44MOL    C9311359   2.728   0.055   6.323 -0.2766 -0.4730 -1.0324
   44MOL    C9411360   2.838   7.842   6.362  0.1594 -0.0673  0.1398
   44MOL    C9511361   2.899   7.746   6.286  0.1997 -0.6524  0.3901
   44MOL    C9611362   2.859   7.707   6.147  0.3086 -0.0160 -0.3039
   44MOL    C9711363   3.004   7.659   6.356 -0.2004  0.0401 -0.1967
   44MOL    H9811364   2.701   0.036   6.219 -1.7886  2.8596 -1.3494
   44MOL    H9911365   2.645   0.029   6.389 -0.7775 -0.3141 -1.5977
   44MOL   H10011366   2.875   7.844   6.464  0.4724  0.5787  0.0140
   44MOL   H10111367   2.762   7.743   6.111  0.0943  0.4804  0.7466
   44MOL   H10211368   2.867   7.599   6.143  0.5187 -0.0337  0.5766
   44MOL   H10311369   2.927   7.753   6.075 -0.5426  0.5984 -0.7349
   44MOL   H10411370   2.963   7.558   6.350 -1.0587  0.4734 -1.8357
   44MOL   H10511371   3.028   7.711   6.449  1.2814  0.9809 -1.0846
   44MOL   C10611372   3.137   7.662   6.287  0.3796  0.0887  0.6549
   44MOL   C10711373   3.249   7.601   6.364  0.5238  0.4845  0.1435
   44MOL   C10811374   3.282   7.465   6.359  0.3137 -0.8414  0.4547
   44MOL   C10911375   3.217   7.373   6.261 -0.1120  0.3653  0.3071
   44MOL   C11011376   3.387   7.397   6.442  0.7249  0.6759 -0.0049
   44MOL   H11111377   3.166   7.762   6.254 -1.7820  0.4669 -0.1842
   44MOL   H11211378   3.133   7.603   6.196 -1.1506  2.8959 -1.1476
   44MOL   H11311379   3.293   7.659   6.443  0.4276 -1.5658  1.7676
   44MOL   H11411380   3.130   7.406   6.205 -1.6154 -0.1772  2.2852
   44MOL   H11511381   3.197   7.275   6.303 -1.2277  0.3508 -0.2479
   44MOL   H11611382   3.295   7.360   6.185 -0.4973 -0.9395  0.1172
   44MOL   H11711383   3.332   7.307   6.470  0.4202  0.6773 -0.6075
   44MOL   H11811384   3.408   7.459   6.530  1.0111 -0.3159  0.6419
   44MOL   C11911385   3.512   7.351   6.360  0.1734  0.0968 -0.3205
   44MOL   C12011386   3.633   7.323   6.442  0.3062 -0.1858 -0.3187
   44MOL   C12111387   3.748   7.268   6.398 -0.5105  0.1128  0.1349
   44MOL   C12211388   3.767   7.208   6.259 -0.0233 -0.4189 -0.1305
   44MOL   C12311389   3.874   7.274   6.487  0.4696 -0.5223  0.3260
   44MOL   H12411390   3.536   7.419   6.279 -0.6207  0.8784  0.0895
   44MOL   H12511391   3.490   7.257   6.310  1.9210 -1.1735  1.2220
   44MOL   H12611392   3.623   7.363   6.542 -0.0236 -0.8510 -0.0887
   44MOL   H12711393   3.692   7.228   6.183 -0.4162 -2.2620 -0.2408
   44MOL   H12811394   3.774   7.099   6.268 -0.6653 -0.5159 -0.7300
   44MOL   H12911395   3.856   7.255   6.219 -1.3062  1.6332 -0.6312
   44MOL   H13011396   3.853   7.332   6.577  1.6613 -0.3697  0.5181
   44MOL   H13111397   3.957   7.329   6.444  0.1530 -0.0729  0.2861
   44MOL   C13211398   3.924   7.135   6.517 -1.0067  0.1163  0.6912
   44MOL   C13311399   4.052   7.137   6.600  0.7945 -0.4450  0.4187
   44MOL   C13411400   4.157   7.048   6.586 -0.4568 -0.3466  0.2431
   44MOL   C13511401   4.170   6.952   6.464  0.0968 -0.2710 -0.6262
   44MOL   C13611402   4.279   7.062   6.674  0.2476 -0.7069  0.3500
   44MOL   H13711403   3.933   7.074   6.427  0.6653  0.3622  0.6851
   44MOL   H13811404   3.854   7.083   6.583 -0.5396 -1.0360  0.2823
   44MOL   H13911405   4.057   7.198   6.689  1.1316 -1.4227  1.0851
   44MOL   H14011406   4.076   6.919   6.422  0.1122  0.3627 -1.1644
   44MOL   H14111407   4.235   6.868   6.489  0.6991  1.4371  4.0754
   44MOL   H14211408   4.211   7.007   6.379 -2.1048 -1.1284 -2.2781
   44MOL   H14311409   4.293   7.165   6.708 -0.5049  0.3926 -2.5228
   44MOL   H14411410   4.364   7.031   6.615 -0.8731  1.2313 -2.3868
   44MOL   C14511411   4.267   6.973   6.796  0.1638  0.0732  0.5377
   44MOL   C14611412   4.386   6.994   6.885  0.0621 -0.2657 -0.4305
   44MOL   C14711413   4.385   6.942   7.012 -0.6687  0.6869 -0.5925
   44MOL   C14811414   4.278   6.850   7.065  0.0260 -0.2416 -0.4392
   44MOL   C14911415   4.501   6.971   7.114 -0.0124 -1.3485 -0.2237
   44MOL   H15011416   4.244   6.869   6.772 -1.0199  0.3361  0.5030
   44MOL   H15111417   4.174   6.996   6.846 -0.6126  1.5619 -1.5204
   44MOL   H15211418   4.458   7.062   6.841  0.3027  0.5959  1.2539
   44MOL   H15311419   4.195   6.901   7.115 -2.3392 -3.6318 -0.7064
   44MOL   H15411420   4.325   6.773   7.127  0.0307  1.3437  1.5518
   44MOL   H15511421   4.218   6.798   6.990 -0.6965 -0.7094  0.4485
   44MOL   H15611422   4.571   7.046   7.077 -0.0095  0.4382  3.1974
   44MOL   H15711423   4.552   6.875   7.123  1.1578 -0.5900  1.4808
   44MOL   C15811424   4.459   7.019   7.254 -0.5902 -0.2248  0.4654
   44MOL   C15911425   4.577   7.060   7.348  0.2036  0.0780 -0.5930
   44MOL   C16011426   4.568   7.063   7.485 -0.5338 -0.4438 -0.8824
   44MOL   C16111427   4.443   7.020   7.566  0.5491 -0.8722  0.1120
   44MOL   C16211428   4.691   7.100   7.563  0.4052  0.5698  0.6207
   44MOL   H16311429   4.408   6.930   7.292 -0.1397 -0.3738  0.7337
   44MOL   H16411430   4.392   7.104   7.267 -2.1591 -1.6915  2.2483
   44MOL   H16511431   4.671   7.085   7.303 -0.6205  1.3723 -1.6250
   44MOL   H16611432   4.388   7.107   7.600  0.6204 -0.5508 -0.6003
   44MOL   H16711433   4.485   6.958   7.645  0.9643 -0.3985  0.2680
   44MOL   H16811434   4.376   6.955   7.511 -0.2924  1.5084 -1.7444
   44MOL   H16911435   4.781   7.098   7.501 -0.0029  0.4325  0.0309
   44MOL   H17011436   4.700   7.018   7.635 -0.5064  0.1379  0.2524
   44MOL   C17111437   4.690   7.241   7.629 -0.2030  0.1112  0.2789
   44MOL   C17211438   4.696   7.355   7.525 -0.3463  0.1591 -0.3796
   44MOL   C17311439   4.803   7.433   7.503 -0.8265 -0.7581  0.0802
   44MOL   C17411440   4.940   7.421   7.576 -0.3620  0.7332 -0.0918
   44MOL   C17511441   4.790   7.553   7.407  0.1906  0.0890  0.4493
   44MOL   H17611442   4.774   7.245   7.699 -0.0786 -0.2405  0.1528
   44MOL   H17711443   4.594   7.241   7.680 -0.1251 -1.0069  0.4376
   44MOL   H17811444   4.609   7.373   7.464 -1.0624 -2.6667 -0.2569
   44MOL   H17911445   4.965   7.317   7.597 -0.1608  0.9597  0.8189
   44MOL   H18011446   4.937   7.477   7.669  0.1516 -0.5251  0.7031
   44MOL   H18111447   5.026   7.448   7.515 -0.3957  0.6407 -0.1813
   44MOL   H18211448   4.692   7.548   7.360 -0.8750 -0.8120  2.6647
   44MOL   H18311449   4.867   7.529   7.334 -1.6196 -2.0694 -0.8142
   44MOL   C18411450   4.798   7.689   7.470 -0.2017 -0.8983 -0.4560
   44MOL   C18511451   4.942   7.744   7.482  0.5892  0.5971  0.2453
   44MOL   C18611452   4.990   7.844   7.558  0.3732  0.4607 -0.4332
   44MOL   C18711453   4.897   0.034   7.653  0.3757  0.8605 -0.0406
   44MOL   C18811454   5.136   0.013   7.558  0.4795 -0.0163 -0.3895
   44MOL   H18911455   4.747   7.699   7.566  1.4576  1.2921  0.2623
   44MOL   H19011456   4.742   7.760   7.410 -0.6154 -1.5491 -0.8389
   44MOL   H19111457   5.004   7.684   7.416 -2.6360 -2.2883 -0.3336
   44MOL   H19211458   4.943   0.127   7.686 -0.1743  0.7057  1.1900
   44MOL   H19311459   4.881   7.852   7.739 -0.5468 -0.2677 -1.0394
   44MOL   H19411460   4.803   0.063   7.605  1.1866  0.1752 -2.1025
   44MOL   H19511461   5.165   0.007   7.663 -0.8165  0.3871  0.0015
   44MOL   H19611462   5.148   0.118   7.530 -0.1533  0.6301  1.7075
   44MOL   C19711463   5.238   7.814   7.476 -0.6808  0.5032 -0.1682
   44MOL   C19811464   5.365   0.016   7.448  1.1264 -0.0141 -0.3017
   44MOL   C19911465   5.488   7.875   7.406 -0.6080  0.7621  0.4163
   44MOL   C20011466   5.545   7.735   7.402 -0.3050 -0.3218  0.0213
   44MOL   C20111467   5.597   0.099   7.367  0.6078 -0.5961  0.4496
   44MOL   H20211468   5.202   7.773   7.382  0.2589 -0.3871 -0.1453
   44MOL   H20311469   5.271   7.729   7.536 -0.4042  1.3485  0.8893
   44MOL   H20411470   5.351   0.123   7.446  0.4347 -0.1206 -2.6595
   44MOL   H20511471   5.631   7.729   7.468 -0.6910 -0.5547  0.5031
   44MOL   H20611472   5.558   7.694   7.301 -1.4457  0.5918 -0.5148
   44MOL   H20711473   5.471   7.665   7.441 -1.3054  1.6338  1.7643
   44MOL   H20811474   5.696   0.072   7.403  0.0376 -2.8118  0.4793
   44MOL   H20911475   5.563   0.184   7.426  1.0126 -0.4032  0.4041
   44MOL   C21011476   5.610   0.130   7.224 -0.1321  0.2742  0.0807
   44MOL   C21111477   5.702   0.240   7.191 -0.9289 -0.0479  0.1855
   44MOL   C21211478   5.719   0.308   7.076 -0.1200  0.4776  0.1248
   44MOL   C21311479   5.635   0.282   6.957 -0.2556 -0.8203  0.0521
   44MOL   C21411480   5.831   0.402   7.063  0.0585 -0.4615  0.3047
   44MOL   H21511481   5.516   0.173   7.191  1.3448  3.0849 -0.6524
   44MOL   H21611482   5.642   0.040   7.172 -1.3676 -0.3075  0.3008
   44MOL   H21711483   5.785   0.255   7.258 -2.6358 -2.0817  2.8328
   44MOL   H21811484   5.711   0.277   6.880  0.4428  1.6491  0.5301
   44MOL   H21911485   5.566   0.363   6.934 -1.8150 -2.2552 -0.4366
   44MOL   H22011486   5.566   0.198   6.947 -1.8424  0.4811 -0.1966
   44MOL   H22111487   5.865   0.400   6.959 -0.2152  2.4722  0.1129
   44MOL   H22211488   5.914   0.367   7.124  0.0754 -1.9993 -0.5869
   44MOL   C22311489   5.776   0.543   7.096  0.2858 -0.7183 -0.3250
   44MOL   C22411490   5.868   0.661   7.050 -0.5821  0.9234  0.4895
   44MOL   C22511491   5.977   0.714   7.114  0.6549  0.1251 -0.2431
   44MOL   C22611492   6.020   0.668   7.249 -0.3119  0.2586 -0.5174
   44MOL   C22711493   6.060   0.818   7.047 -1.3068  0.8793  0.4265
   44MOL   H22811494   5.740   0.548   7.199  1.4289 -0.3617  0.0644
   44MOL   H22911495   5.682   0.560   7.045  1.5820  1.5766 -2.0244
   44MOL   H23011496   5.851   0.695   6.949 -0.7486 -0.7633 -0.0681
   44MOL   H23111497   6.037   0.751   7.317  0.8279  0.6659 -1.2927
   44MOL   H23211498   6.112   0.610   7.246  0.2057  0.9471  1.2373
   44MOL   H23311499   5.947   0.599   7.292 -0.1681 -0.2495 -1.0827
   44MOL   H23411500   6.101   0.879   7.127  3.7474  0.9949 -2.0519
   44MOL   H23511501   5.999   0.888   6.990 -1.1996  0.5486 -0.1065
   44MOL   C23611502   6.172   0.767   6.955 -0.1806  0.1590 -0.0998
   44MOL   C23711503   6.243   0.875   6.878 -0.1248  0.3927 -0.5312
   44MOL   C23811504   6.272   0.883   6.749  0.3135  0.2404  0.4708
   44MOL   C23911505   6.235   0.775   6.652 -0.5402  0.6751  0.2678
   44MOL   C24011506   6.343   1.005   6.701  0.6253 -0.0585  0.1728
   44MOL   H24111507   6.119   0.709   6.880  0.8320 -0.1074 -0.6287
   44MOL   H24211508   6.241   0.699   7.005  1.1562  0.9829 -0.7873
   44MOL   H24311509   6.263   0.958   6.944 -1.3916 -0.3285  0.7857
   44MOL   H24411510   6.228   0.822   6.554 -1.8418 -2.0606 -1.0056
   44MOL   H24511511   6.146   0.714   6.670  0.2485 -0.9050 -0.9869
   44MOL   H24611512   6.322   0.710   6.638 -0.4881  0.4014  1.7085
   44MOL   H24711513   6.420   0.976   6.631  2.0618  1.0979  1.2399
   44MOL   H24811514   6.384   1.044   6.794  0.3854  2.3303 -0.7001
   44MOL   C24911515   6.250   1.114   6.659  0.5076  0.7074  0.6028
   44MOL   C25011516   6.165   1.177   6.771 -0.1369 -0.2212 -0.6029
   44MOL   C25111517   6.036   1.155   6.793  0.0548 -0.2038  0.1793
   44MOL   C25211518   5.951   1.049   6.726 -1.2121 -0.8302  0.0144
   44MOL   C25311519   5.958   1.234   6.893  0.4656  0.1083  0.2510
   44MOL   H25411520   6.184   1.078   6.580  2.3542  2.3306 -1.7623
   44MOL   H25511521   6.308   1.195   6.616  1.2690 -0.8298 -1.3720
   44MOL   H25611522   6.214   1.250   6.834  1.1805 -2.2502  0.7863
   44MOL   H25711523   6.003   1.012   6.637 -0.7800 -0.0507 -0.0655
   44MOL   H25811524   5.865   1.097   6.678  0.9160  1.1687 -1.9315
   44MOL   H25911525   5.918   0.968   6.791 -3.4661 -1.1432 -1.4483
   44MOL   H26011526   5.911   1.160   6.958 -0.6332  1.5251  1.0987
   44MOL   H26111527   5.884   1.300   6.848  0.4354  0.6009  1.0109
   44MOL   H26211528   6.023   1.295   6.957 -0.2785 -0.3195  1.4449
   45MOL     C111529   0.120   3.271   2.154 -0.5871  0.2819  0.2989
   45MOL     C211530   0.014   3.379   2.200  0.3785 -0.0247 -0.2470
   45MOL     C311531   7.848   3.477   2.122 -0.2177 -0.1435  0.4160
   45MOL     C411532   0.015   3.496   1.980  0.1866 -0.7405 -0.4348
   45MOL     C511533   7.727   3.551   2.165  0.6129 -0.1297  0.3285
   45MOL     H611534   0.104   3.174   2.200  1.6507 -0.4603 -0.3936
   45MOL     H711535   0.118   3.242   2.049 -4.4489  0.5593  0.2502
   45MOL     H811536   7.850   3.362   2.296  1.4222 -0.7075  0.1579
   45MOL     H911537   0.038   3.599   1.953  1.1874 -0.8027  0.1634
   45MOL    H1011538   7.819   3.468   1.910  0.4471  1.3219 -1.5650
   45MOL    H1111539   0.106   3.439   1.963 -1.7279 -4.2256  0.3208
   45MOL    H1211540   7.687   3.481   2.239  3.4714 -0.4582  1.6486
   45MOL    H1311541   7.652   3.555   2.086  0.9401 -0.3372  0.0070
   45MOL    H1411542   0.219   3.302   2.189 -0.0809  0.0502 -0.9159
   45MOL    C1511543   7.763   3.678   2.244 -0.4856  0.5417  0.4874
   45MOL    C1611544   7.649   3.748   2.314 -0.2359  0.0369  0.1954
   45MOL    C1711545   7.621   3.753   2.445 -0.4781 -0.3794  0.4590
   45MOL    C1811546   7.705   3.672   2.551  0.3611 -0.2218  1.0775
   45MOL    C1911547   7.501   3.833   2.491 -0.0933 -0.2832 -0.2139
   45MOL    H2011548   7.795   3.751   2.171  0.7834  0.9054  1.3822
   45MOL    H2111549   7.853   3.657   2.302 -0.3277 -0.4272 -0.0900
   45MOL    H2211550   7.589   3.808   2.247  2.1211 -0.6098 -2.5553
   45MOL    H2311551   7.642   3.600   2.604 -0.1836 -1.1879 -0.8418
   45MOL    H2411552   7.749   3.741   2.623 -0.3956  0.3490  0.9958
   45MOL    H2511553   7.769   3.604   2.495 -0.1327 -0.1664  0.4504
   45MOL    H2611554   7.497   3.814   2.598  1.4443  0.8745  0.0631
   45MOL    H2711555   7.421   3.799   2.425 -0.4055 -0.0781  0.0553
   45MOL    C2811556   7.517   3.982   2.460  0.2139 -0.1626 -0.0143
   45MOL    C2911557   7.387   4.050   2.519  0.3571 -0.0245 -0.1674
   45MOL    C3011558   7.380   4.150   2.606  0.0703 -0.9449 -0.2137
   45MOL    C3111559   7.497   4.233   2.658  0.4367 -0.0056 -0.2845
   45MOL    C3211560   7.245   4.200   2.652 -0.0928  0.3567  0.0609
   45MOL    H3311561   7.514   3.997   2.352  0.4453 -0.4314 -0.0590
   45MOL    H3411562   7.612   4.019   2.498  0.3151  0.9620 -1.3098
   45MOL    H3511563   7.289   4.014   2.491 -1.1230  1.4822  2.9144
   45MOL    H3611564   7.583   4.168   2.639 -1.7299 -3.3623  0.7815
   45MOL    H3711565   7.498   4.240   2.767  1.3543  3.4342 -0.4805
   45MOL    H3811566   7.497   4.330   2.609 -0.3698  0.3782  0.4590
   45MOL    H3911567   7.170   4.202   2.573  0.1974  2.0316 -0.2022
   45MOL    H4011568   7.261   4.305   2.675  1.2568  0.9380 -3.2796
   45MOL    C4111569   7.187   4.122   2.775 -0.3925 -0.0983 -0.3012
   45MOL    C4211570   7.049   4.175   2.801 -1.0808  0.6940  0.4382
   45MOL    C4311571   6.935   4.109   2.783  0.0213  1.4620 -0.2580
   45MOL    C4411572   6.927   3.962   2.752 -0.8005  0.5851 -0.7122
   45MOL    C4511573   6.809   4.193   2.771 -0.8698  0.0727 -0.0014
   45MOL    H4611574   7.245   4.139   2.865  0.0340  0.5704 -0.7033
   45MOL    H4711575   7.185   4.014   2.759 -0.9422  0.4475 -4.5322
   45MOL    H4811576   7.044   4.280   2.828 -3.4169  0.4299  1.0940
   45MOL    H4911577   6.962   3.938   2.652 -1.4732  0.7185 -0.9824
   45MOL    H5011578   6.826   3.922   2.765  0.0686 -1.1606  0.7518
   45MOL    H5111579   6.991   3.902   2.816 -0.1443  1.8659 -0.1365
   45MOL    H5211580   6.761   4.173   2.675  0.0902 -1.2158 -0.2238
   45MOL    H5311581   6.838   4.299   2.769  0.9924 -0.2979  3.3933
   45MOL    C5411582   6.706   4.175   2.885 -0.3655  0.1116 -0.3965
   45MOL    C5511583   6.613   4.059   2.865 -0.6965 -0.5822 -1.0368
   45MOL    C5611584   6.501   4.063   2.799  0.2595 -0.0256 -0.4035
   45MOL    C5711585   6.452   4.185   2.722  0.1262  0.0772  0.1673
   45MOL    C5811586   6.408   3.937   2.789  0.6232  0.0297  0.2323
   45MOL    H5911587   6.642   4.263   2.883 -1.9201 -0.9757  0.2394
   45MOL    H6011588   6.752   4.167   2.984 -1.6879 -1.3426  0.1214
   45MOL    H6111589   6.655   3.968   2.905 -0.1578  1.4335  3.2489
   45MOL    H6211590   6.377   4.246   2.772 -0.4643  1.5734 -2.4425
   45MOL    H6311591   6.417   4.141   2.628 -0.8062  1.4237 -0.1394
   45MOL    H6411592   6.536   4.245   2.688  1.1279 -0.4862  1.6039
   45MOL    H6511593   6.457   3.864   2.853  0.4113 -1.8578 -1.7035
   45MOL    H6611594   6.401   3.909   2.684  0.2724 -0.2811  0.3363
   45MOL    C6711595   6.262   3.959   2.838 -0.2813 -0.4902 -0.1514
   45MOL    C6811596   6.183   3.831   2.838  0.0014 -0.6197 -0.2132
   45MOL    C6911597   6.100   3.783   2.934 -0.3598  0.0899  0.2291
   45MOL    C7011598   6.071   3.862   3.056  0.6529 -0.0288 -0.2392
   45MOL    C7111599   6.046   3.635   2.935  0.0856 -0.4150  0.4038
   45MOL    H7211600   6.214   4.031   2.772  1.3817  1.9138  1.1784
   45MOL    H7311601   6.264   4.020   2.928 -1.2431 -1.1557  0.3368
   45MOL    H7411602   6.211   3.762   2.760  1.3022  0.8772 -1.0714
   45MOL    H7511603   6.135   3.950   3.063 -1.2820  1.5490 -2.0784
   45MOL    H7611604   6.073   3.798   3.144  1.8106  0.4944  0.1278
   45MOL    H7711605   5.965   3.887   3.049  0.1747 -2.5364 -2.6768
   45MOL    H7811606   6.020   3.608   2.832  1.5508 -2.4378  0.5446
   45MOL    H7911607   5.961   3.641   3.003 -0.0122  2.0064  0.1395
   45MOL    C8011608   6.156   3.530   2.977  0.2706  0.5241 -0.1471
   45MOL    C8111609   6.212   3.556   3.115  0.1352  0.8560  0.5159
   45MOL    C8211610   6.332   3.600   3.151 -0.4086 -0.2705 -0.0270
   45MOL    C8311611   6.445   3.614   3.049  0.0091  0.5324 -0.1361
   45MOL    C8411612   6.374   3.639   3.292 -0.0635  0.0886  0.8352
   45MOL    H8511613   6.229   3.514   2.898 -2.9681 -0.4794 -3.0883
   45MOL    H8611614   6.114   3.430   2.985 -0.3327  0.6592 -1.5313
   45MOL    H8711615   6.131   3.551   3.187 -1.2864 -0.0367 -1.1003
   45MOL    H8811616   6.520   3.688   3.079 -0.1779  1.2113 -1.3345
   45MOL    H8911617   6.402   3.666   2.964  1.3272  0.7971 -0.6580
   45MOL    H9011618   6.491   3.517   3.036 -2.0942 -0.5993  0.6002
   45MOL    H9111619   6.426   3.735   3.295 -0.3541  0.2311  1.2816
   45MOL    H9211620   6.455   3.569   3.312  1.2754  0.5779 -2.5082
   45MOL    C9311621   6.267   3.605   3.400  0.3665 -0.1115 -0.7719
   45MOL    C9411622   6.169   3.712   3.430 -0.0827 -0.7762 -1.0590
   45MOL    C9511623   6.129   3.766   3.546 -0.3053 -0.0037  0.3217
   45MOL    C9611624   6.167   3.710   3.688 -0.3693 -0.1350  0.0341
   45MOL    C9711625   6.022   3.874   3.560  0.1587 -0.3176  0.9968
   45MOL    H9811626   6.322   3.589   3.493 -2.3143  1.2153  1.0948
   45MOL    H9911627   6.211   3.513   3.382  2.8775 -1.6872 -0.8688
   45MOL   H10011628   6.132   3.766   3.345  0.7994  1.2441 -0.1896
   45MOL   H10111629   6.081   3.676   3.746  1.3189 -2.0701  1.4523
   45MOL   H10211630   6.215   3.784   3.752 -1.8470 -0.0044  1.0466
   45MOL   H10311631   6.234   3.625   3.694 -0.1469 -0.0022 -0.5844
   45MOL   H10411632   6.050   3.936   3.646 -1.3019 -0.1997  1.3991
   45MOL   H10511633   5.935   3.825   3.604  0.0043  0.0852  1.1454
   45MOL   C10611634   5.972   3.955   3.437  0.6433  0.8693  0.1423
   45MOL   C10711635   5.846   4.024   3.483 -0.0051  1.8103 -0.6569
   45MOL   C10811636   5.726   4.042   3.417  0.9456  0.4808  0.2827
   45MOL   C10911637   5.698   3.994   3.274 -0.1444  0.2478  0.0072
   45MOL   C11011638   5.616   4.124   3.490  0.7172  0.5404 -0.4588
   45MOL   H11111639   5.951   3.894   3.349 -0.3279 -0.0595  1.0045
   45MOL   H11211640   6.042   4.034   3.411 -0.8176  1.6702 -1.3789
   45MOL   H11311641   5.861   4.071   3.579  2.3467  2.5592 -1.3442
   45MOL   H11411642   5.607   3.934   3.283  1.7835 -2.4958  1.6750
   45MOL   H11511643   5.766   3.923   3.228 -1.7678 -2.8287  2.1943
   45MOL   H11611644   5.668   4.064   3.195  0.4158 -0.6155 -0.9884
   45MOL   H11711645   5.593   4.215   3.434  0.8615  0.0713 -1.2851
   45MOL   H11811646   5.648   4.154   3.590 -1.0174 -0.8969  0.5604
   45MOL   C11911647   5.490   4.052   3.530  0.6071 -0.0818  0.2824
   45MOL   C12011648   5.391   4.127   3.618  0.1239  0.2684 -0.3464
   45MOL   C12111649   5.257   4.136   3.599 -0.2364  0.1614  0.3359
   45MOL   C12211650   5.190   4.066   3.480  0.3544  0.7048 -0.1313
   45MOL   C12311651   5.164   4.224   3.688 -0.7339  0.3554 -0.4490
   45MOL   H12411652   5.508   3.967   3.595  0.6107  0.2626  0.7361
   45MOL   H12511653   5.449   4.000   3.443  2.2037  2.3762 -2.0229
   45MOL   H12611654   5.437   4.170   3.706 -0.3239 -1.5412  0.8058
   45MOL   H12711655   5.114   4.128   3.433  0.3291  1.1372  0.4854
   45MOL   H12811656   5.143   3.981   3.530  0.3441 -0.1705 -1.5897
   45MOL   H12911657   5.252   4.020   3.404  1.2785  0.6394  0.6541
   45MOL   H13011658   5.066   4.176   3.691 -0.8676  0.5772 -1.0376
   45MOL   H13111659   5.153   4.319   3.634 -0.6922 -0.3779 -1.7801
   45MOL   C13211660   5.217   4.251   3.833 -0.4327 -0.0662  0.4813
   45MOL   C13311661   5.108   4.301   3.929  0.2600  0.1384  0.4857
   45MOL   C13411662   5.108   4.293   4.063 -0.1237 -0.2561 -0.2209
   45MOL   C13511663   5.224   4.228   4.129 -0.7506 -0.3629 -0.5806
   45MOL   C13611664   4.994   4.346   4.146  0.4662  0.1974  0.1301
   45MOL   H13711665   5.294   4.329   3.832 -0.9045  0.4060  0.8002
   45MOL   H13811666   5.269   4.164   3.872  0.2746 -1.4390 -3.3221
   45MOL   H13911667   5.036   4.365   3.880  0.7175  0.9014  0.8028
   45MOL   H14011668   5.274   4.276   4.213  2.1373 -4.3326  0.1331
   45MOL   H14111669   5.305   4.194   4.065 -0.1556  0.9918 -0.5720
   45MOL   H14211670   5.178   4.138   4.171 -1.1163 -0.7132 -1.7298
   45MOL   H14311671   4.959   4.258   4.201  2.0448 -0.4465  0.1323
   45MOL   H14411672   4.913   4.381   4.082 -0.9913 -1.8998  0.8009
   45MOL   C14511673   5.020   4.443   4.261  0.2619  0.7234 -0.0400
   45MOL   C14611674   4.909   4.547   4.277  0.3339  0.8987 -0.1279
   45MOL   C14711675   4.812   4.539   4.367  0.7100 -0.7545  0.2559
   45MOL   C14811676   4.795   4.423   4.470  0.7899 -0.7565 -0.9356
   45MOL   C14911677   4.710   4.653   4.380  0.5935  0.3209 -0.3613
   45MOL   H15011678   5.112   4.495   4.233 -0.6203  1.1238 -2.3977
   45MOL   H15111679   5.047   4.389   4.351 -0.1133 -0.3175 -0.5391
   45MOL   H15211680   4.911   4.626   4.203  0.6519 -0.2187 -1.3219
   45MOL   H15311681   4.831   4.453   4.568 -0.1726  0.6702 -1.0074
   45MOL   H15411682   4.853   4.333   4.447 -0.9020 -1.8293 -1.0778
   45MOL   H15511683   4.691   4.391   4.466  0.4514  0.0595  1.0797
   45MOL   H15611684   4.613   4.625   4.340  0.2928 -0.1502  0.6905
   45MOL   H15711685   4.752   4.715   4.300  4.4373 -0.5891  0.8530
   45MOL   C15811686   4.704   4.720   4.520  0.8907  0.5065 -0.1373
   45MOL   C15911687   4.834   4.791   4.563 -0.1430  0.2092  0.6278
   45MOL   C16011688   4.843   4.865   4.674 -1.0053  0.1738  0.4164
   45MOL   C16111689   4.729   4.876   4.772  0.5473 -0.5774 -0.3673
   45MOL   C16211690   4.979   4.929   4.717 -0.5295 -0.4968 -0.2023
   45MOL   H16311691   4.680   4.643   4.593  0.3854 -0.0645 -0.9032
   45MOL   H16411692   4.627   4.796   4.532  0.9822  0.6024 -0.1505
   45MOL   H16511693   4.927   4.770   4.512  0.5698  2.5945  0.8788
   45MOL   H16611694   4.652   4.799   4.768  0.1655 -0.1756 -0.8199
   45MOL   H16711695   4.676   4.971   4.762  0.7472 -0.5274 -0.9732
   45MOL   H16811696   4.758   4.876   4.877 -0.4679 -0.6516 -0.0834
   45MOL   H16911697   5.036   4.945   4.626 -2.9966  2.4434 -1.2945
   45MOL   H17011698   5.039   4.868   4.785 -0.2882  0.0215  0.0550
   45MOL   C17111699   4.973   5.077   4.774 -0.4531 -0.3625 -0.1782
   45MOL   C17211700   5.007   5.090   4.924 -0.1527 -0.7481 -0.0055
   45MOL   C17311701   4.945   5.155   5.024 -0.7929  0.5259 -0.0684
   45MOL   C17411702   4.814   5.231   5.014 -0.0781  0.5761  0.3497
   45MOL   C17511703   5.004   5.149   5.168 -1.0346 -0.2408 -0.4040
   45MOL   H17611704   4.870   5.107   4.755 -0.2298 -0.1793 -1.1382
   45MOL   H17711705   5.041   5.141   4.717 -1.2406 -0.0010 -0.7219
   45MOL   H17811706   5.099   5.039   4.950 -0.5881 -0.6740  1.7271
   45MOL   H17911707   4.744   5.182   4.946  1.4662  1.1251 -1.6960
   45MOL   H18011708   4.831   5.326   4.962 -0.5282  1.2208  1.3694
   45MOL   H18111709   4.761   5.246   5.108  1.9100 -0.3790  1.6559
   45MOL   H18211710   5.076   5.069   5.184 -1.5191 -0.4663  0.6522
   45MOL   H18311711   4.921   5.124   5.234 -0.2373 -2.4114 -0.1729
   45MOL   C18411712   5.057   5.290   5.220  0.6045  0.4322  0.5639
   45MOL   C18511713   5.113   5.290   5.366 -0.4249 -0.3002 -0.2037
   45MOL   C18611714   5.166   5.399   5.423 -0.5408  0.3850 -0.0307
   45MOL   C18711715   5.193   5.529   5.347 -0.0105 -0.7129 -0.3479
   45MOL   C18811716   5.212   5.407   5.568  0.0094  0.7891 -0.7443
   45MOL   H18911717   4.981   5.366   5.203  0.4746  0.4246  1.1272
   45MOL   H19011718   5.148   5.313   5.164  1.0194  0.4284  1.2267
   45MOL   H19111719   5.089   5.205   5.428  4.4579 -1.3435  0.5083
   45MOL   H19211720   5.291   5.521   5.299  0.5164  2.8672 -0.0018
   45MOL   H19311721   5.168   5.616   5.406 -1.9400 -1.5790  0.1626
   45MOL   H19411722   5.128   5.544   5.260  1.0535  0.3814 -0.9727
   45MOL   H19511723   5.298   5.472   5.583  0.4199 -0.1556  1.1199
   45MOL   H19611724   5.252   5.312   5.604 -0.0154  0.1485 -2.3620
   45MOL   C19711725   5.098   5.454   5.653 -0.9717  0.5391 -0.2084
   45MOL   C19811726   5.128   5.463   5.798  0.1356  0.6287 -0.7579
   45MOL   C19911727   5.058   5.509   5.897  0.5591 -0.3173 -0.1608
   45MOL   C20011728   4.917   5.572   5.882  0.1421  0.1736  0.0085
   45MOL   C20111729   5.108   5.492   6.039 -0.2476  0.3192 -0.4960
   45MOL   H20211730   5.011   5.389   5.638 -0.0916 -0.5177 -0.8007
   45MOL   H20311731   5.064   5.547   5.607 -1.7234 -0.2749 -1.3297
   45MOL   H20411732   5.224   5.421   5.826 -1.0205 -1.0250  0.8654
   45MOL   H20511733   4.835   5.510   5.919 -1.8832  2.0684 -1.2564
   45MOL   H20611734   4.898   5.618   5.785  2.9796  1.5268  0.0454
   45MOL   H20711735   4.929   5.649   5.958  1.0634  0.2377 -0.1878
   45MOL   H20811736   5.136   5.587   6.084  1.7436 -0.5575  0.1881
   45MOL   H20911737   5.206   5.446   6.031 -0.5275 -0.3463 -0.1385
   45MOL   C21011738   5.012   5.407   6.125 -0.2301  0.2729 -0.0519
   45MOL   C21111739   5.058   5.408   6.267  0.6092  0.4261  0.0375
   45MOL   C21211740   5.023   5.499   6.364 -0.6033 -0.0887 -0.4950
   45MOL   C21311741   4.915   5.608   6.364  0.3522 -0.1744  0.1877
   45MOL   C21411742   5.089   5.483   6.502 -0.2226  0.0459  0.3321
   45MOL   H21511743   5.014   5.301   6.099 -0.3978  0.9349 -2.9373
   45MOL   H21611744   4.907   5.434   6.121  0.3278  2.4408 -1.1177
   45MOL   H21711745   5.134   5.333   6.281 -1.0371 -1.2848  0.0012
   45MOL   H21811746   4.813   5.572   6.376  0.8107 -1.7487 -0.5497
   45MOL   H21911747   4.927   5.651   6.265 -2.1456 -1.0518 -0.5426
   45MOL   H22011748   4.950   5.678   6.439 -0.8918  0.5690  0.0908
   45MOL   H22111749   5.131   5.576   6.539  2.0972 -0.7215 -0.2439
   45MOL   H22211750   5.184   5.430   6.493 -0.4008 -0.1017 -0.7676
   45MOL   C22311751   5.002   5.402   6.604  0.0945 -0.2681 -0.5387
   45MOL   C22411752   4.967   5.256   6.577 -0.0213  0.2242 -0.5070
   45MOL   C22511753   4.850   5.204   6.529 -0.5173  0.8570  0.0500
   45MOL   C22611754   4.725   5.282   6.516  0.3650  0.0084  0.0298
   45MOL   C22711755   4.850   5.063   6.467 -0.3519  0.1929 -0.0693
   45MOL   H22811756   4.909   5.450   6.633  0.0981 -0.6661  0.1485
   45MOL   H22911757   5.053   5.403   6.701  1.0935  4.1780 -0.9844
   45MOL   H23011758   5.054   5.191   6.576  1.3684  1.9130  2.8829
   45MOL   H23111759   4.645   5.273   6.589  0.4068  1.2773  0.2407
   45MOL   H23211760   4.680   5.283   6.416 -0.6358  1.0826  0.4855
   45MOL   H23311761   4.744   5.389   6.526  2.5624 -0.1129 -2.2322
   45MOL   H23411762   4.756   5.013   6.492 -0.2532  0.1056  0.1184
   45MOL   H23511763   4.928   5.010   6.520 -2.6906 -3.3921 -0.0211
   45MOL   C23611764   4.876   5.063   6.314 -0.3796  0.5265  0.0357
   45MOL   C23711765   4.894   4.923   6.261  0.4176 -0.6305  0.3977
   45MOL   C23811766   4.978   4.879   6.162  0.7501  0.2348 -0.1674
   45MOL   C23911767   5.090   4.963   6.097  0.1758  0.5423 -0.3812
   45MOL   C24011768   4.968   4.737   6.105 -0.1343  1.2050  1.0179
   45MOL   H24111769   4.965   5.124   6.300  0.9015 -0.9640  1.5410
   45MOL   H24211770   4.796   5.121   6.267  0.6422  1.0742 -1.0803
   45MOL   H24311771   4.823   4.852   6.302 -0.4982 -0.3783 -0.7443
   45MOL   H24411772   5.180   4.902   6.094 -0.1086 -0.1512  2.7635
   45MOL   H24511773   5.107   5.053   6.157 -2.3629  0.2033  0.9098
   45MOL   H24611774   5.069   5.002   5.998  1.7646  0.0870 -0.9145
   45MOL   H24711775   4.890   4.685   6.162  1.1087 -1.5432  0.3134
   45MOL   H24811776   5.059   4.679   6.120  0.3321  2.0719  1.6093
   45MOL   C24911777   4.941   4.733   5.955  0.4452  0.4825  0.4893
   45MOL   C25011778   4.899   4.597   5.904 -0.3082 -1.0452  0.2433
   45MOL   C25111779   4.780   4.554   5.857  0.2167 -0.6817  0.0981
   45MOL   C25211780   4.649   4.628   5.851 -0.4338  0.4981  0.3502
   45MOL   C25311781   4.774   4.414   5.807 -0.2504 -0.0166 -0.0324
   45MOL   H25411782   5.029   4.764   5.899 -2.2754  3.1935 -2.4561
   45MOL   H25511783   4.864   4.803   5.923  2.0679  1.1313 -2.1015
   45MOL   H25611784   4.976   4.521   5.909  1.7795  1.1078  1.7463
   45MOL   H25711785   4.585   4.580   5.924 -1.2033 -0.6641 -1.0656
   45MOL   H25811786   4.601   4.613   5.754  0.7691 -1.0428 -0.0176
   45MOL   H25911787   4.658   4.734   5.875 -1.2902  0.2596  1.7900
   45MOL   H26011788   4.753   4.417   5.700 -0.7674  0.5214  0.0800
   45MOL   H26111789   4.699   4.345   5.845 -0.7440  1.6113  2.0022
   45MOL   H26211790   4.869   4.363   5.821 -0.1769 -0.1076 -0.8118
   46MOL     C111791   7.123   5.134   3.783 -0.5968  0.5606  0.2338
   46MOL     C211792   7.203   5.259   3.810  0.4299 -0.0389  0.1374
   46MOL     C311793   7.157   5.384   3.812 -0.4799  0.3277 -0.0954
   46MOL     C411794   7.015   5.416   3.774  0.1200  0.0962 -0.2848
   46MOL     C511795   7.253   5.500   3.842 -0.5738 -0.1755  0.2530
   46MOL     H611796   7.189   5.079   3.716  0.2016  2.0955 -0.2679
   46MOL     H711797   7.125   5.084   3.880  1.0318  2.2551  1.0956
   46MOL     H811798   7.305   5.243   3.840  0.2594 -1.5358 -0.0578
   46MOL     H911799   7.003   5.453   3.672  1.4149  2.8027  0.5245
   46MOL    H1011800   6.984   5.497   3.840  1.7246  1.0994 -0.7525
   46MOL    H1111801   6.949   5.333   3.799 -0.0588  0.2803 -0.1490
   46MOL    H1211802   7.238   5.585   3.776  3.2158  0.1002 -0.3168
   46MOL    H1311803   7.359   5.478   3.838 -0.1734  1.3375  1.8572
   46MOL    H1411804   7.018   5.142   3.753 -0.3500  1.2714 -0.4601
   46MOL    C1511805   7.226   5.554   3.985  0.1515  0.7915  0.4329
   46MOL    C1611806   7.313   5.673   4.020 -0.3237  0.3351  0.3483
   46MOL    C1711807   7.271   5.802   4.043 -0.3305 -0.5176  0.4772
   46MOL    C1811808   7.126   5.852   4.027 -0.0590 -0.3770  0.4215
   46MOL    C1911809   7.385   5.910   4.060  0.5231  0.8709 -0.2327
   46MOL    H2011810   7.259   5.484   4.061  2.1680  1.2254 -0.0212
   46MOL    H2111811   7.125   5.590   4.004 -0.2004 -0.6007  1.2555
   46MOL    H2211812   7.419   5.655   4.035 -0.4730 -0.1064  0.9042
   46MOL    H2311813   7.074   5.825   3.936  1.5413  1.2961 -1.0294
   46MOL    H2411814   7.131   5.960   4.046  1.5641 -0.2565 -0.6025
   46MOL    H2511815   7.055   5.807   4.096 -2.7792  2.7693 -0.1639
   46MOL    H2611816   7.472   5.862   4.104 -0.8093 -1.4492 -0.0615
   46MOL    H2711817   7.344   5.988   4.124 -0.6677  1.1667 -1.3292
   46MOL    C2811818   7.425   5.985   3.932 -0.0654  0.1145  0.1615
   46MOL    C2911819   7.482   6.121   3.958 -0.1624  0.6246  0.1421
   46MOL    C3011820   7.441   6.232   3.898 -0.5374  0.0278  0.0323
   46MOL    C3111821   7.331   6.240   3.789 -0.2083  0.5143  0.3463
   46MOL    C3211822   7.517   6.361   3.912  1.4409 -0.2283  0.1848
   46MOL    H3311823   7.340   5.989   3.864 -1.1403 -0.9169  1.4282
   46MOL    H3411824   7.487   5.906   3.888  0.0985 -0.4820  1.4445
   46MOL    H3511825   7.562   6.124   4.030  0.2456 -0.1994 -0.2773
   46MOL    H3611826   7.242   6.179   3.804  0.7083 -0.6270  1.3110
   46MOL    H3711827   7.382   6.212   3.697 -2.3401  2.0707 -1.3280
   46MOL    H3811828   7.293   6.341   3.777  0.2566  0.7546  0.8833
   46MOL    H3911829   7.582   6.333   3.995  1.0198  1.7746  1.2278
   46MOL    H4011830   7.453   6.445   3.937  1.3552 -0.3170  0.2650
   46MOL    C4111831   7.606   6.398   3.788  0.3622 -0.0867 -0.3968
   46MOL    C4211832   7.691   6.283   3.734  0.0746  0.5760 -1.0595
   46MOL    C4311833   7.681   6.207   3.621 -0.1179  0.4953 -0.2404
   46MOL    C4411834   7.570   6.223   3.520 -0.1741  0.0086  0.0222
   46MOL    C4511835   7.779   6.093   3.595  0.1433 -0.5055  0.0284
   46MOL    H4611836   7.666   6.477   3.834  0.8408  0.2351 -1.5663
   46MOL    H4711837   7.543   6.438   3.709  1.0984 -0.4321 -1.1675
   46MOL    H4811838   7.765   6.239   3.800  0.3743  0.4821 -1.4575
   46MOL    H4911839   7.597   6.216   3.415  0.6831  0.0152  0.2459
   46MOL    H5011840   7.518   6.319   3.524  1.9206  1.1387  0.8318
   46MOL    H5111841   7.508   6.134   3.534  1.1331 -1.1447 -1.3558
   46MOL    H5211842   7.733   6.032   3.517 -0.9504  0.1936  0.1095
   46MOL    H5311843   7.795   6.034   3.685  1.1086  1.2585  1.0410
   46MOL    C5411844   0.037   6.147   3.539  0.0429  0.5840  0.4558
   46MOL    C5511845   0.128   6.229   3.633 -0.4655  0.4776 -0.9545
   46MOL    C5611846   0.224   6.177   3.712 -0.0399  0.0503 -0.2011
   46MOL    C5711847   0.264   6.030   3.713 -0.4546 -0.5146  0.2817
   46MOL    C5811848   0.308   6.268   3.803  1.0107 -0.2460 -0.2689
   46MOL    H5911849   0.020   6.198   3.444 -1.6071 -0.6798  0.0633
   46MOL    H6011850   0.095   6.063   3.501 -2.0840 -1.3295  1.3674
   46MOL    H6111851   0.106   6.334   3.645  0.1577  0.4729  0.3153
   46MOL    H6211852   0.253   5.999   3.817  1.2347 -0.3784  0.5166
   46MOL    H6311853   0.367   6.020   3.678 -0.1480  1.8432  0.4289
   46MOL    H6411854   0.198   5.967   3.654 -0.8363  0.0798  0.0757
   46MOL    H6511855   0.304   6.373   3.774  0.2672  0.1932  1.3533
   46MOL    H6611856   0.410   6.239   3.778  1.7935  2.1135  0.1011
   46MOL    C6711857   0.274   6.241   3.955  0.2954  0.0311  0.3804
   46MOL    C6811858   0.340   6.331   4.057  0.6605 -0.0684 -0.4548
   46MOL    C6911859   0.443   6.296   4.141 -0.2645 -0.4949 -0.3368
   46MOL    C7011860   0.519   6.175   4.113 -0.6298  1.0963  0.1610
   46MOL    C7111861   0.511   6.382   4.246 -0.5623 -0.3315  0.2380
   46MOL    H7211862   0.282   6.134   3.974  2.5380  0.3616  1.4668
   46MOL    H7311863   0.167   6.262   3.963  0.0807 -0.1841 -1.6019
   46MOL    H7411864   0.298   6.428   4.078 -1.6811 -1.0626 -0.4567
   46MOL    H7511865   0.597   6.201   4.042 -1.0396  0.5567 -0.4942
   46MOL    H7611866   0.466   6.083   4.087 -0.5179  1.1102 -0.1213
   46MOL    H7711867   0.575   6.149   4.203  1.3750 -0.1539 -1.4081
   46MOL    H7811868   0.617   6.391   4.223 -0.5280 -2.4313 -0.5322
   46MOL    H7911869   0.504   6.317   4.334  1.2643 -0.0869  0.5771
   46MOL    C8011870   0.446   6.511   4.289 -0.0078  0.0196 -0.0636
   46MOL    C8111871   0.487   6.563   4.424 -0.0795  0.9898 -0.3978
   46MOL    C8211872   0.417   6.654   4.489 -0.4163 -0.1090 -0.7695
   46MOL    C8311873   0.301   6.732   4.429 -0.6249  0.8779  0.1641
   46MOL    C8411874   0.448   6.705   4.631 -0.7408 -0.2995 -0.4487
   46MOL    H8511875   0.337   6.513   4.287 -0.0911 -0.9982  1.6090
   46MOL    H8611876   0.474   6.582   4.211  2.0391 -0.9251 -0.2130
   46MOL    H8711877   0.584   6.538   4.464 -0.8825  1.6520  2.0911
   46MOL    H8811878   0.220   6.713   4.500  0.1697 -0.2915  0.7694
   46MOL    H8911879   0.264   6.689   4.336 -1.6702 -0.9309  1.3819
   46MOL    H9011880   0.317   6.838   4.409 -0.4258  0.9740  0.8233
   46MOL    H9111881   0.357   6.728   4.687 -1.1470 -2.5000 -0.1620
   46MOL    H9211882   0.503   6.797   4.609  0.5433 -0.6296  1.2729
   46MOL    C9311883   0.523   6.609   4.730 -0.0500 -0.0657  0.0630
   46MOL    C9411884   0.562   6.668   4.858 -0.4607 -0.3130 -0.3709
   46MOL    C9511885   0.563   6.609   4.978 -0.3302  0.0646  0.2513
   46MOL    C9611886   0.523   6.461   5.003 -0.0671  0.1800 -0.1902
   46MOL    C9711887   0.609   6.684   5.104 -0.8122 -0.1791 -0.3347
   46MOL    H9811888   0.612   6.568   4.681  0.7914 -1.3452  2.5621
   46MOL    H9911889   0.455   6.524   4.737  0.0132 -0.0717  0.5656
   46MOL   H10011890   0.613   6.763   4.852 -3.6768  1.5959  1.1224
   46MOL   H10111891   0.563   6.432   5.100  0.2794 -1.6463 -0.8693
   46MOL   H10211892   0.571   6.403   4.924 -0.7358 -1.0267  0.2673
   46MOL   H10311893   0.414   6.453   5.006 -0.0311 -0.6879 -0.8481
   46MOL   H10411894   0.653   6.778   5.069 -1.6400  0.7660  1.1258
   46MOL   H10511895   0.697   6.630   5.139 -1.3513 -0.6422  0.2893
   46MOL   C10611896   0.507   6.711   5.214 -0.3404  0.4277 -0.4384
   46MOL   C10711897   0.575   6.705   5.350  0.0137  0.0874 -0.6944
   46MOL   C10811898   0.560   6.795   5.449  0.0214 -0.4067  0.2799
   46MOL   C10911899   0.450   6.901   5.451 -0.4504  0.4920 -0.9312
   46MOL   C11011900   0.636   6.795   5.578  0.0496 -0.3056 -0.1589
   46MOL   H11111901   0.429   6.635   5.219 -0.8297  1.0632  1.5760
   46MOL   H11211902   0.449   6.800   5.191 -1.3781  0.0485  0.6800
   46MOL   H11311903   0.641   6.620   5.363 -0.1838  0.3770  2.6047
   46MOL   H11411904   0.428   6.928   5.554 -2.5477 -0.2040 -1.1725
   46MOL   H11511905   0.367   6.855   5.397  0.5914 -2.3850 -0.1564
   46MOL   H11611906   0.492   6.993   5.408  0.3481  0.3373 -0.4894
   46MOL   H11711907   0.702   6.708   5.585 -2.1287 -1.8856  1.7999
   46MOL   H11811908   0.567   6.792   5.663 -1.4443  2.2657 -1.2155
   46MOL   C11911909   0.721   6.925   5.589  0.1023 -1.1283  0.0569
   46MOL   C12011910   0.815   6.938   5.706  0.0030 -0.7680 -0.1183
   46MOL   C12111911   0.875   7.043   5.769  0.6036  0.0974  0.0851
   46MOL   C12211912   0.853   7.184   5.723  0.5747 -0.0928  0.5170
   46MOL   C12311913   0.966   7.031   5.889 -0.4386  0.1707  0.1327
   46MOL   H12411914   0.650   7.007   5.587  3.3233  1.7827  0.0057
   46MOL   H12511915   0.791   6.935   5.505  0.0689  2.4296  0.3923
   46MOL   H12611916   0.848   6.847   5.753  0.6729  0.0513  1.0407
   46MOL   H12711917   0.939   7.223   5.669  0.8194  1.5215  2.0379
   46MOL   H12811918   0.836   7.250   5.809 -0.3232 -0.7714  0.8722
   46MOL   H12911919   0.760   7.187   5.666  0.3007  3.3310  1.0095
   46MOL   H13011920   1.005   7.131   5.910  1.4873 -0.5475  0.0604
   46MOL   H13111921   1.046   6.963   5.862 -0.8227  0.4543 -1.8078
   46MOL   C13211922   0.909   6.983   6.023 -0.2932 -0.2073 -0.3355
   46MOL   C13311923   1.007   6.995   6.139 -0.0492 -0.3015  0.3492
   46MOL   C13411924   1.117   6.920   6.144 -0.1184 -0.4599  0.6519
   46MOL   C13511925   1.144   6.802   6.059 -0.5446 -0.1729 -0.1447
   46MOL   C13611926   1.227   6.948   6.252  0.2683 -0.1602  0.9940
   46MOL   H13711927   0.879   6.878   6.026  0.6330 -0.5713 -2.7203
   46MOL   H13811928   0.832   7.049   6.061  0.2468  0.4991 -0.4481
   46MOL   H13911929   1.003   7.086   6.196  1.3566 -0.7322  1.1485
   46MOL   H14011930   1.055   6.762   6.011 -0.8424 -1.3039  1.3124
   46MOL   H14111931   1.201   6.721   6.104 -1.5187 -0.2613  0.9595
   46MOL   H14211932   1.212   6.834   5.980 -0.9539 -0.1330 -0.4825
   46MOL   H14311933   1.214   7.044   6.301 -0.2637  0.4339 -0.2746
   46MOL   H14411934   1.322   6.962   6.200 -1.6683  0.6432 -2.5134
   46MOL   C14511935   1.218   6.834   6.358  0.5734  0.0775 -0.0543
   46MOL   C14611936   1.284   6.852   6.491  1.1745  0.0743  0.0665
   46MOL   C14711937   1.381   6.778   6.546 -0.4299  0.6677 -0.2770
   46MOL   C14811938   1.449   6.657   6.484 -0.5751  0.7374  0.3125
   46MOL   C14911939   1.431   6.808   6.687 -0.2004 -0.2095 -0.2425
   46MOL   H15011940   1.269   6.745   6.322  1.7155  0.0340  1.6258
   46MOL   H15111941   1.113   6.818   6.383  0.3831 -1.0519 -1.5409
   46MOL   H15211942   1.258   6.939   6.550  2.2211 -0.3700  1.2055
   46MOL   H15311943   1.382   6.587   6.434  1.6772 -1.5095  0.3173
   46MOL   H15411944   1.502   6.606   6.564  0.9931 -2.0331 -2.3986
   46MOL   H15511945   1.523   6.684   6.408 -0.8791  2.5118  0.6321
   46MOL   H15611946   1.399   6.908   6.716 -0.3871 -0.3432  0.0089
   46MOL   H15711947   1.540   6.817   6.681 -0.2329  1.3826  1.0484
   46MOL   C15811948   1.392   6.703   6.790  0.7186  0.6174  0.4710
   46MOL   C15911949   1.240   6.685   6.799 -0.1237 -0.7717  0.6003
   46MOL   C16011950   1.170   6.716   6.908 -0.1042 -0.5731  0.7560
   46MOL   C16111951   1.227   6.788   7.025 -0.3901  0.3263 -0.2138
   46MOL   C16211952   1.015   6.687   6.898 -0.4535 -0.4424  0.1286
   46MOL   H16311953   1.434   6.733   6.885 -0.4256 -0.6985  1.4179
   46MOL   H16411954   1.441   6.606   6.773 -0.7898  0.2130 -1.7978
   46MOL   H16511955   1.191   6.647   6.711 -0.3510  2.1253 -0.6050
   46MOL   H16611956   1.280   6.713   7.083  0.1138 -0.3717 -1.5735
   46MOL   H16711957   1.141   6.829   7.079  0.2303  2.5208 -0.8186
   46MOL   H16811958   1.289   6.873   6.996 -0.0828  1.0572  2.3997
   46MOL   H16911959   0.987   6.626   6.984 -1.1906 -0.3378 -0.0322
   46MOL   H17011960   0.996   6.629   6.808  0.8760  1.2606 -1.2813
   46MOL   C17111961   0.934   6.824   6.892 -0.2537  0.4802  0.2829
   46MOL   C17211962   0.788   6.805   6.896 -0.3714 -0.4834  0.6694
   46MOL   C17311963   0.695   6.806   6.794 -0.0590 -1.0077 -0.1635
   46MOL   C17411964   0.732   6.806   6.645 -0.0171 -0.7049 -0.4615
   46MOL   C17511965   0.548   6.786   6.818 -0.1825  0.7911 -0.6028
   46MOL   H17611966   0.955   6.879   6.800 -0.0833  0.2172  0.1623
   46MOL   H17711967   0.955   6.888   6.977  0.1812 -0.4613  0.8972
   46MOL   H17811968   0.760   6.784   6.999  0.6387  0.5511  1.1729
   46MOL   H17911969   0.643   6.787   6.585  0.2481 -3.1507 -0.1402
   46MOL   H18011970   0.809   6.736   6.612 -0.0424  0.2677 -2.6482
   46MOL   H18111971   0.763   6.909   6.625 -1.5772 -0.1265 -0.0366
   46MOL   H18211972   0.536   6.809   6.924  0.6141  3.3286 -1.0412
   46MOL   H18311973   0.518   6.683   6.801  0.2939  0.2506  1.6372
   46MOL   C18411974   0.455   6.885   6.759 -0.5294  0.5239  0.2213
   46MOL   C18511975   0.496   7.033   6.773 -0.2681 -0.4043  0.3510
   46MOL   C18611976   0.417   7.136   6.814 -0.0576 -1.0514  0.6863
   46MOL   C18711977   0.269   7.123   6.846  0.3353 -0.8217 -0.1643
   46MOL   C18811978   0.467   7.277   6.827  0.4908  0.1948 -0.1129
   46MOL   H18911979   0.360   6.864   6.810 -1.4236  0.2999 -1.5140
   46MOL   H19011980   0.439   6.871   6.653  0.2178  0.6237  0.0904
   46MOL   H19111981   0.595   7.058   6.737 -0.3921  2.5659  1.8686
   46MOL   H19211982   0.231   7.029   6.885  2.7504 -2.2154 -1.0755
   46MOL   H19311983   0.219   7.144   6.751  0.6600  2.3013  0.2835
   46MOL   H19411984   0.240   7.199   6.919 -1.4835 -1.3955 -0.2643
   46MOL   H19511985   0.570   7.277   6.793 -0.2741  2.5645 -2.5557
   46MOL   H19611986   0.470   7.304   6.933 -1.1429  0.4937 -0.1257
   46MOL   C19711987   0.386   7.374   6.737  0.1447 -0.3985 -0.1800
   46MOL   C19811988   0.445   7.520   6.729  0.8000 -0.1739 -0.0917
   46MOL   C19911989   0.450   7.599   6.619  0.2938  0.5104  0.8747
   46MOL   C20011990   0.393   7.547   6.493  0.0259  0.2473  0.4763
   46MOL   C20111991   0.525   7.729   6.616  0.0801  0.1928 -0.2640
   46MOL   H20211992   0.284   7.380   6.773  0.3021  1.5588  0.0041
   46MOL   H20311993   0.381   7.326   6.639  3.5614 -1.3138  0.0248
   46MOL   H20411994   0.491   7.566   6.815 -2.7723  0.8806  1.3597
   46MOL   H20511995   0.293   7.506   6.506  0.1792 -0.8677 -1.6572
   46MOL   H20611996   0.450   7.465   6.449 -1.5749 -0.9559  0.6257
   46MOL   H20711997   0.383   7.615   6.409 -0.5263 -0.1038  0.2592
   46MOL   H20811998   0.547   7.760   6.718 -2.5603  0.1133  0.3749
   46MOL   H20911999   0.451   7.807   6.595  0.0271 -0.4473 -2.6097
   46MOL   C21012000   0.647   7.734   6.520  0.1377  0.0500 -0.1805
   46MOL   C21112001   0.712   7.870   6.510  1.1281 -0.4854  0.2036
   46MOL   C21212002   0.711   0.076   6.404  0.3099 -0.6019 -0.7756
   46MOL   C21312003   0.667   0.031   6.266  0.5225 -0.1455 -0.3399
   46MOL   C21412004   0.779   0.216   6.402 -0.5199 -0.0209 -0.1613
   46MOL   H21512005   0.614   7.706   6.420 -0.6201 -1.3296  0.4440
   46MOL   H21612006   0.719   7.658   6.553  1.6101  0.5573 -2.1616
   46MOL   H21712007   0.761   0.011   6.603 -2.2830  1.9888  1.4922
   46MOL   H21812008   0.747   7.855   6.222 -0.4806 -1.8521  0.0660
   46MOL   H21912009   0.625   0.105   6.198  1.7472 -0.0867 -1.0262
   46MOL   H22012010   0.577   7.852   6.276  0.1186  0.1556 -1.9835
   46MOL   H22112011   0.707   0.288   6.362  0.6514  1.1459 -0.2215
   46MOL   H22212012   0.869   0.213   6.340  0.1177 -0.9922  0.8033
   46MOL   C22312013   0.813   0.282   6.538  0.2631 -0.7834 -0.0530
   46MOL   C22412014   0.884   0.413   6.514  0.2543 -0.5143  0.3722
   46MOL   C22512015   0.952   0.488   6.605 -0.3390 -1.2068 -0.3137
   46MOL   C22612016   0.964   0.461   6.753  0.0808  0.2394  0.7707
   46MOL   C22712017   1.025   0.616   6.554  0.5947  0.1192 -0.3656
   46MOL   H22812018   0.874   0.220   6.605 -0.7283 -2.2807 -0.5045
   46MOL   H22912019   0.718   0.301   6.587  0.4894 -1.5022  0.6858
   46MOL   H23012020   0.878   0.452   6.414 -1.7722 -2.8382 -0.4579
   46MOL   H23112021   0.956   0.552   6.813  0.1472  0.2160  0.8161
   46MOL   H23212022   1.064   0.418   6.762 -0.0534 -0.3748 -0.5958
   46MOL   H23312023   0.890   0.393   6.795  1.7068 -1.5292  0.8336
   46MOL   H23412024   1.007   0.614   6.447 -0.2940  0.9035 -0.2400
   46MOL   H23512025   1.132   0.601   6.569  0.8407 -0.0404 -2.1730
   46MOL   C23612026   0.986   0.744   6.624  0.2968  0.0361 -0.3125
   46MOL   C23712027   1.029   0.864   6.542 -0.2148 -0.5423  0.3820
   46MOL   C23812028   1.103   0.968   6.579 -0.1452 -0.4138  0.3867
   46MOL   C23912029   1.139   0.999   6.726 -0.1904  0.2142  0.1271
   46MOL   C24012030   1.142   1.084   6.480 -0.6607 -0.0525 -0.4268
   46MOL   H24112031   1.037   0.723   6.718 -0.4359  2.0640  0.5593
   46MOL   H24212032   0.878   0.733   6.628  0.2800  0.9120  2.7423
   46MOL   H24312033   0.991   0.858   6.441 -2.8626 -0.7771  1.3542
   46MOL   H24412034   1.113   1.102   6.752 -2.0618 -0.1721 -0.1602
   46MOL   H24512035   1.245   0.984   6.748 -0.4752 -0.5212  1.0402
   46MOL   H24612036   1.094   0.934   6.801  1.0711  0.5760  1.2335
   46MOL   H24712037   1.244   1.112   6.508 -0.3091 -1.6904  0.0084
   46MOL   H24812038   1.083   1.175   6.484 -0.2992  0.1840 -0.4266
   46MOL   C24912039   1.148   1.026   6.334  0.0111  0.1653  0.9328
   46MOL   C25012040   1.221   1.118   6.237  0.0240  0.3454 -0.2159
   46MOL   C25112041   1.170   1.158   6.120 -0.4035 -0.4832 -0.3734
   46MOL   C25212042   1.028   1.131   6.060 -0.8024  0.7359 -0.4261
   46MOL   C25312043   1.249   1.253   6.036  0.3165  0.7282  0.4297
   46MOL   H25412044   1.047   1.006   6.298 -0.4374  1.8320  1.1969
   46MOL   H25512045   1.206   0.934   6.329  2.1880  1.4898  0.8439
   46MOL   H25612046   1.323   1.142   6.264  0.1055 -1.4721  1.1398
   46MOL   H25712047   0.949   1.163   6.128 -0.9271  2.2217 -1.2464
   46MOL   H25812048   1.012   1.024   6.051  2.6953  0.1473 -0.5012
   46MOL   H25912049   1.025   1.182   5.964 -1.3134 -0.7118 -1.1863
   46MOL   H26012050   1.286   1.202   5.947  0.6078  1.3214  0.2057
   46MOL   H26112051   1.337   1.295   6.085  2.1467 -0.1504 -2.0500
   46MOL   H26212052   1.192   1.334   5.992 -0.7904 -1.4085 -2.2062
   47MOL     C112053   4.725   1.718   2.519 -0.1683 -0.1224  0.6542
   47MOL     C212054   4.795   1.609   2.602  0.1456  0.0536 -0.3387
   47MOL     C312055   4.876   1.628   2.711  0.2076 -0.1477 -0.2047
   47MOL     C412056   4.926   1.762   2.758 -0.2440 -0.1283 -0.6874
   47MOL     C512057   4.932   1.499   2.771 -0.8380 -0.7768 -0.0448
   47MOL     H612058   4.758   1.727   2.416 -1.5639 -0.5118  0.1648
   47MOL     H712059   4.622   1.682   2.514  0.2679 -1.5061  1.4445
   47MOL     H812060   4.768   1.511   2.564  3.0022 -1.0713  0.4465
   47MOL     H912061   4.931   1.839   2.681 -0.4310 -0.9852 -1.5813
   47MOL    H1012062   5.033   1.743   2.769  0.0799  0.8648 -2.0546
   47MOL    H1112063   4.875   1.791   2.849 -0.8713  1.6005 -1.5659
   47MOL    H1212064   5.040   1.492   2.753 -0.5340 -0.8541  1.7643
   47MOL    H1312065   4.906   1.417   2.704 -3.3537  0.0599 -0.1591
   47MOL    H1412066   4.735   1.813   2.572  0.3269 -0.4431  1.1391
   47MOL    C1512067   4.892   1.488   2.916  0.3360  0.4742 -0.2814
   47MOL    C1612068   4.993   1.402   2.986  0.0577  0.1023 -1.0598
   47MOL    C1712069   4.999   1.264   2.985  0.0035  0.1893  0.3719
   47MOL    C1812070   4.891   1.181   2.914 -0.0706  0.4872  0.0131
   47MOL    C1912071   5.116   1.198   3.049 -0.1839  0.5660 -0.0805
   47MOL    H2012072   4.787   1.458   2.924  0.2916  0.6876 -0.0468
   47MOL    H2112073   4.896   1.584   2.967 -0.6132  0.3452  0.0539
   47MOL    H2212074   5.068   1.453   3.045  1.3856 -3.7274  0.7005
   47MOL    H2312075   4.796   1.230   2.893 -1.1590 -1.7103 -0.3982
   47MOL    H2412076   4.859   1.098   2.977  0.7603  0.7502  0.7810
   47MOL    H2512077   4.913   1.133   2.819  1.7279 -2.3887  1.8065
   47MOL    H2612078   5.075   1.147   3.136 -0.3843 -1.3143 -1.2646
   47MOL    H2712079   5.191   1.270   3.081 -0.7301  1.1056  0.0082
   47MOL    C2812080   5.183   1.090   2.962  0.9689 -0.0438 -0.5064
   47MOL    C2912081   5.294   1.158   2.882 -0.0513 -0.0272 -0.0198
   47MOL    C3012082   5.424   1.116   2.883  0.0644 -0.0784 -0.2445
   47MOL    C3112083   5.486   1.009   2.967 -0.6747  0.6077 -0.0613
   47MOL    C3212084   5.517   1.181   2.787 -0.6029  0.7297  0.3079
   47MOL    H3312085   5.110   1.048   2.893  0.2072 -1.3849  1.0810
   47MOL    H3412086   5.222   1.010   3.024 -0.7333 -1.7756 -1.6225
   47MOL    H3512087   5.274   1.239   2.813  1.4264 -0.3476 -0.8487
   47MOL    H3612088   5.555   1.055   3.037 -2.1489 -0.5999  2.2783
   47MOL    H3712089   5.538   0.943   2.897  1.4342  0.8651  1.2424
   47MOL    H3812090   5.418   0.959   3.036 -1.1652 -0.4612 -1.2936
   47MOL    H3912091   5.612   1.210   2.831 -0.4703 -1.6460  1.6771
   47MOL    H4012092   5.469   1.272   2.750  0.2737  0.9507 -0.2955
   47MOL    C4112093   5.563   1.099   2.667 -0.2134  0.0387  0.6936
   47MOL    C4212094   5.667   1.166   2.583 -0.4414 -0.1059 -0.2454
   47MOL    C4312095   5.658   1.209   2.456 -0.6398 -0.4476  0.2441
   47MOL    C4412096   5.546   1.165   2.359  0.3180  0.2142  0.0501
   47MOL    C4512097   5.774   1.267   2.380 -0.3555  0.0109 -0.6609
   47MOL    H4612098   5.493   1.050   2.600  0.4718  0.7597 -0.5742
   47MOL    H4712099   5.610   1.013   2.714  0.4475 -0.4470 -0.8258
   47MOL    H4812100   5.758   1.195   2.632 -1.4167  0.0496  1.4892
   47MOL    H4912101   5.562   1.062   2.324 -0.6547 -0.4393  1.5042
   47MOL    H5012102   5.532   1.243   2.284 -1.3536 -1.3242 -1.2845
   47MOL    H5112103   5.457   1.177   2.421 -0.2279 -1.3747 -0.4068
   47MOL    H5212104   5.824   1.339   2.443 -1.9997 -1.4396  2.3912
   47MOL    H5312105   5.740   1.326   2.295 -1.0092 -1.9733 -1.8223
   47MOL    C5412106   5.867   1.154   2.335  0.6324 -0.5877 -0.1420
   47MOL    C5512107   5.981   1.220   2.269 -0.0197 -1.1127  0.1820
   47MOL    C5612108   6.107   1.199   2.288 -0.6453 -0.3448 -1.2724
   47MOL    C5712109   6.144   1.087   2.384 -0.7312 -0.4933 -0.3558
   47MOL    C5812110   6.206   1.261   2.195  0.0443 -0.5414 -0.4889
   47MOL    H5912111   5.815   1.093   2.261 -0.7690  1.5428 -0.9682
   47MOL    H6012112   5.892   1.088   2.418  1.9586 -1.1974 -0.9929
   47MOL    H6112113   5.945   1.299   2.206  2.1382 -0.2654 -0.0241
   47MOL    H6212114   6.098   0.992   2.358 -3.8761  0.4067  1.6649
   47MOL    H6312115   6.130   1.103   2.491  0.3170 -1.5920 -0.0340
   47MOL    H6412116   6.246   1.048   2.382  0.0217  1.4370 -0.0961
   47MOL    H6512117   6.290   1.282   2.262 -1.0154 -0.0076  0.6893
   47MOL    H6612118   6.174   1.360   2.163 -0.0945 -0.0122  1.2269
   47MOL    C6712119   6.231   1.164   2.077  0.5221 -0.4403 -0.3038
   47MOL    C6812120   6.340   1.216   1.984 -0.3299  0.2796 -0.1394
   47MOL    C6912121   6.361   1.188   1.856  0.3348 -0.2935  0.0979
   47MOL    C7012122   6.261   1.102   1.778  0.2552  0.3983 -0.0867
   47MOL    C7112123   6.478   1.248   1.780  0.7147  0.0199 -0.0894
   47MOL    H7212124   6.141   1.145   2.018 -0.4927  0.8734  0.7902
   47MOL    H7312125   6.267   1.067   2.109 -0.1315 -0.0712  1.5805
   47MOL    H7412126   6.407   1.286   2.032  1.1108 -1.1093 -0.0796
   47MOL    H7512127   6.299   1.084   1.678  2.1997  0.8349  0.5435
   47MOL    H7612128   6.162   1.145   1.770 -0.0166 -0.2533 -0.2342
   47MOL    H7712129   6.256   1.018   1.848  0.5750 -1.0884 -1.8051
   47MOL    H7812130   6.519   1.327   1.842 -0.9898  0.4163  0.5641
   47MOL    H7912131   6.455   1.324   1.705 -0.1176  0.7841  0.9255
   47MOL    C8012132   6.575   1.142   1.742 -0.6353  0.4293  0.0790
   47MOL    C8112133   6.703   1.187   1.661  0.2984 -0.0263  0.2770
   47MOL    C8212134   6.728   1.151   1.529  0.9334 -0.3097 -0.3108
   47MOL    C8312135   6.628   1.075   1.445  0.1228 -0.4838 -0.8700
   47MOL    C8412136   6.858   1.184   1.459 -0.2418  0.2571 -0.0696
   47MOL    H8512137   6.525   1.060   1.690  1.0243 -0.9943  0.6647
   47MOL    H8612138   6.610   1.096   1.835 -1.0461  0.2610  0.1519
   47MOL    H8712139   6.773   1.251   1.713  1.8534 -0.1690 -1.5613
   47MOL    H8812140   6.530   1.102   1.484 -0.3941 -2.4385 -0.7253
   47MOL    H8912141   6.642   0.966   1.446  2.5563 -0.2130 -2.0893
   47MOL    H9012142   6.627   1.112   1.343  1.0999 -1.7022 -1.3369
   47MOL    H9112143   6.832   1.237   1.367 -0.0973 -0.9121 -0.7900
   47MOL    H9212144   6.902   1.095   1.414  2.1436  0.7289  1.2588
   47MOL    C9312145   6.968   1.249   1.541 -0.4381 -0.5035 -0.2885
   47MOL    C9412146   7.095   1.284   1.463  0.2190  1.1774 -0.5530
   47MOL    C9512147   7.214   1.220   1.476  0.2221 -0.6865 -0.2585
   47MOL    C9612148   7.229   1.106   1.575  0.2567 -0.1684 -0.4935
   47MOL    C9712149   7.333   1.273   1.408  0.5977 -0.6217 -0.0632
   47MOL    H9812150   6.995   1.173   1.615 -0.4906  0.1766  0.4300
   47MOL    H9912151   6.933   1.343   1.582 -1.2471 -1.0572  0.3226
   47MOL   H10012152   7.091   1.372   1.400 -0.6127  0.3524 -1.6768
   47MOL   H10112153   7.208   1.128   1.679 -1.9380  3.1812 -1.5439
   47MOL   H10212154   7.326   1.057   1.585  0.1649 -0.0482  1.0650
   47MOL   H10312155   7.158   1.029   1.541  0.5252  0.6305 -2.9993
   47MOL   H10412156   7.423   1.268   1.469  0.3217 -0.6955  0.3379
   47MOL   H10512157   7.327   1.378   1.380  0.5337 -0.2837  1.2084
   47MOL   C10612158   7.352   1.191   1.281  0.1176 -0.5354 -0.6268
   47MOL   C10712159   7.486   1.225   1.208  0.0530 -0.2576 -0.3039
   47MOL   C10812160   7.490   1.296   1.094 -0.5446 -0.0206  0.1103
   47MOL   C10912161   7.365   1.365   1.043  0.2134 -0.8785 -0.0356
   47MOL   C11012162   7.612   1.327   1.018 -0.0192  0.4960 -0.3084
   47MOL   H11112163   7.266   1.179   1.215 -0.6665  1.6734 -0.0749
   47MOL   H11212164   7.376   1.088   1.307  0.6311 -0.0416  0.9384
   47MOL   H11312165   7.579   1.191   1.251  1.3109  3.9345  0.4506
   47MOL   H11412166   7.287   1.391   1.115 -0.0491  2.2163 -1.3805
   47MOL   H11512167   7.323   1.300   0.966  0.0699 -1.4095  0.4858
   47MOL   H11612168   7.391   1.463   1.004  0.0784 -0.8430 -0.0378
   47MOL   H11712169   7.700   1.286   1.068 -0.7191  0.8081  1.2129
   47MOL   H11812170   7.623   1.435   1.006  1.1885  0.2530 -1.4330
   47MOL   C11912171   7.603   1.269   0.872 -0.0969 -0.6739  0.3735
   47MOL   C12012172   7.575   1.127   0.853  0.4809 -0.4607  0.4241
   47MOL   C12112173   7.469   1.061   0.791 -0.1345 -0.0258 -0.0715
   47MOL   C12212174   7.343   1.126   0.741  0.2357 -0.1743 -0.1655
   47MOL   C12312175   7.462   0.908   0.788 -0.2122  0.2694 -0.6393
   47MOL   H12412176   7.698   1.286   0.821 -0.2458  1.2582  0.7144
   47MOL   H12512177   7.523   1.321   0.820  1.7206  1.2145 -0.5949
   47MOL   H12612178   7.649   1.059   0.892  0.6120  0.7699  2.4528
   47MOL   H12712179   7.260   1.120   0.811 -1.1407 -3.6658 -1.9896
   47MOL   H12812180   7.318   1.071   0.651  4.0363  1.4442 -2.3581
   47MOL   H12912181   7.361   1.226   0.700  2.4171  0.1285  1.4119
   47MOL   H13012182   7.362   0.866   0.801 -0.7307  1.3639 -1.0715
   47MOL   H13112183   7.521   0.871   0.873  0.2977  2.1974 -0.1208
   47MOL   C13212184   7.511   0.841   0.656 -0.7166 -0.2852  0.4168
   47MOL   C13312185   7.494   0.691   0.658 -0.2851 -0.4029 -0.9209
   47MOL   C13412186   7.539   0.604   0.568 -0.3695 -0.7996 -0.1886
   47MOL   C13512187   7.594   0.647   0.433  1.2070  0.3738 -0.3203
   47MOL   C13612188   7.526   0.457   0.589  0.2377  0.1798 -0.1495
   47MOL   H13712189   7.618   0.857   0.644 -0.0232 -4.3035  0.4723
   47MOL   H13812190   7.470   0.888   0.566 -0.1945 -0.4661  0.0766
   47MOL   H13912191   7.452   0.647   0.748 -2.4908  0.5843 -1.4280
   47MOL   H14012192   7.603   0.753   0.413  0.0864  0.2081 -1.7441
   47MOL   H14112193   7.547   0.598   0.348  0.6094 -0.7884  0.6612
   47MOL   H14212194   7.689   0.594   0.440  1.7346  1.0882 -2.0122
   47MOL   H14312195   7.459   0.427   0.508 -1.3614  1.5547  0.6457
   47MOL   H14412196   7.471   0.444   0.682 -0.3403 -0.5795 -0.5849
   47MOL   C14512197   7.650   0.366   0.590  0.8653  0.3942  0.4264
   47MOL   C14612198   7.743   0.398   0.703 -0.0471 -0.9493  0.5056
   47MOL   C14712199   7.861   0.336   0.723  0.4366 -0.0121  0.1581
   47MOL   C14812200   0.015   0.201   0.652 -0.2248 -0.4944  0.2879
   47MOL   C14912201   0.078   0.371   0.828  0.6623  0.1835 -0.3505
   47MOL   H15012202   7.695   0.371   0.491  0.3366  1.4184  0.2370
   47MOL   H15112203   7.636   0.259   0.604  3.9294 -0.1528 -0.1619
   47MOL   H15212204   7.728   0.493   0.753  0.7254 -0.3886 -0.3240
   47MOL   H15312205   7.825   0.176   0.574 -1.6744 -0.2294  1.5310
   47MOL   H15412206   0.008   0.118   0.722  1.9106 -2.4536 -1.7653
   47MOL   H15512207   0.116   0.198   0.612 -0.8186 -0.6980 -1.2377
   47MOL   H15612208   0.062   0.475   0.856 -1.1197  0.3363 -1.8491
   47MOL   H15712209   0.184   0.369   0.799  0.7438 -0.2038 -0.0247
   47MOL   C15812210   0.059   0.277   0.952  0.0368  0.6353 -0.2179
   47MOL   C15912211   0.135   0.323   1.081  1.1348  0.1814  0.5204
   47MOL   C16012212   0.227   0.247   1.151  0.5990 -0.1604 -0.5385
   47MOL   C16112213   0.278   0.113   1.095  0.1911 -0.1405 -0.0894
   47MOL   C16212214   0.286   0.308   1.280 -0.3027  0.4423 -0.5961
   47MOL   H16312215   0.086   0.177   0.916 -0.1964  0.5579 -0.1765
   47MOL   H16412216   7.835   0.274   0.975 -0.5819 -0.5891 -2.9816
   47MOL   H16512217   0.088   0.414   1.115 -1.5946 -0.2196 -2.0154
   47MOL   H16612218   0.283   0.038   1.173  3.9420 -0.1094 -0.1832
   47MOL   H16712219   0.386   0.128   1.089  0.2991 -1.0013 -0.3628
   47MOL   H16812220   0.243   0.073   1.000 -0.9144  0.8486 -0.1043
   47MOL   H16912221   0.253   0.410   1.300 -0.5504  0.0628  1.0202
   47MOL   H17012222   0.393   0.311   1.261 -0.6049 -0.1642 -2.4319
   47MOL   C17112223   0.257   0.219   1.406  0.4104  0.2989  0.6371
   47MOL   C17212224   0.287   0.310   1.527 -0.0659  1.0546 -0.3953
   47MOL   C17312225   0.393   0.306   1.603  0.2279 -1.2230  1.4038
   47MOL   C17412226   0.504   0.211   1.577  0.7410 -0.1118  0.0426
   47MOL   C17512227   0.415   0.402   1.720  0.7904  0.4373  0.4278
   47MOL   H17612228   0.314   0.128   1.391 -0.4754 -0.2733  0.7574
   47MOL   H17712229   0.156   0.181   1.416  0.0001  1.3694  0.6168
   47MOL   H17812230   0.203   0.374   1.547 -2.7149 -2.3453 -0.1762
   47MOL   H17912231   0.496   0.128   1.648  0.0808  0.2562  0.4078
   47MOL   H18012232   0.594   0.271   1.589  0.6858  0.1916 -1.0471
   47MOL   H18112233   0.505   0.160   1.481 -0.0851  3.8558 -2.1678
   47MOL   H18212234   0.455   0.492   1.676  0.2934 -0.3228 -1.6187
   47MOL   H18312235   0.497   0.381   1.789 -0.4335 -1.5017  1.3428
   47MOL   C18412236   0.291   0.419   1.807 -0.1389  0.0062  0.0998
   47MOL   C18512237   0.307   0.518   1.922 -0.6161 -0.4705 -0.1393
   47MOL   C18612238   0.254   0.518   2.049  0.9128  0.4408 -0.1627
   47MOL   C18712239   0.167   0.411   2.104 -0.5118 -0.0399 -0.5857
   47MOL   C18812240   0.281   0.634   2.145 -0.6501 -0.1490 -0.8706
   47MOL   H18912241   0.238   0.332   1.844  0.3778  0.0764  1.0358
   47MOL   H19012242   0.222   0.478   1.748  1.7506  0.7215 -1.4584
   47MOL   H19112243   0.361   0.607   1.895 -3.1297  0.7582 -1.2353
   47MOL   H19212244   0.130   0.347   2.023 -0.5088 -0.2651 -0.4082
   47MOL   H19312245   0.076   0.455   2.145  0.7650 -0.6070  3.0123
   47MOL   H19412246   0.202   0.346   2.184 -1.4879 -2.3882 -1.9745
   47MOL   H19512247   0.191   0.693   2.165  0.1242  0.4564  0.9710
   47MOL   H19612248   0.348   0.700   2.090 -1.2920 -0.8934 -2.5763
   47MOL   C19712249   0.342   0.592   2.277 -0.3447  0.1458 -0.0592
   47MOL   C19812250   0.322   0.695   2.385 -0.0853  0.1068 -0.2525
   47MOL   C19912251   0.223   0.709   2.476  0.2140 -0.2709 -0.2316
   47MOL   C20012252   0.100   0.626   2.474  0.5354 -0.1855 -0.4611
   47MOL   C20112253   0.237   0.822   2.581  0.8941  0.0288  0.2430
   47MOL   H20212254   0.449   0.583   2.262 -0.4494 -1.9594  0.3691
   47MOL   H20312255   0.312   0.493   2.312  1.0296  0.0911  0.9813
   47MOL   H20412256   0.395   0.775   2.391 -0.8195  1.0597 -3.2711
   47MOL   H20512257   0.054   0.604   2.571 -0.7226 -0.9113 -1.2119
   47MOL   H20612258   0.110   0.545   2.402 -3.4382 -0.9298 -0.3054
   47MOL   H20712259   0.021   0.684   2.426 -1.5090 -1.9198  0.6733
   47MOL   H20812260   0.334   0.872   2.588 -0.5286  2.6059  2.5527
   47MOL   H20912261   0.220   0.773   2.677  0.9076 -1.6485 -0.5898
   47MOL   C21012262   0.131   0.932   2.554 -0.0516  1.2434 -0.7506
   47MOL   C21112263   0.175   1.025   2.442  0.2136 -0.1591  0.4394
   47MOL   C21212264   0.089   1.069   2.345 -0.3384 -0.8625  0.0631
   47MOL   C21312265   7.817   1.057   2.351 -0.3890 -1.1076  0.4170
   47MOL   C21412266   0.139   1.122   2.218  0.1759 -0.2360  0.0499
   47MOL   H21512267   0.125   0.998   2.641 -1.3879 -0.1183  0.2311
   47MOL   H21612268   0.028   0.895   2.545 -0.3156  1.4820  1.1164
   47MOL   H21712269   0.282   1.031   2.433  0.3777 -0.9286  1.8499
   47MOL   H21812270   7.789   0.952   2.348 -0.5652 -1.0268 -1.0052
   47MOL   H21912271   7.751   1.108   2.280 -0.0886  0.0424  0.9458
   47MOL   H22012272   7.783   1.094   2.448  0.5782 -1.6231  0.9556
   47MOL   H22112273   0.111   1.051   2.141  3.6293 -1.9161  0.2287
   47MOL   H22212274   0.247   1.134   2.231  0.0407  1.6089 -0.5123
   47MOL   C22312275   0.087   1.256   2.174  0.2222 -0.8362 -0.0861
   47MOL   C22412276   0.162   1.322   2.066 -0.0677 -0.1225 -0.0070
   47MOL   C22512277   0.133   1.445   2.024  0.3716 -0.4687 -0.1260
   47MOL   C22612278   0.017   1.536   2.068 -0.7108 -0.0596  0.0193
   47MOL   C22712279   0.221   1.514   1.923  0.1082  0.9225  0.5082
   47MOL   H22812280   0.094   1.322   2.260 -0.8653 -0.8994  0.0519
   47MOL   H22912281   7.866   1.247   2.142 -1.1706  1.0787  3.5912
   47MOL   H23012282   0.245   1.272   2.019 -1.5163 -3.1108  0.4806
   47MOL   H23112283   7.847   1.569   1.978 -1.0163 -2.5904 -0.7658
   47MOL   H23212284   0.045   1.622   2.128  1.9956 -1.1095  0.3411
   47MOL   H23312285   7.817   1.479   2.111 -0.6340 -1.2456 -1.3737
   47MOL   H23412286   0.154   1.527   1.838  2.2516 -0.3996 -1.4454
   47MOL   H23512287   0.299   1.444   1.896 -1.4544 -0.9315  0.7099
   47MOL   C23612288   0.276   1.648   1.968 -0.9153 -0.6503  0.3205
   47MOL   C23712289   0.304   1.741   1.847 -0.2193 -0.4099 -0.0684
   47MOL   C23812290   0.420   1.801   1.814  0.1792 -0.1123  0.8766
   47MOL   C23912291   0.557   1.795   1.891  0.5930  0.2093 -0.2129
   47MOL   C24012292   0.421   1.892   1.690  0.3703 -0.1355  0.1635
   47MOL   H24112293   0.365   1.629   2.028 -0.2981  0.2123 -0.3118
   47MOL   H24212294   0.207   1.709   2.026 -1.8832 -2.2200  0.8707
   47MOL   H24312295   0.222   1.763   1.780  0.9190  1.8182 -0.7904
   47MOL   H24412296   0.631   1.787   1.811  0.5013  0.6802 -0.3492
   47MOL   H24512297   0.562   1.711   1.961 -0.6345  0.2249 -0.0923
   47MOL   H24612298   0.570   1.879   1.960  1.0046 -0.0605  0.0410
   47MOL   H24712299   0.326   1.929   1.652  1.2465 -1.0255 -3.0873
   47MOL   H24812300   0.470   1.828   1.616 -1.3359 -0.5808 -0.6134
   47MOL   C24912301   0.512   2.021   1.709 -0.0775 -0.4392  0.8921
   47MOL   C25012302   0.465   2.125   1.813 -0.9407 -0.0912  0.4593
   47MOL   C25112303   0.542   2.178   1.907  0.5837 -0.6187  0.2253
   47MOL   C25212304   0.693   2.151   1.919  0.1996 -0.6765 -0.2262
   47MOL   C25312305   0.486   2.270   2.018  0.1571 -0.0052  0.9209
   47MOL   H25412306   0.521   2.067   1.610  1.0846 -2.4798  0.0130
   47MOL   H25512307   0.616   1.999   1.733 -0.4252 -1.1648  1.7255
   47MOL   H25612308   0.357   2.139   1.814 -1.4274 -3.3262 -1.1042
   47MOL   H25712309   0.736   2.232   1.979 -0.0328  1.5004 -2.8741
   47MOL   H25812310   0.746   2.160   1.825  0.0498  0.7715 -0.1880
   47MOL   H25912311   0.717   2.062   1.977  0.7296 -0.2365  0.2335
   47MOL   H26012312   0.547   2.268   2.108 -0.0790 -0.3014  1.0753
   47MOL   H26112313   0.377   2.260   2.025 -0.0288 -0.0311 -1.6662
   47MOL   H26212314   0.514   2.365   1.973 -1.3786 -0.0206 -0.0916
   48MOL     C112315   4.641   4.135   1.834 -0.1649  0.5430  0.1693
   48MOL     C212316   4.702   4.121   1.967  0.3851 -0.4643 -0.6852
   48MOL     C312317   4.826   4.165   1.996 -0.0023 -0.7322 -0.0251
   48MOL     C412318   4.927   4.197   1.883 -0.4013  0.4502 -0.0979
   48MOL     C512319   4.875   4.164   2.145 -1.2588 -0.4471 -0.0030
   48MOL     H612320   4.640   4.037   1.787  0.4839  1.3932 -1.6521
   48MOL     H712321   4.535   4.160   1.832 -0.3106  0.0902  1.3197
   48MOL     H812322   4.631   4.086   2.041  2.0114 -0.2002  1.0692
   48MOL     H912323   5.019   4.149   1.916 -0.0518  1.5087  0.4964
   48MOL    H1012324   4.956   4.299   1.859 -1.4513  0.3862 -1.6599
   48MOL    H1112325   4.900   4.155   1.786  0.8762  1.8568 -1.0781
   48MOL    H1212326   4.941   4.079   2.163  0.6475  1.2299  1.1643
   48MOL    H1312327   4.786   4.160   2.208 -0.9532  2.5040  0.6742
   48MOL    H1412328   4.686   4.205   1.764 -1.1101 -0.2169 -1.2001
   48MOL    C1512329   4.948   4.297   2.178  0.0413  0.6471  0.5000
   48MOL    C1612330   4.990   4.298   2.326  0.1100  1.3599 -0.4287
   48MOL    C1712331   4.917   4.358   2.426 -0.0213  0.4891  0.4666
   48MOL    C1812332   4.790   4.440   2.418  0.0250  0.4548 -0.1406
   48MOL    C1912333   4.964   4.328   2.568  0.3241  0.6926 -0.4643
   48MOL    H2012334   4.883   4.381   2.156  0.4909  1.0755  0.8202
   48MOL    H2112335   5.042   4.302   2.123  0.3555 -1.7002  0.7585
   48MOL    H2212336   5.078   4.242   2.353 -2.7176 -3.7194 -1.1204
   48MOL    H2312337   4.793   4.535   2.365  0.1694 -0.7513 -2.3469
   48MOL    H2412338   4.745   4.445   2.517  1.2297 -0.7381  0.4927
   48MOL    H2512339   4.712   4.393   2.358 -1.9400  1.8275  1.2805
   48MOL    H2612340   5.042   4.253   2.563 -1.1991 -1.3187  3.4768
   48MOL    H2712341   4.884   4.280   2.625  1.6349 -1.6040 -0.4999
   48MOL    C2812342   5.012   4.454   2.644 -0.3473 -0.3048  0.6617
   48MOL    C2912343   5.014   4.439   2.791  0.5993 -0.1361 -0.9818
   48MOL    C3012344   5.062   4.534   2.870 -1.1647  0.1926  0.0208
   48MOL    C3112345   5.116   4.669   2.826 -0.6100 -0.2362 -0.1150
   48MOL    C3212346   5.074   4.515   3.025  0.2192 -0.0613  0.0513
   48MOL    H3312347   4.936   4.531   2.635 -1.6538 -1.8642 -2.6446
   48MOL    H3412348   5.110   4.484   2.607  0.1994 -2.5717  0.1780
   48MOL    H3512349   4.975   4.347   2.832 -0.9436  1.5366  1.3691
   48MOL    H3612350   5.096   4.748   2.898 -0.6023 -2.1768  2.0751
   48MOL    H3712351   5.092   4.693   2.722 -1.4572 -0.5675 -0.0015
   48MOL    H3812352   5.225   4.672   2.835 -0.6038  1.8085 -0.6045
   48MOL    H3912353   5.025   4.420   3.048  0.2444 -0.9902 -3.5205
   48MOL    H4012354   5.016   4.595   3.071  1.2040  2.7688 -3.4756
   48MOL    C4112355   5.220   4.519   3.063 -0.1843  0.0163  0.6550
   48MOL    C4212356   5.294   4.401   3.007  0.3800 -0.2436  0.6531
   48MOL    C4312357   5.369   4.318   3.081  0.2912  0.1651 -0.2704
   48MOL    C4412358   5.388   4.349   3.230 -0.0366  0.0988  0.0144
   48MOL    C4512359   5.418   4.184   3.037 -0.1489 -0.0225  0.0903
   48MOL    H4612360   5.209   4.507   3.171 -2.5051 -0.7838  0.3516
   48MOL    H4712361   5.263   4.617   3.042 -0.8156  0.5596  1.8367
   48MOL    H4812362   5.288   4.384   2.900  0.7324  0.2991  0.5466
   48MOL    H4912363   5.478   4.299   3.264  0.4964  2.0527  1.5650
   48MOL    H5012364   5.320   4.299   3.299  0.8205 -2.5060 -0.9641
   48MOL    H5112365   5.392   4.454   3.259  0.7376 -0.1805  0.9255
   48MOL    H5212366   5.518   4.169   3.078 -0.3856 -1.1623  0.2564
   48MOL    H5312367   5.424   4.179   2.929 -0.7274  1.0953 -0.0031
   48MOL    C5412368   5.332   4.061   3.068  0.2701  0.1297 -0.3881
   48MOL    C5512369   5.187   4.065   3.019 -0.9499  0.4995  0.8748
   48MOL    C5612370   5.116   3.961   2.970  0.1778 -0.1613 -0.2182
   48MOL    C5712371   5.174   3.816   2.949  0.4278 -0.0908 -0.3037
   48MOL    C5812372   4.970   3.990   2.935  0.1983 -0.2371  0.4896
   48MOL    H5912373   5.323   4.052   3.176 -0.5940  1.4253 -0.3343
   48MOL    H6012374   5.379   3.972   3.028  0.4122  0.6997 -1.5012
   48MOL    H6112375   5.140   4.162   3.011 -0.3316  1.0052  3.0279
   48MOL    H6212376   5.278   3.811   2.917  0.9462 -0.8785  1.4312
   48MOL    H6312377   5.102   3.770   2.882 -1.8138  2.5761  0.1741
   48MOL    H6412378   5.179   3.756   3.040  2.1554 -1.4342 -1.2428
   48MOL    H6512379   4.941   3.946   2.840 -0.3846  2.6757 -0.7473
   48MOL    H6612380   4.947   4.096   2.926  0.2410 -0.3378 -0.8050
   48MOL    C6712381   4.872   3.933   3.037  0.3069  0.2777 -0.4567
   48MOL    C6812382   4.740   3.990   2.995  0.6726 -0.4222 -0.0311
   48MOL    C6912383   4.635   3.933   2.931 -0.0655 -0.0310  0.7157
   48MOL    C7012384   4.631   3.794   2.881 -0.1482 -0.3614 -0.5073
   48MOL    C7112385   4.513   4.021   2.898  0.6513  0.2973  0.9836
   48MOL    H7212386   4.904   3.946   3.140  0.2499 -2.6077 -0.0236
   48MOL    H7312387   4.877   3.824   3.037  1.8490  0.3465  0.1098
   48MOL    H7412388   4.732   4.096   3.011  0.6257  0.2260 -3.8398
   48MOL    H7512389   4.529   3.754   2.892 -0.1714 -0.4790 -1.1580
   48MOL    H7612390   4.692   3.720   2.933  2.2298  1.0110 -1.2719
   48MOL    H7712391   4.651   3.783   2.775  1.0029  2.8870 -0.6529
   48MOL    H7812392   4.538   4.122   2.931  0.5208  0.1119  1.6564
   48MOL    H7912393   4.424   3.980   2.946 -0.0271  0.3268 -0.2288
   48MOL    C8012394   4.486   4.022   2.743 -0.2615 -0.3359  0.0284
   48MOL    C8112395   4.344   4.084   2.715 -0.0927 -0.4042 -0.1052
   48MOL    C8212396   4.320   4.143   2.599 -0.3483  0.3579  0.6788
   48MOL    C8312397   4.427   4.156   2.494 -0.0293  0.5408 -0.1310
   48MOL    C8412398   4.184   4.211   2.574 -0.0719  0.0369 -0.5919
   48MOL    H8512399   4.481   3.921   2.701  1.5634  0.2710 -1.7749
   48MOL    H8612400   4.565   4.081   2.696 -0.9974  0.6404  0.0143
   48MOL    H8712401   4.275   4.072   2.797  0.7145  1.1350  0.8006
   48MOL    H8812402   4.488   4.066   2.477 -0.7392 -0.1398  0.8304
   48MOL    H8912403   4.491   4.242   2.513 -1.3393  1.7423 -1.0780
   48MOL    H9012404   4.378   4.163   2.398  1.5320  2.0824 -0.8365
   48MOL    H9112405   4.139   4.184   2.479 -0.5807  0.4783 -0.4793
   48MOL    H9212406   4.205   4.316   2.553 -0.2799 -0.4693 -3.6462
   48MOL    C9312407   4.075   4.199   2.690 -0.2409  0.3470 -0.2020
   48MOL    C9412408   3.955   4.294   2.663 -0.6882  0.3214 -0.3170
   48MOL    C9512409   3.824   4.255   2.662 -0.3962 -0.3154 -0.5142
   48MOL    C9612410   3.779   4.130   2.731  0.1773 -0.1376  0.4500
   48MOL    C9712411   3.719   4.342   2.612  0.1114  0.4556 -0.1745
   48MOL    H9812412   4.111   4.242   2.784  1.5193 -0.0802 -0.6535
   48MOL    H9912413   4.045   4.095   2.700 -1.0543  0.6229  0.3164
   48MOL   H10012414   3.981   4.385   2.610 -0.6021  1.0397  0.9334
   48MOL   H10112415   3.838   4.088   2.813  2.9378 -1.0371 -1.9250
   48MOL   H10212416   3.785   4.057   2.650 -0.3021 -0.5944  0.8239
   48MOL   H10312417   3.675   4.141   2.760  0.7263  1.2069  2.0091
   48MOL   H10412418   3.766   4.437   2.587 -0.5465  1.1568  1.1918
   48MOL   H10512419   3.632   4.354   2.677  0.8978 -1.6271  1.3397
   48MOL   C10612420   3.672   4.307   2.473 -0.2660  0.1798  0.0683
   48MOL   C10712421   3.598   4.424   2.406  0.5622  0.1715 -0.6529
   48MOL   C10812422   3.519   4.412   2.303  0.0533 -0.1873  0.7152
   48MOL   C10912423   3.467   4.286   2.243  0.0295  0.0113  0.6137
   48MOL   C11012424   3.478   4.532   2.223 -0.4969 -0.4857  0.0539
   48MOL   H11112425   3.603   4.226   2.497  0.8821  0.2510  3.9867
   48MOL   H11212426   3.758   4.282   2.411  0.9946  0.7072  1.5552
   48MOL   H11312427   3.626   4.520   2.445  0.2044 -0.3543  0.9250
   48MOL   H11412428   3.500   4.200   2.303  1.8167  1.0176  1.1143
   48MOL   H11512429   3.501   4.273   2.141 -1.1204 -0.6471  0.2996
   48MOL   H11612430   3.358   4.289   2.241  0.0478 -0.0309 -0.2740
   48MOL   H11712431   3.497   4.507   2.118  2.9681 -2.4027  1.0619
   48MOL   H11812432   3.547   4.609   2.257 -0.6352 -0.1470 -0.4294
   48MOL   C11912433   3.338   4.589   2.245  0.2123  0.1964 -0.5003
   48MOL   C12012434   3.300   4.688   2.133  0.1574 -0.0268  1.2608
   48MOL   C12112435   3.178   4.727   2.102  0.2078 -0.5047  0.0114
   48MOL   C12212436   3.053   4.679   2.175 -0.9071  0.0456 -0.9284
   48MOL   C12312437   3.158   4.808   1.978  0.1000  0.0921  0.5874
   48MOL   H12412438   3.349   4.653   2.333  1.1144 -0.8976  0.2057
   48MOL   H12512439   3.266   4.509   2.261  1.6883 -1.0034  0.2749
   48MOL   H12612440   3.387   4.727   2.083 -0.1265  0.1903  0.9377
   48MOL   H12712441   3.070   4.648   2.278  1.9819  1.9322 -0.7624
   48MOL   H12812442   3.005   4.594   2.128 -3.7095 -0.0509  1.9474
   48MOL   H12912443   2.986   4.766   2.177 -0.0280  0.7565 -1.7941
   48MOL   H13012444   3.071   4.774   1.922  0.2139  0.4985  0.1623
   48MOL   H13112445   3.245   4.788   1.916 -0.8544 -2.8523  0.1568
   48MOL   C13212446   3.155   4.958   2.012  1.0962 -0.2189  0.2836
   48MOL   C13312447   3.217   5.052   1.910  0.3792 -0.8440 -0.5520
   48MOL   C13412448   3.192   5.182   1.906 -0.4078  0.8626  0.2124
   48MOL   C13512449   3.107   5.255   2.007  0.5554  0.1935  0.1593
   48MOL   C13612450   3.249   5.275   1.798  0.0069 -0.2953  0.3043
   48MOL   H13712451   3.200   4.984   2.108  0.4075 -0.3376  0.6338
   48MOL   H13812452   3.048   4.976   2.021  1.3241  1.3334  0.1073
   48MOL   H13912453   3.286   5.017   1.835 -1.7971 -0.9892 -2.5370
   48MOL   H14012454   3.164   5.324   2.069  1.2612 -0.5911  0.4019
   48MOL   H14112455   3.050   5.192   2.075 -0.5266  0.3443 -0.5884
   48MOL   H14212456   3.042   5.315   1.943 -2.2469 -1.3182  1.4850
   48MOL   H14312457   3.164   5.324   1.750  0.4431 -0.6177 -0.8117
   48MOL   H14412458   3.299   5.209   1.727  0.4200 -1.8285  1.9848
   48MOL   C14512459   3.348   5.381   1.859 -0.4088  0.6888  0.5758
   48MOL   C14612460   3.405   5.461   1.741  0.4753  0.1069 -0.4010
   48MOL   C14712461   3.519   5.535   1.731  0.4346 -0.0942 -0.3103
   48MOL   C14812462   3.617   5.537   1.842  0.0130 -0.2913 -0.4185
   48MOL   C14912463   3.545   5.629   1.605  0.5444  0.3836  0.2837
   48MOL   H15012464   3.421   5.317   1.909  0.8206  0.9075 -0.9278
   48MOL   H15112465   3.297   5.442   1.934 -0.1236  0.8547  0.6362
   48MOL   H15212466   3.327   5.476   1.669 -0.9633  0.4917  1.1954
   48MOL   H15312467   3.706   5.478   1.820 -0.3658 -1.3237  0.7913
   48MOL   H15412468   3.574   5.512   1.938  1.5379 -0.8332  0.1282
   48MOL   H15512469   3.650   5.639   1.863 -0.1744 -0.3963  0.3690
   48MOL   H15612470   3.543   5.730   1.646 -1.1739 -0.2809  1.9010
   48MOL   H15712471   3.459   5.629   1.538  1.7169 -0.8092 -1.2688
   48MOL   C15812472   3.673   5.596   1.519  0.5851 -0.8410 -0.5143
   48MOL   C15912473   3.701   5.678   1.398 -0.0973 -0.3279  0.4505
   48MOL   C16012474   3.768   5.796   1.382  0.1647  0.6245  0.1663
   48MOL   C16112475   3.844   5.860   1.500  0.4942 -0.3407  0.2108
   48MOL   C16212476   3.795   5.861   1.248 -0.6684 -0.1028  0.3425
   48MOL   H16312477   3.672   5.496   1.478 -1.0332  0.0237 -2.6804
   48MOL   H16412478   3.763   5.603   1.580 -1.2238  1.4174  1.9997
   48MOL   H16512479   3.640   5.637   1.320 -1.0579  0.5350  0.7409
   48MOL   H16612480   3.952   5.868   1.490  0.5081 -1.2959 -0.5045
   48MOL   H16712481   3.809   5.820   1.595 -1.1884 -1.0379 -0.6687
   48MOL   H16812482   3.812   5.964   1.506 -0.7830 -0.6258 -1.2894
   48MOL   H16912483   3.901   5.844   1.229 -0.5817 -0.8004  1.4307
   48MOL   H17012484   3.802   5.969   1.259  0.1186 -0.2337  1.1586
   48MOL   C17112485   3.722   5.805   1.121 -0.3051 -0.3933 -0.1890
   48MOL   C17212486   3.732   5.902   1.013 -0.6010 -0.6687  0.3293
   48MOL   C17312487   3.713   5.882   0.883  0.7762  0.0940  0.2709
   48MOL   C17412488   3.669   5.743   0.825 -0.4802 -0.5426 -0.0574
   48MOL   C17512489   3.734   5.987   0.771 -0.0325 -0.6844 -0.1847
   48MOL   H17612490   3.615   5.784   1.135 -0.6500  0.5948 -1.2831
   48MOL   H17712491   3.775   5.715   1.089 -0.0832 -0.5599  0.6297
   48MOL   H17812492   3.750   6.001   1.053  0.3296 -0.1050 -1.4724
   48MOL   H17912493   3.760   5.689   0.799 -1.3611 -2.3465  0.5548
   48MOL   H18012494   3.600   5.743   0.741 -1.3551 -0.4520  0.6613
   48MOL   H18112495   3.631   5.676   0.902  0.4198  0.0189  0.8788
   48MOL   H18212496   3.642   5.982   0.713  0.4845  1.0238 -1.2150
   48MOL   H18312497   3.813   5.943   0.709  0.4383  1.7498 -1.3894
   48MOL   C18412498   3.766   6.133   0.807 -0.0068  0.2152  0.1868
   48MOL   C18512499   3.797   6.224   0.689 -0.1047  0.3852 -0.0583
   48MOL   C18612500   3.812   6.359   0.686 -0.0921 -0.0168 -0.6436
   48MOL   C18712501   3.788   6.450   0.803  0.2393 -0.0700  0.0237
   48MOL   C18812502   3.853   6.420   0.552  0.0657 -0.9528 -0.6334
   48MOL   H18912503   3.857   6.125   0.868 -0.7896 -0.0280  1.3386
   48MOL   H19012504   3.686   6.180   0.864  1.2265  2.1770  0.3726
   48MOL   H19112505   3.811   6.168   0.598 -0.4486 -1.2529  0.8788
   48MOL   H19212506   3.681   6.449   0.823  0.3047 -1.0037  0.3866
   48MOL   H19312507   3.821   6.553   0.797  0.6811 -0.1615  0.7988
   48MOL   H19412508   3.850   6.413   0.885 -0.9958 -0.5224  0.7683
   48MOL   H19512509   3.780   6.500   0.538 -1.0198 -1.6205  1.1338
   48MOL   H19612510   3.835   6.357   0.465  1.8835 -0.1129 -1.6443
   48MOL   C19712511   4.000   6.466   0.549  0.3855  0.2648 -0.3493
   48MOL   C19812512   4.048   6.536   0.422  0.8483 -0.2525  0.1704
   48MOL   C19912513   4.064   6.666   0.409 -0.3077  0.0441  0.1245
   48MOL   C20012514   4.019   6.767   0.519  0.3735  0.1546 -0.2237
   48MOL   C20112515   4.133   6.722   0.287 -0.3394 -0.2215 -0.4107
   48MOL   H20212516   4.044   6.369   0.569 -0.7720 -0.3253 -0.5802
   48MOL   H20312517   4.037   6.514   0.639 -1.6791  0.6655  0.3114
   48MOL   H20412518   4.084   6.471   0.344  1.7272 -0.1964  0.5205
   48MOL   H20512519   3.947   6.836   0.476 -0.5955 -0.0121  1.0747
   48MOL   H20612520   4.102   6.832   0.546 -0.9767  0.9742  2.1083
   48MOL   H20712521   3.972   6.714   0.602  0.9720 -0.6488 -0.3891
   48MOL   H20812522   4.184   6.646   0.226  0.0333  0.8792 -1.4930
   48MOL   H20912523   4.218   6.773   0.332  0.5234 -2.6263  0.7961
   48MOL   C21012524   4.039   6.825   0.208  0.1030  0.7460  1.2603
   48MOL   C21112525   4.103   6.887   0.090 -0.3538 -0.0801 -0.5809
   48MOL   C21212526   4.050   6.886   7.848 -0.0054 -0.2052 -0.0401
   48MOL   C21312527   3.921   6.812   7.807  0.2743 -0.0139 -0.8386
   48MOL   C21412528   4.121   6.956   7.730  0.6322  0.4383  0.5336
   48MOL   H21512529   4.001   6.904   0.272 -0.3841  1.7899 -0.2872
   48MOL   H21612530   3.946   6.780   0.175  0.1543  2.5203 -1.4611
   48MOL   H21712531   4.196   6.940   0.104  0.8809 -2.3292 -0.0998
   48MOL   H21812532   3.899   6.722   7.865  2.8419 -0.6847 -0.8532
   48MOL   H21912533   3.945   6.781   7.705  2.2043  1.0217 -0.7097
   48MOL   H22012534   3.837   6.882   7.809 -0.7199 -1.1731  3.0351
   48MOL   H22112535   4.138   6.888   7.647 -1.6403 -1.3273  1.4412
   48MOL   H22212536   4.218   6.998   7.756  1.5791 -1.2555 -0.2417
   48MOL   C22312537   4.034   7.079   7.688 -0.1279  0.3507  0.1757
   48MOL   C22412538   4.094   7.157   7.567  0.1996 -0.5559 -0.6600
   48MOL   C22512539   4.147   7.282   7.571 -0.4358  0.2062  0.8111
   48MOL   C22612540   4.164   7.365   7.702  0.8024 -0.4012 -0.6210
   48MOL   C22712541   4.193   7.345   7.437  0.1117 -0.1470  0.4604
   48MOL   H22812542   4.034   7.157   7.765 -0.6123  1.5907 -1.0685
   48MOL   H22912543   3.931   7.057   7.664 -0.1439  0.0844  0.4849
   48MOL   H23012544   4.085   7.108   7.472 -0.7692 -2.6643  0.4798
   48MOL   H23112545   4.214   7.302   7.774  1.2209  0.7365  0.0994
   48MOL   H23212546   4.064   7.393   7.735  1.6380  1.6714  0.2994
   48MOL   H23312547   4.217   7.460   7.694 -0.3066  0.2900  0.0816
   48MOL   H23412548   4.125   7.424   7.403  2.1764  0.5081 -2.3537
   48MOL   H23512549   4.197   7.273   7.355  1.1120  0.1135  0.2767
   48MOL   C23612550   4.328   7.423   7.448  1.0799  0.2169 -0.2031
   48MOL   C23712551   4.354   7.509   7.322 -0.1021  0.3730 -0.6492
   48MOL   C23812552   4.326   7.637   7.284 -0.0193  0.4630 -0.0262
   48MOL   C23912553   4.230   7.718   7.371  0.0636  0.2707 -0.7172
   48MOL   C24012554   4.350   7.704   7.148 -0.3205 -0.6644 -0.2969
   48MOL   H24112555   4.402   7.344   7.445 -1.7312 -2.4783 -1.9387
   48MOL   H24212556   4.335   7.493   7.532  1.1387  0.8845 -0.7607
   48MOL   H24312557   4.425   7.463   7.255 -1.1457 -1.5839 -0.4818
   48MOL   H24412558   4.234   7.826   7.360  1.2884  0.1526 -1.4786
   48MOL   H24512559   4.248   7.683   7.473 -2.1820 -2.8935 -1.3156
   48MOL   H24612560   4.128   7.689   7.344 -1.1395  3.4705  0.1730
   48MOL   H24712561   4.282   7.787   7.133 -0.7493 -0.9743 -0.0995
   48MOL   H24812562   4.343   7.625   7.073 -0.0383  0.8296 -1.9191
   48MOL   C24912563   4.498   7.742   7.139  0.1890 -0.3290 -0.0599
   48MOL   C25012564   4.545   7.777   6.995  0.1643  0.1383 -0.0960
   48MOL   C25112565   4.628   7.880   6.956  0.5528  0.2724  0.9081
   48MOL   C25212566   4.674   0.109   7.045  0.6534 -0.2191 -0.0470
   48MOL   C25312567   4.667   0.010   6.802  0.5205 -0.8876  0.1436
   48MOL   H25412568   4.567   7.676   7.192  3.1035  4.4983  2.5558
   48MOL   H25512569   4.505   7.831   7.202 -1.0009 -0.1629 -0.1552
   48MOL   H25612570   4.524   7.704   6.917  0.6522 -1.8330  1.5773
   48MOL   H25712571   4.779   0.132   7.023  0.2889 -0.9180 -2.7355
   48MOL   H25812572   4.665   0.081   7.150 -2.4496  0.5546 -0.0725
   48MOL   H25912573   4.625   0.205   7.029 -1.1875 -0.8957  1.3505
   48MOL   H26012574   4.766   0.055   6.792  0.1956  0.3663  2.1842
   48MOL   H26112575   4.598   0.068   6.741  2.6864 -0.0430 -1.5520
   48MOL   H26212576   4.668   7.794   6.756 -2.0124 -0.5545 -0.7108
   49MOL     C112577   7.008   4.818   7.390  0.4438  0.6215 -0.0255
   49MOL     C212578   6.865   4.815   7.399  0.2167  0.2731 -0.1566
   49MOL     C312579   6.792   4.872   7.498 -0.0918 -0.5161  0.0987
   49MOL     C412580   6.851   4.944   7.620  0.0626 -0.0173 -0.4238
   49MOL     C512581   6.642   4.863   7.501  0.3078 -0.8135  0.1536
   49MOL     H612582   7.068   4.894   7.440  2.8531  0.3432 -2.3884
   49MOL     H712583   7.056   4.722   7.411 -0.9069 -0.0524  0.0896
   49MOL     H812584   6.816   4.766   7.316 -0.3164 -1.4541  1.1516
   49MOL     H912585   6.915   5.025   7.584 -0.0783  1.0725  1.7300
   49MOL    H1012586   6.893   4.867   7.684 -0.2083  0.0867 -0.1204
   49MOL    H1112587   6.773   4.993   7.678 -0.3006 -2.0974  0.8954
   49MOL    H1212588   6.602   4.937   7.571  0.5282 -0.1136 -0.4461
   49MOL    H1312589   6.607   4.770   7.543  0.6424 -1.0426 -0.0717
   49MOL    H1412590   7.016   4.827   7.282  0.3424 -1.2046 -0.1954
   49MOL    C1512591   6.567   4.887   7.369 -1.2449  0.2242 -0.6369
   49MOL    C1612592   6.426   4.925   7.393 -0.6900  0.0192  0.1230
   49MOL    C1712593   6.345   4.995   7.313 -0.0452  0.2944 -0.3220
   49MOL    C1812594   6.390   5.074   7.191 -0.1005 -0.7082  0.7514
   49MOL    C1912595   6.205   5.040   7.355  0.9172  0.4110 -0.1710
   49MOL    H2012596   6.569   4.791   7.317 -2.2090 -0.2507  0.1938
   49MOL    H2112597   6.609   4.965   7.305 -0.5472 -0.9340 -1.6132
   49MOL    H2212598   6.378   4.882   7.480  2.6091 -3.5129  0.2947
   49MOL    H2312599   6.484   5.042   7.147 -0.5317 -0.7691 -0.1281
   49MOL    H2412600   6.418   5.177   7.216  0.5288 -0.9609  1.0912
   49MOL    H2512601   6.314   5.087   7.114  0.7954  0.8141  0.1091
   49MOL    H2612602   6.208   5.143   7.388 -0.9317  1.2965 -2.6384
   49MOL    H2712603   6.176   4.981   7.442  2.8611  0.0256  0.2517
   49MOL    C2812604   6.090   5.004   7.251  0.7568 -0.5603  0.4199
   49MOL    C2912605   5.952   5.038   7.313  1.1950 -0.3290  0.6583
   49MOL    C3012606   5.872   5.132   7.259 -0.1424 -0.7204  0.3536
   49MOL    C3112607   5.912   5.220   7.142 -0.3169 -0.2385  0.0851
   49MOL    C3212608   5.728   5.151   7.316  0.4620 -0.1164  0.0892
   49MOL    H3312609   6.096   4.896   7.238 -2.8357 -0.6930 -0.7616
   49MOL    H3412610   6.108   5.055   7.156 -1.0998 -0.3289  0.1693
   49MOL    H3512611   5.916   4.982   7.398 -0.7579  0.2543  0.2502
   49MOL    H3612612   5.837   5.298   7.127 -2.1107 -1.8024  0.6015
   49MOL    H3712613   5.928   5.165   7.050  2.9365  0.5994  0.1101
   49MOL    H3812614   6.007   5.270   7.160 -0.9970  1.9823 -2.2211
   49MOL    H3912615   5.719   5.253   7.353  1.9067 -0.1849  0.6683
   49MOL    H4012616   5.710   5.083   7.398  0.2701 -2.4393 -1.8162
   49MOL    C4112617   5.618   5.132   7.205  0.5930  0.3465  0.2119
   49MOL    C4212618   5.598   4.998   7.145 -0.0099  0.6703  0.1545
   49MOL    C4312619   5.497   4.911   7.158  0.5104 -0.2013  0.3758
   49MOL    C4412620   5.379   4.945   7.253  0.2719 -1.0487 -0.7013
   49MOL    C4512621   5.504   4.766   7.124 -0.6109 -0.1397 -0.4426
   49MOL    H4612622   5.642   5.200   7.123 -2.4896  1.4373  0.1250
   49MOL    H4712623   5.523   5.171   7.242  0.1028  0.3380 -0.9995
   49MOL    H4812624   5.678   4.951   7.090  0.4322  1.3700  0.1932
   49MOL    H4912625   5.417   4.936   7.355 -1.6322  0.8675  0.2219
   49MOL    H5012626   5.291   4.886   7.225  0.5544 -2.2463  0.8329
   49MOL    H5112627   5.350   5.044   7.219  0.7900 -1.0839 -1.2469
   49MOL    H5212628   5.415   4.729   7.072  0.0793 -2.0297 -0.3032
   49MOL    H5312629   5.504   4.723   7.224 -1.6023  2.3510  0.6710
   49MOL    C5412630   5.625   4.715   7.043  0.1386 -0.1649 -0.1559
   49MOL    C5512631   5.619   4.568   7.028  0.1007  0.3681  0.2322
   49MOL    C5612632   5.628   4.503   6.908 -0.3482  0.7722 -0.3314
   49MOL    C5712633   5.674   4.566   6.774  0.3681  0.6990  0.6572
   49MOL    C5812634   5.614   4.354   6.902 -0.0343 -0.2868 -0.3319
   49MOL    H5912635   5.725   4.739   7.080 -0.2095 -1.4989  1.7540
   49MOL    H6012636   5.618   4.765   6.947 -0.0429  2.2681  1.0871
   49MOL    H6112637   5.611   4.519   7.124  1.6414 -0.8383 -0.2361
   49MOL    H6212638   5.662   4.674   6.780 -1.9716  0.5189 -0.2684
   49MOL    H6312639   5.604   4.530   6.698  1.3286 -1.7634  0.9048
   49MOL    H6412640   5.774   4.526   6.760  0.1466 -1.2839  4.0152
   49MOL    H6512641   5.537   4.333   6.828 -0.4392 -1.1256  0.3086
   49MOL    H6612642   5.584   4.310   6.997  0.8531 -0.3523 -0.0698
   49MOL    C6712643   5.748   4.279   6.886 -0.9487  0.3914  0.1372
   49MOL    C6812644   5.869   4.322   6.974  0.4054 -0.0113 -0.1580
   49MOL    C6912645   5.985   4.254   6.994 -0.7277  0.0938 -0.5545
   49MOL    C7012646   6.014   4.129   6.911  0.1475  0.3882  0.2859
   49MOL    C7112647   6.096   4.292   7.098 -0.1175 -0.5369 -0.6804
   49MOL    H7212648   5.783   4.266   6.784  2.0898 -1.7122  1.3881
   49MOL    H7312649   5.732   4.175   6.916 -0.7490  0.9951  2.3751
   49MOL    H7412650   5.843   4.411   7.029  0.0862 -0.0462 -0.2497
   49MOL    H7512651   6.091   4.159   6.841 -1.2216 -0.3847 -1.5857
   49MOL    H7612652   5.929   4.086   6.858  0.9063  0.8101 -1.2730
   49MOL    H7712653   6.046   4.047   6.976  3.7371  2.1483  0.8820
   49MOL    H7812654   6.123   4.195   7.139 -1.3746 -0.8360 -0.5346
   49MOL    H7912655   6.050   4.351   7.177  0.0762  1.3376 -1.9274
   49MOL    C8012656   6.205   4.373   7.039 -0.0708  0.7065 -0.0780
   49MOL    C8112657   6.311   4.400   7.143  0.1708 -0.4810  0.0482
   49MOL    C8212658   6.313   4.495   7.235  0.1949  0.4548 -0.7934
   49MOL    C8312659   6.204   4.598   7.237 -0.7063  0.2117 -0.3256
   49MOL    C8412660   6.422   4.512   7.338  0.4522 -0.5667  0.6717
   49MOL    H8512661   6.171   4.473   7.014  2.4273  1.6324  0.0905
   49MOL    H8612662   6.246   4.310   6.960 -2.2031  0.1190 -0.7641
   49MOL    H8712663   6.388   4.324   7.134 -0.8321 -1.4723 -0.3991
   49MOL    H8812664   6.108   4.574   7.190 -1.3003  0.6366  0.6651
   49MOL    H8912665   6.243   4.693   7.199  2.7022 -0.4768  1.3266
   49MOL    H9012666   6.176   4.617   7.340  0.1564  1.9077 -0.3805
   49MOL    H9112667   6.375   4.501   7.435  0.7934 -0.7973  0.8095
   49MOL    H9212668   6.476   4.607   7.333  0.9559 -0.9072 -0.9517
   49MOL    C9312669   6.533   4.411   7.339 -0.1086 -0.4344  0.2775
   49MOL    C9412670   6.641   4.434   7.442 -0.0229 -0.0522  0.2647
   49MOL    C9512671   6.777   4.423   7.422 -0.0557 -0.0926  0.5578
   49MOL    C9612672   6.837   4.404   7.280 -0.0487 -0.0701 -0.4988
   49MOL    C9712673   6.888   4.449   7.524  0.0213  0.4752  0.2565
   49MOL    H9812674   6.567   4.424   7.236 -2.6094 -0.4008 -0.5863
   49MOL    H9912675   6.490   4.312   7.358 -0.1523 -0.1532  1.6643
   49MOL   H10012676   6.609   4.464   7.540 -1.3022 -3.1434  0.8405
   49MOL   H10112677   6.883   4.500   7.260  0.4378 -0.0690  0.5614
   49MOL   H10212678   6.761   4.395   7.203  1.0839 -0.7466 -1.5471
   49MOL   H10312679   6.916   4.331   7.261 -0.3827 -0.0762 -1.8983
   49MOL   H10412680   6.925   4.548   7.497 -1.4127  0.9483 -0.0313
   49MOL   H10512681   6.969   4.386   7.487 -2.6687 -2.3648 -1.0984
   49MOL   C10612682   6.860   4.433   7.672 -0.5624  0.2574 -0.1594
   49MOL   C10712683   6.795   4.548   7.746 -0.7038  0.2124 -0.2467
   49MOL   C10812684   6.701   4.537   7.847  0.1226 -0.3036  0.3472
   49MOL   C10912685   6.652   4.412   0.034 -0.6624 -0.7898  0.2836
   49MOL   C11012686   6.639   4.669   0.015  0.1216  0.7342 -0.0824
   49MOL   H11112687   6.956   4.430   7.723 -0.8076 -0.3150  0.2764
   49MOL   H11212688   6.816   4.338   7.700  0.9722  0.3331  2.7315
   49MOL   H11312689   6.815   4.648   7.711 -0.5580 -0.2206 -1.4096
   49MOL   H11412690   6.604   4.336   7.855 -0.1918 -0.8720  0.0167
   49MOL   H11512691   6.590   4.429   0.122 -0.1321  1.8122  0.1829
   49MOL   H11612692   6.746   4.369   0.068  0.4597  1.6856  0.4615
   49MOL   H11712693   6.532   4.655   0.033  0.1824  0.4643  0.0672
   49MOL   H11812694   6.653   4.743   7.819  3.2533  0.6164  0.3232
   49MOL   C11912695   6.704   4.722   0.141  0.2489  0.3978 -0.1987
   49MOL   C12012696   6.662   4.869   0.175 -0.0399 -0.1665  0.4874
   49MOL   C12112697   6.743   4.978   0.165 -0.2052 -0.4058  0.2511
   49MOL   C12212698   6.891   4.970   0.107 -0.2820  0.3489  0.2431
   49MOL   C12312699   6.693   5.122   0.185 -0.2949  0.5800 -0.0847
   49MOL   H12412700   6.812   4.715   0.136  0.1944  0.0537 -1.0281
   49MOL   H12512701   6.682   4.649   0.218 -0.1817  0.4044 -0.3129
   49MOL   H12612702   6.559   4.879   0.209 -0.6658  0.3518 -1.4700
   49MOL   H12712703   6.936   4.877   0.072  1.1424  0.8050  0.8408
   49MOL   H12812704   6.965   5.012   0.175  0.2950  1.3134 -0.9574
   49MOL   H12912705   6.901   5.037   0.022 -2.8541  0.6249  0.1063
   49MOL   H13012706   6.762   5.172   0.253  0.4757 -0.6819  0.0846
   49MOL   H13112707   6.607   5.111   0.251 -1.0271 -2.6354 -1.4879
   49MOL   C13212708   6.653   5.201   0.060 -0.2226  0.2762  0.2591
   49MOL   C13312709   6.548   5.128   7.854  0.1252  0.1171 -0.1199
   49MOL   C13412710   6.429   5.167   7.813 -0.4134 -0.2996  0.1685
   49MOL   C13512711   6.366   5.295   7.851  0.1572  0.5067 -0.5157
   49MOL   C13612712   6.341   5.079   7.732  0.2945 -0.6857  0.4220
   49MOL   H13712713   6.731   5.200   7.867 -0.0928 -2.5134  0.3542
   49MOL   H13812714   6.632   5.307   0.066  0.9793  0.5355  0.0024
   49MOL   H13912715   6.584   5.030   7.824  0.5353  0.8055 -1.9901
   49MOL   H14012716   6.299   5.321   7.769  0.3679  3.5254  0.2144
   49MOL   H14112717   6.441   5.374   7.852  0.9347 -0.1970 -1.7501
   49MOL   H14212718   6.299   5.299   0.055  0.0208 -1.2126 -0.5237
   49MOL   H14312719   6.402   5.008   7.675 -0.3407 -0.2711 -0.8015
   49MOL   H14412720   6.288   5.137   7.656 -2.0746 -0.8327  1.9215
   49MOL   C14512721   6.245   5.007   7.827  0.2104  0.1170  0.5680
   49MOL   C14612722   6.146   4.916   7.750 -0.5762 -0.4570 -0.3487
   49MOL   C14712723   6.170   4.790   7.701 -0.0978  0.3320  0.5687
   49MOL   C14812724   6.300   4.720   7.727  0.0494 -0.7231  0.1701
   49MOL   C14912725   6.069   4.713   7.618 -0.5329 -0.0280 -0.4689
   49MOL   H15012726   6.197   5.084   0.005 -0.0496  1.0985 -0.8698
   49MOL   H15112727   6.304   4.936   0.003  1.6500 -0.7904 -1.9033
   49MOL   H15212728   6.056   4.965   7.716 -0.0817  1.2771  0.7981
   49MOL   H15312729   6.317   4.730   7.834  1.6841 -0.3419 -0.1175
   49MOL   H15412730   6.382   4.758   7.666 -0.0619  0.7600  0.9222
   49MOL   H15512731   6.301   4.612   7.712  0.5592 -0.3279 -2.8753
   49MOL   H15612732   6.119   4.628   7.573 -0.7359 -0.8183  0.7852
   49MOL   H15712733   6.045   4.787   7.541  0.9766  0.2466 -0.6978
   49MOL   C15812734   5.946   4.666   7.698  0.1049  0.0595 -0.9071
   49MOL   C15912735   5.845   4.599   7.611 -0.2732 -0.4124  0.7878
   49MOL   C16012736   5.734   4.653   7.557  0.0692  0.4194 -0.0403
   49MOL   C16112737   5.675   4.789   7.602 -0.2455  0.7114 -0.1208
   49MOL   C16212738   5.654   4.584   7.456 -0.1892  0.1890 -0.7246
   49MOL   H16312739   5.911   4.750   7.757  1.0176 -1.1786  1.4918
   49MOL   H16412740   5.978   4.594   7.774  0.1465  0.6736 -0.3448
   49MOL   H16512741   5.882   4.511   7.560  1.1710  1.9823 -2.4920
   49MOL   H16612742   5.643   4.833   7.507 -0.0782 -2.1013 -1.5315
   49MOL   H16712743   5.745   4.848   7.660  1.4063 -0.1649 -1.1925
   49MOL   H16812744   5.583   4.776   7.659  0.6447 -0.4043  1.0705
   49MOL   H16912745   5.725   4.519   7.405  2.0067  1.5106  0.5625
   49MOL   H17012746   5.622   4.653   7.378  0.1263  0.6070 -0.4884
   49MOL   C17112747   5.541   4.506   7.513  0.1606  0.2504  0.7090
   49MOL   C17212748   5.460   4.435   7.409 -0.2097  0.0630  0.6176
   49MOL   C17312749   5.330   4.412   7.412 -0.1388  0.0336  0.0674
   49MOL   C17412750   5.232   4.468   7.522  0.1428  0.2201  0.6420
   49MOL   C17512751   5.261   4.341   7.304 -0.2481  0.1044  0.4539
   49MOL   H17612752   5.471   4.580   7.550 -0.9811  1.1949 -3.0500
   49MOL   H17712753   5.582   4.434   7.584 -2.5020 -2.6264 -0.5655
   49MOL   H17812754   5.517   4.394   7.328 -2.9257 -1.2441 -0.6973
   49MOL   H17912755   5.268   4.460   7.624  0.9877 -1.9942  0.1995
   49MOL   H18012756   5.135   4.422   7.535  0.6856 -0.6103  1.8643
   49MOL   H18112757   5.209   4.572   7.497 -0.3779 -0.2626 -0.9886
   49MOL   H18212758   5.192   4.271   7.351  2.0964 -2.1135  0.7064
   49MOL   H18312759   5.334   4.289   7.241 -0.0277 -0.2252  0.9788
   49MOL   C18412760   5.165   4.443   7.234  0.2715  0.9716 -1.1884
   49MOL   C18512761   5.104   4.388   7.108  0.0035  0.2342 -0.2025
   49MOL   C18612762   5.150   4.410   6.981 -0.1075 -0.3089 -0.1456
   49MOL   C18712763   5.276   4.483   6.955  0.1345  0.6572  0.0681
   49MOL   C18812764   5.073   4.359   6.855  0.1259  0.1076 -0.1958
   49MOL   H18912765   5.241   4.517   7.208  0.0732  2.2483  1.6955
   49MOL   H19012766   5.099   4.497   7.302  0.2434  0.4580 -0.8110
   49MOL   H19112767   5.017   4.331   7.138 -1.2956  2.3840  0.1981
   49MOL   H19212768   5.354   4.434   7.013 -1.5204 -2.7350 -0.4642
   49MOL   H19312769   5.266   4.585   6.994  1.5204  0.5363  0.7662
   49MOL   H19412770   5.300   4.502   6.851  2.8920  0.5835  0.6638
   49MOL   H19512771   5.041   4.448   6.801 -2.2563 -0.9105 -0.4794
   49MOL   H19612772   4.982   4.310   6.889 -0.5672  0.0260 -2.1079
   49MOL   C19712773   5.155   4.260   6.774  0.3095 -0.2670  0.4971
   49MOL   C19812774   5.071   4.161   6.691  0.0676 -0.2781  0.0823
   49MOL   C19912775   5.069   4.028   6.709 -0.0473  0.4756  0.2423
   49MOL   C20012776   5.156   3.956   6.806  0.3999 -0.2020  0.2477
   49MOL   C20112777   4.986   3.946   6.607  0.4684  0.6595 -0.8178
   49MOL   H20212778   5.214   4.198   6.842 -0.4398  1.0063  2.3767
   49MOL   H20312779   5.227   4.308   6.708 -1.0567  1.8942  0.5181
   49MOL   H20412780   5.015   4.199   6.606  2.0700 -0.3924 -1.3350
   49MOL   H20512781   5.258   3.993   6.795  1.0012 -2.0224 -0.4891
   49MOL   H20612782   5.145   3.852   6.776 -1.7824 -0.1172  0.7209
   49MOL   H20712783   5.141   3.973   6.912 -0.6727 -3.9410  0.7426
   49MOL   H20812784   4.909   4.016   6.575 -0.2372  0.6292  0.7971
   49MOL   H20912785   4.931   3.866   6.657 -0.4046  1.2041 -0.9093
   49MOL   C21012786   5.070   3.875   6.496  0.2731 -0.1868 -0.1680
   49MOL   C21112787   4.984   3.856   6.375  0.4018 -0.1351  0.7283
   49MOL   C21212788   5.030   3.857   6.253 -0.0121 -1.1768 -0.2111
   49MOL   C21312789   5.173   3.875   6.221 -0.5038 -0.2029  0.3610
   49MOL   C21412790   4.928   3.859   6.138 -0.5864  0.1011  0.0412
   49MOL   H21512791   5.124   3.783   6.516  0.8978 -0.1132 -1.4157
   49MOL   H21612792   5.150   3.946   6.474 -0.6688  0.2560 -2.2803
   49MOL   H21712793   4.877   3.843   6.386  0.4052 -3.1833 -2.1471
   49MOL   H21812794   5.235   3.824   6.294 -0.2959 -1.7695 -0.8708
   49MOL   H21912795   5.209   3.975   6.195  0.0541 -0.3201  0.6791
   49MOL   H22012796   5.201   3.818   6.132  1.6970  0.3033  0.7002
   49MOL   H22112797   4.942   3.954   6.086  2.1229 -0.2042  0.1259
   49MOL   H22212798   4.825   3.857   6.174 -1.0267  3.5518 -0.8605
   49MOL   C22312799   4.941   3.739   6.043  0.6782  0.5417  0.6106
   49MOL   C22412800   4.878   3.757   5.904 -0.7511 -0.2671  0.1650
   49MOL   C22512801   4.789   3.674   5.841 -0.0290  0.0500  0.6713
   49MOL   C22612802   4.728   3.547   5.901  0.1934 -0.4037 -0.8859
   49MOL   C22712803   4.744   3.704   5.704 -0.6096 -0.2145  0.4958
   49MOL   H22812804   4.894   3.655   6.094 -0.1263  1.3951  1.3019
   49MOL   H22912805   5.046   3.710   6.039  0.4382 -0.4338  1.2072
   49MOL   H23012806   4.912   3.843   5.849 -1.9268 -0.5347 -0.9906
   49MOL   H23112807   4.631   3.574   5.944  0.1628  1.9460 -2.3480
   49MOL   H23212808   4.783   3.504   5.985 -0.9779  0.4704  0.3458
   49MOL   H23312809   4.709   3.469   5.827 -1.5237 -0.2352 -0.6601
   49MOL   H23412810   4.720   3.807   5.676 -0.0753 -0.3070 -0.3058
   49MOL   H23512811   4.642   3.665   5.700  0.2754 -2.3996 -1.5163
   49MOL   C23612812   4.827   3.638   5.595  0.3395  0.1333 -0.2799
   49MOL   C23712813   4.748   3.611   5.473  0.2202  0.2191 -0.0726
   49MOL   C23812814   4.722   3.499   5.407  0.6110 -0.0852  0.2864
   49MOL   C23912815   4.768   3.364   5.454  0.3018 -0.5144 -0.0688
   49MOL   C24012816   4.649   3.506   5.279  0.3604 -0.1664  0.9077
   49MOL   H24112817   4.871   3.546   5.636 -0.3044 -0.4892 -0.9695
   49MOL   H24212818   4.902   3.713   5.569  0.0607  0.9908  1.3458
   49MOL   H24312819   4.708   3.705   5.438 -0.0951 -0.4048 -1.3900
   49MOL   H24412820   4.861   3.329   5.408  0.3332  0.1295 -0.4985
   49MOL   H24512821   4.684   3.304   5.419  0.7590 -0.9925 -0.3695
   49MOL   H24612822   4.768   3.348   5.562 -0.8170  2.0321  0.3169
   49MOL   H24712823   4.617   3.609   5.261 -0.3099 -0.5957 -0.4007
   49MOL   H24812824   4.558   3.448   5.292  0.5657 -0.7199 -0.0761
   49MOL   C24912825   4.733   3.471   5.149 -0.4072  0.1445  0.6862
   49MOL   C25012826   4.658   3.495   5.020  0.3617 -0.8016 -0.1363
   49MOL   C25112827   4.700   3.555   4.906  0.6756 -0.2791  0.1691
   49MOL   C25212828   4.844   3.619   4.881 -1.1352  0.0868  0.5497
   49MOL   C25312829   4.611   3.569   4.786  0.5000  0.2345  0.7420
   49MOL   H25412830   4.765   3.369   5.130  1.4934  0.8722 -0.1639
   49MOL   H25512831   4.831   3.517   5.142 -0.2227 -0.1982  0.9837
   49MOL   H25612832   4.561   3.448   5.010 -0.8851  1.5161  0.5788
   49MOL   H25712833   4.835   3.728   4.883  2.2333  0.4423 -0.8006
   49MOL   H25812834   4.879   3.575   4.788 -0.7750 -0.4777  0.9468
   49MOL   H25912835   4.913   3.588   4.959 -2.2527 -0.9755  1.1386
   49MOL   H26012836   4.504   3.558   4.802  0.3203  0.5239 -0.2060
   49MOL   H26112837   4.637   3.500   4.705  2.2431 -0.6180  1.9957
   49MOL   H26212838   4.613   3.669   4.742 -0.2851  0.1446  0.5042
   50MOL     C112839   4.702   3.612   7.535 -0.2945 -0.5585  0.5749
   50MOL     C212840   4.797   3.666   7.637 -0.3637  0.1814  0.1005
   50MOL     C312841   4.913   3.736   7.620  0.0802 -0.2096  1.0520
   50MOL     C412842   4.966   3.759   7.476  0.2676 -0.4429  0.3815
   50MOL     C512843   4.992   3.797   7.737  0.2100 -0.0316  0.2846
   50MOL     H612844   4.753   3.582   7.443 -0.3693 -1.1066  0.7134
   50MOL     H712845   4.659   3.527   7.587  1.7148 -3.6722 -2.6279
   50MOL     H812846   4.768   3.670   7.741  1.3714  2.2819  0.5493
   50MOL     H912847   4.925   3.840   7.417 -2.3964 -3.1239 -1.6028
   50MOL    H1012848   4.941   3.673   7.414  0.5014  0.1296 -0.5127
   50MOL    H1112849   5.074   3.764   7.492  0.3754  2.4342 -0.9810
   50MOL    H1212850   5.083   3.739   7.737  1.2743  1.6041  1.2964
   50MOL    H1312851   4.927   3.780   7.823 -0.3826 -1.2416 -0.3915
   50MOL    H1412852   4.622   3.683   7.510 -0.4512 -0.3197  1.7335
   50MOL    C1512853   5.022   3.947   7.709  0.0730  0.5133 -0.0408
   50MOL    C1612854   5.084   4.006   7.834  0.3275 -0.3268  0.1491
   50MOL    C1712855   5.139   4.128   7.847 -0.0155  0.3319 -0.0871
   50MOL    C1812856   5.136   4.228   7.734  0.4319 -0.3732  0.3522
   50MOL    C1912857   5.217   4.169   0.086  0.1127  0.5791  0.1023
   50MOL    H2012858   4.925   3.991   7.686  1.0938  1.2947 -3.0503
   50MOL    H2112859   5.081   3.958   7.619 -1.9619  1.1249 -1.3384
   50MOL    H2212860   5.096   3.937   0.034 -2.6144 -0.1760  0.7329
   50MOL    H2312861   5.052   4.209   7.667  0.1227 -0.5961  0.7967
   50MOL    H2412862   5.226   4.230   7.673  0.5238 -0.3971  0.4842
   50MOL    H2512863   5.110   4.328   7.769  0.6947  0.0046 -0.5188
   50MOL    H2612864   5.321   4.180   0.056 -0.1815  0.3977 -1.0223
   50MOL    H2712865   5.205   4.087   0.157 -1.0217  2.0307  1.6126
   50MOL    C2812866   5.163   4.297   0.158  0.4726 -0.6201 -0.7942
   50MOL    C2912867   5.245   4.325   0.284  0.0857  0.5618 -0.8578
   50MOL    C3012868   5.191   4.329   0.414 -0.1458  0.0709 -0.2342
   50MOL    C3112869   5.038   4.318   0.440 -0.1821 -0.3425 -0.1745
   50MOL    C3212870   5.287   4.340   0.529 -0.0434  0.5112  0.3250
   50MOL    H3312871   5.055   4.293   0.176  0.2726  1.7849 -1.3242
   50MOL    H3412872   5.171   4.388   0.099 -0.3506 -1.6155 -2.4942
   50MOL    H3512873   5.353   4.325   0.279  0.2968  0.3906  2.6962
   50MOL    H3612874   5.011   4.215   0.464 -0.6257 -0.6138 -1.7961
   50MOL    H3712875   4.980   4.371   0.364 -0.9848 -0.9967 -0.0126
   50MOL    H3812876   5.018   4.382   0.526  1.8021 -1.6387  1.3163
   50MOL    H3912877   5.387   4.311   0.497 -0.0712  1.0856 -0.2834
   50MOL    H4012878   5.256   4.268   0.605  2.0159 -2.0365 -1.1778
   50MOL    C4112879   5.286   4.486   0.589  0.2180  0.1479 -0.2993
   50MOL    C4212880   5.375   4.505   0.703 -0.4040 -0.7279 -0.0298
   50MOL    C4312881   5.485   4.582   0.707  0.2600 -0.1805  0.4631
   50MOL    C4412882   5.533   4.657   0.578  0.2100 -0.1062 -0.0447
   50MOL    C4512883   5.578   4.598   0.824  0.5291  0.2103 -0.9048
   50MOL    H4612884   5.182   4.503   0.617  0.3628  2.3061 -1.0021
   50MOL    H4712885   5.311   4.559   0.513 -0.5837  1.6799  0.8889
   50MOL    H4812886   5.347   4.453   0.793 -0.2700  0.6033  0.7933
   50MOL    H4912887   5.499   4.761   0.572  0.0417 -0.1746 -0.2612
   50MOL    H5012888   5.508   4.616   0.481  1.1882 -0.0253 -0.3427
   50MOL    H5112889   5.642   4.660   0.575  0.1997 -0.1508 -0.4271
   50MOL    H5212890   5.676   4.567   0.788  0.3048 -2.2912  0.4997
   50MOL    H5312891   5.568   4.513   0.891  2.4671  1.3938  0.9750
   50MOL    C5412892   5.599   4.733   0.893 -0.0603 -0.0942  0.1621
   50MOL    C5512893   5.730   4.747   0.975  0.4524  0.3990  0.7091
   50MOL    C5612894   5.738   4.828   1.084 -0.3798  0.6109  0.0866
   50MOL    C5712895   5.616   4.896   1.146  0.1279 -0.5709  0.3102
   50MOL    C5812896   5.878   4.851   1.147  0.4594 -0.0166  0.3882
   50MOL    H5912897   5.512   4.753   0.955 -1.0846  1.3478 -1.7105
   50MOL    H6012898   5.619   4.805   0.815  1.0576 -1.1457 -0.5412
   50MOL    H6112899   5.820   4.696   0.946  0.5310 -0.4728  2.3921
   50MOL    H6212900   5.521   4.842   1.142 -0.4936  0.6178 -1.5379
   50MOL    H6312901   5.597   5.000   1.120 -1.0222 -1.4071 -2.3872
   50MOL    H6412902   5.636   4.891   1.253  0.5475  1.7647  0.3714
   50MOL    H6512903   5.940   4.763   1.134  0.5863  0.0624  0.4624
   50MOL    H6612904   5.859   4.868   1.253  1.2060  3.7069 -0.0185
   50MOL    C6712905   5.943   4.971   1.081 -0.1738  0.1105 -0.3459
   50MOL    C6812906   6.067   5.004   1.158 -0.6023 -0.0895 -1.0458
   50MOL    C6912907   6.201   4.979   1.137  0.4373  0.2430 -0.1593
   50MOL    C7012908   6.252   4.912   1.015 -0.3586  0.3044 -0.4101
   50MOL    C7112909   6.300   5.025   1.241 -0.4196  0.1300  0.0282
   50MOL    H7212910   5.871   5.054   1.081 -1.5550 -1.0724 -0.8287
   50MOL    H7312911   5.970   4.965   0.975  0.6871 -0.7133 -0.0793
   50MOL    H7412912   6.038   5.063   1.244 -0.3366 -0.5566 -0.6379
   50MOL    H7512913   6.171   4.883   0.948 -1.0123  0.8950  0.1108
   50MOL    H7612914   6.316   4.830   1.047  1.8758  2.3085  0.4075
   50MOL    H7712915   6.326   4.976   0.967 -0.5588  1.9769  1.4579
   50MOL    H7812916   6.258   5.104   1.302 -1.4014 -0.3127 -0.0607
   50MOL    H7912917   6.385   5.072   1.193 -0.0821 -0.8539 -0.3569
   50MOL    C8012918   6.328   4.892   1.327 -0.1439  0.4574  0.3096
   50MOL    C8112919   6.388   4.922   1.460  0.9429 -0.9246  0.9448
   50MOL    C8212920   6.357   4.864   1.580  0.4077 -0.2242  0.0886
   50MOL    C8312921   6.252   4.757   1.599 -0.2300  0.3325  0.4981
   50MOL    C8412922   6.454   4.887   1.697 -0.0828  0.2491  0.3884
   50MOL    H8512923   6.396   4.828   1.271 -0.7249  0.0627  0.0531
   50MOL    H8612924   6.240   4.831   1.349 -0.1372  1.6300  4.0436
   50MOL    H8712925   6.466   4.996   1.453  2.1349 -2.3720 -1.4140
   50MOL    H8812926   6.190   4.732   1.513  0.1919  2.0361 -0.3174
   50MOL    H8912927   6.179   4.771   1.679  0.7784 -1.5245  1.7659
   50MOL    H9012928   6.300   4.666   1.636 -1.8605 -1.3099 -1.3206
   50MOL    H9112929   6.535   4.955   1.670 -1.2014  1.4630  0.0691
   50MOL    H9212930   6.501   4.794   1.730  2.0959  0.9795 -0.5893
   50MOL    C9312931   6.382   4.940   1.824 -0.4345  0.1205  0.4027
   50MOL    C9412932   6.465   4.989   1.939  0.0282 -0.8561 -1.1488
   50MOL    C9512933   6.479   4.935   2.065 -0.0747  0.2069  0.9169
   50MOL    C9612934   6.397   4.811   2.100 -0.1084  0.0194 -0.2263
   50MOL    C9712935   6.570   4.994   2.169 -0.1662  0.4697 -0.6512
   50MOL    H9812936   6.309   4.863   1.847  0.1267 -0.6352 -0.3252
   50MOL    H9912937   6.321   5.025   1.793  1.6186  3.1831  4.2400
   50MOL   H10012938   6.523   5.075   1.910 -0.1775 -0.3704 -0.1780
   50MOL   H10112939   6.447   4.753   2.178 -2.9527 -0.2373  1.4652
   50MOL   H10212940   6.368   4.745   2.018 -4.7715  1.2234  0.2943
   50MOL   H10312941   6.304   4.828   2.154 -0.3382 -0.9176 -0.3119
   50MOL   H10412942   6.516   5.006   2.263  2.8570 -0.3484  1.2463
   50MOL   H10512943   6.578   5.102   2.150 -1.3343  0.4401 -1.3776
   50MOL   C10612944   6.704   4.924   2.191 -0.1173  0.2660  0.7100
   50MOL   C10712945   6.809   5.021   2.252  0.3364 -0.4023  0.1470
   50MOL   C10812946   6.882   5.112   2.180  0.3905  0.1518  1.4477
   50MOL   C10912947   6.871   5.141   2.034  0.0551  0.3653 -0.7153
   50MOL   C11012948   6.982   5.201   2.243 -0.4488 -0.3375  0.2829
   50MOL   H11112949   6.747   4.884   2.099 -2.3626  2.7698 -1.5180
   50MOL   H11212950   6.683   4.837   2.253  0.4692 -0.4610 -0.1028
   50MOL   H11312951   6.811   5.026   2.360  0.6306  0.0294  0.1195
   50MOL   H11412952   6.970   5.120   1.993  0.4802  2.6119 -0.8749
   50MOL   H11512953   6.853   5.247   2.015  0.4748  0.6444  0.4588
   50MOL   H11612954   6.790   5.084   1.988  0.0602  0.4416 -0.8190
   50MOL   H11712955   7.087   5.187   2.217  0.1677  3.9467 -0.0226
   50MOL   H11812956   6.991   5.172   2.348  1.6423 -1.5528 -0.2031
   50MOL   C11912957   6.959   5.355   2.224 -0.1075 -0.2240 -0.2697
   50MOL   C12012958   6.828   5.406   2.267  1.0927  0.2496 -0.1961
   50MOL   C12112959   6.760   5.503   2.205 -0.3515 -0.3087 -0.0654
   50MOL   C12212960   6.817   5.568   2.075 -0.0043  0.0210 -0.0970
   50MOL   C12312961   6.620   5.552   2.256 -0.3433  0.1325 -1.2162
   50MOL   H12412962   6.976   5.396   2.125 -2.1695  0.5923 -0.3048
   50MOL   H12512963   7.033   5.403   2.287  0.6270 -0.5024 -0.9172
   50MOL   H12612964   6.799   5.356   2.358 -0.1060 -0.5853 -1.0182
   50MOL   H12712965   6.762   5.655   2.037  0.2776 -0.6549 -2.1003
   50MOL   H12812966   6.796   5.494   1.998 -0.9747  1.2401 -1.0392
   50MOL   H12912967   6.923   5.590   2.067 -0.2587  1.0575 -0.8272
   50MOL   H13012968   6.581   5.478   2.327  0.5474  0.4225 -0.4192
   50MOL   H13112969   6.540   5.542   2.182 -0.3273 -0.7590 -1.1198
   50MOL   C13212970   6.623   5.694   2.315  0.5321 -1.0553  0.3958
   50MOL   C13312971   6.488   5.747   2.354  0.1906  0.3762  0.9474
   50MOL   C13412972   6.420   5.719   2.469  0.3055 -1.1425 -0.6063
   50MOL   C13512973   6.482   5.645   2.585  0.1996 -0.3740 -0.0141
   50MOL   C13612974   6.279   5.772   2.495  0.3415 -0.0799  0.2670
   50MOL   H13712975   6.665   5.763   2.243  0.4160 -0.0988  1.2354
   50MOL   H13812976   6.681   5.692   2.408  0.7424 -0.4090  0.2762
   50MOL   H13912977   6.451   5.815   2.279 -2.7535 -2.6717 -0.4691
   50MOL   H14012978   6.409   5.592   2.646  3.8708 -2.2962  2.9329
   50MOL   H14112979   6.548   5.708   2.645  0.9723 -1.1698 -0.0276
   50MOL   H14212980   6.545   5.565   2.548 -0.2889 -0.1967 -1.2630
   50MOL   H14312981   6.217   5.688   2.525  1.1790 -0.1928  1.7570
   50MOL   H14412982   6.235   5.824   2.409 -0.3542 -1.2906 -0.1180
   50MOL   C14512983   6.276   5.876   2.606 -0.0887 -0.2262  0.2921
   50MOL   C14612984   6.145   5.941   2.623  0.3368 -0.2178 -0.9585
   50MOL   C14712985   6.116   6.074   2.612  1.2386  0.2495  0.0866
   50MOL   C14812986   6.216   6.176   2.559  0.0867  0.1512  0.0337
   50MOL   C14912987   5.972   6.129   2.637 -0.2595 -0.8027  0.3746
   50MOL   H15012988   6.360   5.945   2.608 -0.7828  0.6309  0.1370
   50MOL   H15112989   6.291   5.824   2.701  0.5231  0.3343  0.5012
   50MOL   H15212990   6.063   5.880   2.657  0.8143  0.1549  0.9628
   50MOL   H15312991   6.220   6.254   2.634 -0.1987 -0.1613  0.3790
   50MOL   H15412992   6.184   6.207   2.460  2.0537  1.7312 -0.1334
   50MOL   H15512993   6.316   6.134   2.553 -0.4357 -0.7913 -3.1064
   50MOL   H15612994   5.925   6.156   2.542  2.3300 -0.4192 -0.8516
   50MOL   H15712995   5.988   6.228   2.679  0.6853  0.6818 -3.2451
   50MOL   C15812996   5.865   6.067   2.734 -0.1974  0.1182  0.9255
   50MOL   C15912997   5.789   5.954   2.664 -0.1995 -0.0924 -0.7311
   50MOL   C16012998   5.758   5.833   2.708  0.1571  0.1440  0.1950
   50MOL   C16112999   5.802   5.781   2.837 -0.0791  0.1742  0.2848
   50MOL   C16213000   5.671   5.740   2.624 -0.4160  0.1185 -0.1327
   50MOL   H16313001   5.793   6.140   2.771 -0.7102  0.8822 -1.4666
   50MOL   H16413002   5.918   6.024   2.818 -0.2444  1.3971  1.6217
   50MOL   H16513003   5.746   5.973   2.567  0.5790 -1.3280 -1.3325
   50MOL   H16613004   5.788   5.858   2.914  0.5302  1.3717 -0.7922
   50MOL   H16713005   5.907   5.754   2.845  0.1278  1.1267  0.9021
   50MOL   H16813006   5.741   5.693   2.858 -0.8530 -0.2239 -3.3987
   50MOL   H16913007   5.624   5.789   2.538 -1.9274  0.3978  0.8339
   50MOL   H17013008   5.587   5.709   2.686  0.5080 -1.0595  0.5538
   50MOL   C17113009   5.745   5.614   2.570 -0.2892 -0.4190 -0.3015
   50MOL   C17213010   5.650   5.545   2.467 -0.5545  0.0170 -0.2152
   50MOL   C17313011   5.609   5.416   2.487  0.3074  0.6775  0.9025
   50MOL   C17413012   5.633   5.341   2.618  1.0359  0.5735 -0.3030
   50MOL   C17513013   5.531   5.339   2.384 -0.1727  0.3289 -0.1095
   50MOL   H17613014   5.764   5.551   2.657 -0.0546  0.6800  0.4658
   50MOL   H17713015   5.846   5.630   2.531 -0.5198 -1.0172 -1.1493
   50MOL   H17813016   5.633   5.599   2.375  0.6945  0.0525 -0.4335
   50MOL   H17913017   5.731   5.293   2.613  1.6164  1.7077 -0.0927
   50MOL   H18013018   5.557   5.268   2.644  0.5839  1.2908  0.4355
   50MOL   H18113019   5.623   5.416   2.697  1.2400  0.7563 -0.4502
   50MOL   H18213020   5.587   5.250   2.356  1.2429  1.3115 -0.4748
   50MOL   H18313021   5.527   5.395   2.290  1.5680 -0.1695 -0.4878
   50MOL   C18413022   5.389   5.311   2.440  0.1440  0.4516  0.0313
   50MOL   C18513023   5.286   5.284   2.333 -0.4595  0.4545 -0.2333
   50MOL   C18613024   5.169   5.349   2.309 -0.4613  0.7273 -0.0953
   50MOL   C18713025   5.127   5.482   2.373  0.4433  0.6420  0.2000
   50MOL   C18813026   5.071   5.293   2.209  0.1776  0.7874 -0.1000
   50MOL   H18913027   5.367   5.398   2.502 -2.9242 -0.8116  0.7533
   50MOL   H19013028   5.382   5.234   2.516 -0.1699  1.4799  1.0558
   50MOL   H19113029   5.308   5.201   2.267  1.4004 -0.1413  1.0963
   50MOL   H19213030   5.170   5.498   2.472  0.0724  0.7854  0.3399
   50MOL   H19313031   5.019   5.489   2.386  0.0949 -1.4669 -1.3841
   50MOL   H19413032   5.148   5.563   2.304  1.8104 -0.0626 -0.2208
   50MOL   H19513033   4.972   5.338   2.220  0.5840  2.1366 -1.8703
   50MOL   H19613034   5.060   5.186   2.230  1.6241  0.4538 -1.0237
   50MOL   C19713035   5.112   5.309   2.062  0.3386 -0.2087 -0.3933
   50MOL   C19813036   5.010   5.257   1.973 -0.2839 -0.0093 -0.4302
   50MOL   C19913037   4.998   5.285   1.844  0.0966 -0.3426  0.0724
   50MOL   C20013038   5.090   5.375   1.770 -0.1091 -0.2842 -0.3275
   50MOL   C20113039   4.889   5.222   1.761  0.5746 -0.4210 -0.3115
   50MOL   H20213040   5.209   5.261   2.043  0.8271  0.9880 -0.9719
   50MOL   H20313041   5.134   5.414   2.045  0.6261  0.0022  1.2659
   50MOL   H20413042   4.944   5.187   2.024  0.2432 -0.6096 -0.5780
   50MOL   H20513043   5.139   5.300   1.708 -0.9583 -1.4014  0.3096
   50MOL   H20613044   5.159   5.435   1.829  1.5883 -0.1909 -2.3907
   50MOL   H20713045   5.036   5.445   1.707  0.4351 -0.7256 -1.2829
   50MOL   H20813046   4.856   5.293   1.685  2.7104  1.3915  0.4066
   50MOL   H20913047   4.795   5.210   1.814  0.6178  0.6838  0.0331
   50MOL   C21013048   4.935   5.089   1.694  0.0869 -0.3152 -0.6214
   50MOL   C21113049   4.840   5.042   1.587 -0.7769 -0.5556 -0.2954
   50MOL   C21213050   4.866   4.975   1.473 -0.0496 -0.2938 -0.2385
   50MOL   C21313051   4.998   4.914   1.423 -0.5065 -0.1027 -0.1255
   50MOL   C21413052   4.752   4.938   1.386  0.0644 -0.3342  0.3127
   50MOL   H21513053   4.951   5.019   1.777 -1.9405  0.5258  0.5064
   50MOL   H21613054   5.034   5.098   1.651  1.0912  1.0708  1.8703
   50MOL   H21713055   4.735   5.062   1.600 -0.4801  2.2016 -1.6637
   50MOL   H21813056   4.994   4.805   1.418  1.5428 -0.2898  1.7024
   50MOL   H21913057   5.077   4.927   1.497  0.9271  2.5968 -2.0617
   50MOL   H22013058   5.022   4.955   1.325 -0.9795  0.0107 -0.1938
   50MOL   H22113059   4.664   4.906   1.442 -0.4482 -3.9609 -2.4375
   50MOL   H22213060   4.782   4.845   1.339  0.1587 -0.6212  0.9306
   50MOL   C22313061   4.712   5.044   1.273 -0.3987  1.1005 -0.7102
   50MOL   C22413062   4.641   5.158   1.340 -0.0039  0.0249 -0.3818
   50MOL   C22513063   4.505   5.177   1.345 -0.6464  0.4588 -0.1591
   50MOL   C22613064   4.397   5.080   1.286  0.0565  0.1653  0.7646
   50MOL   C22713065   4.449   5.307   1.404 -0.3986 -0.5600 -0.4859
   50MOL   H22813066   4.641   5.007   1.200 -0.8491 -1.1671  0.8300
   50MOL   H22913067   4.800   5.083   1.221  0.1752 -0.1647 -0.7035
   50MOL   H23013068   4.709   5.230   1.385  1.1134 -0.9709 -0.4537
   50MOL   H23113069   4.362   5.114   1.189 -2.4209 -0.7461  1.3109
   50MOL   H23213070   4.308   5.076   1.349 -0.8905 -0.2360 -0.5809
   50MOL   H23313071   4.447   4.984   1.274 -1.2039 -0.1110 -2.6830
   50MOL   H23413072   4.387   5.283   1.491 -0.1385 -0.4114 -0.2569
   50MOL   H23513073   4.381   5.354   1.333  0.9869 -0.1340 -1.5501
   50MOL   C23613074   4.550   5.415   1.445 -0.2276 -0.1646  0.0671
   50MOL   C23713075   4.480   5.539   1.487  0.5959 -0.6882 -0.6484
   50MOL   C23813076   4.483   5.659   1.435  0.2598 -0.2676 -0.0233
   50MOL   C23913077   4.572   5.703   1.327 -0.4662 -0.6039  0.8252
   50MOL   C24013078   4.411   5.773   1.505 -0.1303  0.4867 -0.3069
   50MOL   H24113079   4.635   5.431   1.379  0.0447 -4.1448 -0.6514
   50MOL   H24213080   4.598   5.378   1.536  1.0996  1.4484  0.0494
   50MOL   H24313081   4.417   5.533   1.574 -0.3916  4.0432 -0.9423
   50MOL   H24413082   4.607   5.615   1.273 -0.4146 -1.1127  1.6673
   50MOL   H24513083   4.655   5.763   1.364 -0.1082 -0.9233  0.5425
   50MOL   H24613084   4.510   5.756   1.255  2.7211  0.2962 -1.3788
   50MOL   H24713085   4.310   5.738   1.521 -0.3051  1.1462  0.0540
   50MOL   H24813086   4.393   5.850   1.430 -1.1580 -1.2703 -1.8803
   50MOL   C24913087   4.484   5.841   1.619 -0.2087  0.4811  0.2106
   50MOL   C25013088   4.397   5.948   1.680 -0.2952 -0.1417 -0.4412
   50MOL   C25113089   4.434   6.061   1.732  0.4410  0.1288 -0.3735
   50MOL   C25213090   4.583   6.106   1.752 -0.3189  0.7060 -0.0450
   50MOL   C25313091   4.324   6.161   1.774  0.5495  0.8181 -0.6168
   50MOL   H25413092   4.588   5.867   1.599 -0.3002  0.5874 -0.1217
   50MOL   H25513093   4.488   5.766   1.698  0.4222 -0.1410 -0.4159
   50MOL   H25613094   4.291   5.928   1.683 -0.7510  2.2381  0.6103
   50MOL   H25713095   4.614   6.169   1.668  0.1544  0.6221  0.0624
   50MOL   H25813096   4.653   6.023   1.739 -0.7552 -0.0568  2.2785
   50MOL   H25913097   4.589   6.156   1.848 -2.6621 -0.1053  0.5394
   50MOL   H26013098   4.315   6.170   1.882  0.1833 -1.4515 -0.4360
   50MOL   H26113099   4.222   6.144   1.737  0.5460 -1.2390  0.3191
   50MOL   H26213100   4.337   6.266   1.746 -2.3375  0.7421 -2.5172
   51MOL     C113101   3.773   1.637   7.429  0.0344  0.1450  0.3075
   51MOL     C213102   3.890   1.588   7.515  0.0110 -0.4640 -0.1218
   51MOL     C313103   4.018   1.638   7.524  0.2073 -0.1388  0.2146
   51MOL     C413104   4.068   1.764   7.458 -0.0296  0.3739  0.2582
   51MOL     C513105   4.125   1.580   7.618 -0.6707 -0.4410 -0.3332
   51MOL     H613106   3.727   1.545   7.392  0.4588  0.2857 -0.5656
   51MOL     H713107   3.702   1.695   7.488 -0.4927 -1.0511  0.8823
   51MOL     H813108   3.858   1.509   7.581 -0.3527 -0.1487  0.0812
   51MOL     H913109   3.999   1.819   7.395 -0.0405 -0.9243 -0.8913
   51MOL    H1013110   4.163   1.752   7.404 -0.2658 -1.8749  0.2999
   51MOL    H1113111   4.082   1.834   7.540  2.1608  2.1312 -1.5647
   51MOL    H1213112   4.162   1.653   7.689 -0.2300  1.1152 -2.1323
   51MOL    H1313113   4.207   1.551   7.552 -0.1970  0.6116 -0.2188
   51MOL    H1413114   3.797   1.690   7.337 -0.1980 -2.0290 -1.0621
   51MOL    C1513115   4.084   1.449   7.693 -1.0312 -1.0212 -0.4141
   51MOL    C1613116   4.199   1.400   7.777  0.7428 -0.6802  0.3371
   51MOL    C1713117   4.294   1.312   7.737 -0.3669  0.6805  0.4309
   51MOL    C1813118   4.296   1.243   7.603 -0.5185 -0.1228  0.1160
   51MOL    C1913119   4.413   1.271   7.823  0.1084  0.6137 -0.2858
   51MOL    H2013120   4.055   1.379   7.615  0.6916 -2.9903  0.6514
   51MOL    H2113121   3.997   1.470   7.755 -0.2697 -0.1572  0.3719
   51MOL    H2213122   4.221   1.460   7.865  0.6997  0.5644 -0.4902
   51MOL    H2313123   4.252   1.298   7.520  2.5142 -0.4241 -1.7701
   51MOL    H2413124   4.234   1.153   7.611 -1.9292  0.7670 -0.4491
   51MOL    H2513125   4.399   1.223   7.574 -0.9265 -2.1441 -0.0645
   51MOL    H2613126   4.448   1.173   7.789 -0.0187  0.4107  0.1614
   51MOL    H2713127   4.384   1.254   0.044 -1.2542  0.1981 -0.7224
   51MOL    C2813128   4.528   1.364   7.808 -0.5689 -0.7405 -0.0434
   51MOL    C2913129   4.514   1.491   0.009 -0.5079 -0.5984 -0.3707
   51MOL    C3013130   4.501   1.620   7.855  0.1202  0.3697 -0.0853
   51MOL    C3113131   4.486   1.655   7.709  0.6692 -0.0876  0.5672
   51MOL    C3213132   4.467   1.735   0.065  0.3511 -0.1559 -0.2299
   51MOL    H3313133   4.543   1.379   7.701  0.9558  0.6232  0.3482
   51MOL    H3413134   4.617   1.313   7.845 -0.0291  0.6102  0.5470
   51MOL    H3513135   4.507   1.467   0.114  3.3410 -0.3126 -0.0057
   51MOL    H3613136   4.391   1.708   7.694  0.5866 -0.3244  0.2543
   51MOL    H3713137   4.482   1.571   7.640  1.7963  0.2137  0.1278
   51MOL    H3813138   4.564   1.727   7.685 -0.1342  0.6930  0.2499
   51MOL    H3913139   4.367   1.730   0.107  1.1445  0.5857  1.8326
   51MOL    H4013140   4.475   1.827   0.007  0.8229  0.8496  1.3986
   51MOL    C4113141   4.573   1.756   0.169 -0.3457 -0.2944 -0.1215
   51MOL    C4213142   4.568   1.888   0.249  0.6339  0.4241  0.1482
   51MOL    C4313143   4.505   1.909   0.367 -0.5158 -0.9363  0.4002
   51MOL    C4413144   4.409   1.817   0.439  0.3594 -0.2184  0.2640
   51MOL    C4513145   4.514   2.051   0.431 -0.0245  0.7316 -0.0828
   51MOL    H4613146   4.668   1.743   0.119 -1.1991  0.2945 -1.9267
   51MOL    H4713147   4.556   1.671   0.236 -0.8669 -1.0951 -1.2581
   51MOL    H4813148   4.630   1.956   0.193  0.2871 -0.9715 -2.0332
   51MOL    H4913149   4.380   1.723   0.392  0.4237  0.5280 -1.2839
   51MOL    H5013150   4.316   1.870   0.465  0.8038  0.6939  0.0079
   51MOL    H5113151   4.438   1.793   0.542 -0.6557 -2.3997  0.0777
   51MOL    H5213152   4.417   2.084   0.466 -0.2259  0.4946 -0.4103
   51MOL    H5313153   4.547   2.117   0.351  0.4953 -0.8635 -1.1981
   51MOL    C5413154   4.613   2.081   0.542 -0.1261 -0.3272 -0.2077
   51MOL    C5513155   4.620   2.232   0.570 -0.1445 -0.0866 -0.4208
   51MOL    C5613156   4.731   2.306   0.595  0.0070 -0.0264  0.0837
   51MOL    C5713157   4.871   2.240   0.606  0.0442 -0.1586 -0.6006
   51MOL    C5813158   4.725   2.456   0.617  0.2235  0.2003  0.1571
   51MOL    H5913159   4.712   2.043   0.519  1.0353  3.1956 -1.3925
   51MOL    H6013160   4.569   2.033   0.630  0.3169 -0.9423 -0.3218
   51MOL    H6113161   4.526   2.286   0.562  0.6312  0.9948 -2.6726
   51MOL    H6213162   4.859   2.139   0.645  0.1430 -0.0607 -0.3151
   51MOL    H6313163   4.931   2.300   0.675 -0.6376 -1.2341  0.9529
   51MOL    H6413164   4.913   2.245   0.506  3.1751 -0.0650  0.6475
   51MOL    H6513165   4.645   2.503   0.560 -0.5128 -2.2022 -0.8570
   51MOL    H6613166   4.817   2.501   0.579 -0.6150  1.5869 -0.2756
   51MOL    C6713167   4.694   2.479   0.767 -0.4630  0.4189  0.3840
   51MOL    C6813168   4.545   2.446   0.805  0.3018  0.1990  0.3060
   51MOL    C6913169   4.500   2.346   0.880  0.2827  0.0764 -0.4509
   51MOL    C7013170   4.596   2.230   0.917 -0.4866  0.0261  0.1517
   51MOL    C7113171   4.355   2.332   0.915 -0.6755 -0.5660  0.7284
   51MOL    H7213172   4.721   2.578   0.803  0.4245  0.8329 -1.3513
   51MOL    H7313173   4.766   2.419   0.823  1.0400  0.0413 -1.8684
   51MOL    H7413174   4.491   2.530   0.764 -0.7653 -0.1146  1.0376
   51MOL    H7513175   4.561   2.129   0.896  1.1239 -0.2765 -1.1888
   51MOL    H7613176   4.595   2.241   1.025 -0.4573  2.0501 -0.0332
   51MOL    H7713177   4.697   2.240   0.878 -0.6980  0.6081 -0.2589
   51MOL    H7813178   4.300   2.399   0.848  1.9789 -1.3149 -2.3500
   51MOL    H7913179   4.329   2.366   1.015 -1.6797  0.1872  0.2184
   51MOL    C8013180   4.289   2.202   0.891 -0.0795 -0.0048  0.0252
   51MOL    C8113181   4.137   2.213   0.886 -0.1366 -0.5447 -0.2870
   51MOL    C8213182   4.061   2.169   0.786 -1.1113 -0.3230  0.5824
   51MOL    C8313183   4.105   2.108   0.653 -0.5822 -0.0228 -0.1419
   51MOL    C8413184   3.909   2.181   0.783 -0.0901  0.5021  0.3067
   51MOL    H8513185   4.308   2.118   0.958 -1.2737 -0.0542  0.3101
   51MOL    H8613186   4.315   2.160   0.794 -1.2560  1.6990 -1.0761
   51MOL    H8713187   4.081   2.259   0.966 -0.6736  1.4704 -1.7585
   51MOL    H8813188   4.049   2.153   0.572 -1.0455 -1.8399 -0.8528
   51MOL    H8913189   4.084   2.001   0.660 -1.0487  0.0448 -0.5080
   51MOL    H9013190   4.211   2.130   0.637 -0.6132  1.4040  1.5173
   51MOL    H9113191   3.870   2.226   0.692 -1.8377 -0.5141  0.5448
   51MOL    H9213192   3.894   2.258   0.859 -1.2662 -2.1223  2.8238
   51MOL    C9313193   3.822   2.057   0.799 -0.2952  0.3174 -0.5655
   51MOL    C9413194   3.676   2.096   0.787  0.1529 -0.3156 -0.1086
   51MOL    C9513195   3.593   2.101   0.675  0.4730  0.0211 -0.2259
   51MOL    C9613196   3.626   2.062   0.533 -0.5863  0.0667  0.4530
   51MOL    C9713197   3.448   2.153   0.686 -0.0231 -0.1052  0.7487
   51MOL    H9813198   3.835   2.020   0.900 -2.6422 -0.2272 -0.4202
   51MOL    H9913199   3.849   1.989   0.719  0.7640 -0.5950  0.5562
   51MOL   H10013200   3.633   2.134   0.880  0.8016  0.4752 -0.1235
   51MOL   H10113201   3.567   1.979   0.495 -1.2076  0.7340 -0.0655
   51MOL   H10213202   3.732   2.041   0.524 -0.6451 -1.2965  2.4749
   51MOL   H10313203   3.618   2.144   0.461 -0.5864  0.7609  1.2289
   51MOL   H10413204   3.422   2.219   0.603 -3.7365 -0.8065  1.2579
   51MOL   H10513205   3.442   2.221   0.771  1.6639  2.2457 -0.9190
   51MOL   C10613206   3.338   2.049   0.715  0.9937  1.3063 -0.5223
   51MOL   C10713207   3.367   1.952   0.823 -0.6042 -0.7389 -1.0977
   51MOL   C10813208   3.335   1.968   0.954  0.2027 -0.0407  0.8731
   51MOL   C10913209   3.254   2.088   0.997  0.3112 -0.0623  0.1105
   51MOL   C11013210   3.370   1.868   1.062  0.1425 -0.2625 -0.2555
   51MOL   H11113211   3.315   1.996   0.622  0.8698 -0.1870  0.3281
   51MOL   H11213212   3.250   2.106   0.745  0.7785  0.7589 -0.0863
   51MOL   H11313213   3.425   1.864   0.795 -0.6208 -2.1204  2.9383
   51MOL   H11413214   3.150   2.055   0.989 -0.0353  1.3595 -1.5018
   51MOL   H11513215   3.274   2.177   0.938 -1.9792  0.1084 -0.4744
   51MOL   H11613216   3.276   2.116   1.100  0.7574  0.0555 -0.0167
   51MOL   H11713217   3.397   1.775   1.012  1.3566  0.1913 -0.4447
   51MOL   H11813218   3.292   1.838   1.133  3.6425 -1.7829  3.1601
   51MOL   C11913219   3.488   1.923   1.139  0.1316  0.3642 -1.2138
   51MOL   C12013220   3.547   1.824   1.236  0.1803 -0.1816 -0.6208
   51MOL   C12113221   3.668   1.775   1.235 -0.4885  0.4425 -0.0526
   51MOL   C12213222   3.787   1.828   1.154 -0.1658 -0.0267 -0.4503
   51MOL   C12313223   3.703   1.660   1.329  0.2775 -0.6344 -0.3969
   51MOL   H12413224   3.475   2.021   1.185 -1.0665  0.4214 -1.6517
   51MOL   H12513225   3.559   1.945   1.060 -0.6310 -0.9476 -2.2935
   51MOL   H12613226   3.479   1.783   1.308  1.8409 -2.0775 -0.0855
   51MOL   H12713227   3.785   1.785   1.054  2.0639  0.5711 -0.7593
   51MOL   H12813228   3.885   1.810   1.197  0.5908  1.2399 -1.6341
   51MOL   H12913229   3.783   1.937   1.151 -0.4358 -0.0059  0.4674
   51MOL   H13013230   3.622   1.635   1.398  0.6209  1.9159  0.9781
   51MOL   H13113231   3.790   1.685   1.389  0.1475  0.6291 -0.7110
   51MOL   C13213232   3.716   1.528   1.257 -0.3733  0.0649  1.1460
   51MOL   C13313233   3.702   1.401   1.332 -0.2189 -0.1365  0.3292
   51MOL   C13413234   3.793   1.304   1.360  0.5382  0.2368  0.4556
   51MOL   C13513235   3.935   1.302   1.313  0.2761 -0.8035 -0.5709
   51MOL   C13613236   3.745   1.170   1.423 -0.1346 -0.6513 -0.1079
   51MOL   H13713237   3.809   1.521   1.202 -1.0818 -0.2563 -0.0334
   51MOL   H13813238   3.637   1.535   1.182  1.6931 -1.9483 -1.3022
   51MOL   H13913239   3.607   1.389   1.381 -1.4886 -0.8587 -2.2200
   51MOL   H14013240   4.007   1.270   1.389  1.2168 -0.8876 -1.4861
   51MOL   H14113241   3.969   1.402   1.284 -0.5900  0.7869  3.5423
   51MOL   H14213242   3.954   1.248   1.220  2.1860 -0.2428 -0.5216
   51MOL   H14313243   3.683   1.184   1.511  0.1986  0.9980 -0.1222
   51MOL   H14413244   3.834   1.118   1.458  0.5393  2.0604  2.4269
   51MOL   C14513245   3.664   1.081   1.321 -1.1123  0.3358  0.5134
   51MOL   C14613246   3.615   0.948   1.386  0.8749 -0.3045 -0.1879
   51MOL   C14713247   3.501   0.942   1.461  0.2594  0.2770  0.8408
   51MOL   C14813248   3.412   1.059   1.486  0.3201 -0.0616  0.1536
   51MOL   C14913249   3.471   0.815   1.538 -0.9179 -0.3576  0.0861
   51MOL   H15013250   3.735   1.058   1.241  0.3864  0.8139  1.6840
   51MOL   H15113251   3.579   1.129   1.273  0.1177 -0.2494 -2.3878
   51MOL   H15213252   3.689   0.870   1.392 -1.5996 -2.5687  2.9270
   51MOL   H15313253   3.346   1.045   1.571 -1.1498 -0.3181 -1.0129
   51MOL   H15413254   3.348   1.073   1.398 -0.3886 -2.1486  0.3257
   51MOL   H15513255   3.469   1.152   1.498 -1.5942  1.2452 -0.5893
   51MOL   H15613256   3.454   0.851   1.639  2.5388  0.8231  0.3238
   51MOL   H15713257   3.555   0.747   1.554  0.6139  0.7838 -2.7600
   51MOL   C15813258   3.357   0.737   1.484 -0.2344  0.0093  0.0468
   51MOL   C15913259   3.332   0.608   1.562 -0.5689  0.1995 -0.2038
   51MOL   C16013260   3.237   0.517   1.535 -0.1839 -0.2947  0.4594
   51MOL   C16113261   3.141   0.527   1.421 -0.3538 -0.3276 -0.0489
   51MOL   C16213262   3.222   0.395   1.626  0.5482  0.1929  0.0475
   51MOL   H16313263   3.368   0.709   1.379  1.3251 -1.6302  0.6143
   51MOL   H16413264   3.265   0.794   1.488 -1.2038 -1.3960 -1.6127
   51MOL   H16513265   3.412   0.592   1.633 -0.7216  1.7691  0.3353
   51MOL   H16613266   3.141   0.624   1.371 -0.7146  0.3425  1.2265
   51MOL   H16713267   3.042   0.516   1.464 -0.0664  0.5864  0.8560
   51MOL   H16813268   3.183   0.451   1.354  2.1272 -1.0325  2.1725
   51MOL   H16913269   3.144   0.330   1.589 -0.1246  1.5026 -0.8920
   51MOL   H17013270   3.182   0.428   1.722 -1.0479 -0.0993 -0.5076
   51MOL   C17113271   3.356   0.317   1.654  0.1457 -0.2104 -0.7883
   51MOL   C17213272   3.316   0.173   1.679 -0.1683 -0.1778  0.3238
   51MOL   C17313273   3.325   0.067   1.593  0.1060  0.7957 -0.5543
   51MOL   C17413274   3.402   0.080   1.467  0.3811  0.2042 -0.2879
   51MOL   C17513275   3.274   7.813   1.639  0.7963  1.0398  0.0859
   51MOL   H17613276   3.414   0.345   1.742 -1.8671  0.6750  0.2932
   51MOL   H17713277   3.419   0.330   1.567  0.1570 -0.2774 -0.7905
   51MOL   H17813278   3.276   0.161   1.778 -0.6865 -1.3791 -0.0211
   51MOL   H17913279   3.406   7.874   1.404  0.4924 -0.5947  0.8334
   51MOL   H18013280   3.507   0.095   1.493  0.5792 -0.1760 -0.8475
   51MOL   H18113281   3.370   0.169   1.413  0.5472  0.9241  0.7759
   51MOL   H18213282   3.253   7.827   1.745  0.4361  0.8110  0.0444
   51MOL   H18313283   3.346   7.731   1.633 -0.0593  0.2833  0.1206
   51MOL   C18413284   3.146   7.769   1.578  0.8621  0.0589 -0.2459
   51MOL   C18513285   3.077   7.646   1.634 -0.4137 -0.3290 -0.7203
   51MOL   C18613286   2.993   7.636   1.742  0.1949 -0.0953 -0.4012
   51MOL   C18713287   2.940   7.752   1.828  0.3081 -0.1830 -0.2769
   51MOL   C18813288   2.936   7.495   1.784 -0.4919  0.0795  0.5787
   51MOL   H18913289   3.172   7.752   1.473  2.4341  0.0170  0.1353
   51MOL   H19013290   3.073   7.850   1.580 -0.2156 -0.9026  0.1951
   51MOL   H19113291   3.094   7.556   1.577 -0.7998  0.4662 -2.1236
   51MOL   H19213292   2.899   7.725   1.924 -1.6581 -0.1818 -1.1013
   51MOL   H19313293   2.857   7.801   1.776 -0.0703  1.3455  1.7208
   51MOL   H19413294   3.016   7.830   1.842 -2.1228  2.7302 -2.5375
   51MOL   H19513295   2.963   7.481   1.889  0.3781 -1.5043  0.1652
   51MOL   H19613296   2.999   7.425   1.730 -1.2363  1.2256 -1.8467
   51MOL   C19713297   2.789   7.471   1.748 -0.1214 -0.3933  0.4968
   51MOL   C19813298   2.755   7.448   1.601 -0.0393  0.0422  0.4389
   51MOL   C19913299   2.695   7.535   1.518 -0.1136 -0.1959 -0.1620
   51MOL   C20013300   2.651   7.670   1.561  0.1333 -0.3668 -0.1772
   51MOL   C20113301   2.650   7.485   1.383 -0.3808  0.4607  0.4000
   51MOL   H20213302   2.722   7.545   1.791 -0.7960 -1.7505  1.8318
   51MOL   H20313303   2.758   7.387   1.811 -0.9600 -0.1698  0.3860
   51MOL   H20413304   2.784   7.350   1.567  1.2515  0.8819 -0.9272
   51MOL   H20513305   2.716   7.729   1.497 -0.7731 -0.2434 -1.0098
   51MOL   H20613306   2.660   7.698   1.666  0.8000 -2.7806  0.4382
   51MOL   H20713307   2.557   7.711   1.523 -0.8240  0.2376  2.7410
   51MOL   H20813308   2.733   7.436   1.333 -1.5476 -0.4455 -0.6955
   51MOL   H20913309   2.630   7.566   1.313 -5.4079 -2.3408 -1.7288
   51MOL   C21013310   2.537   7.380   1.387 -0.2377 -0.4810  0.3281
   51MOL   C21113311   2.529   7.286   1.273  0.5039  0.0653 -0.1499
   51MOL   C21213312   2.578   7.160   1.276  0.3558  0.1073  0.1767
   51MOL   C21313313   2.653   7.098   1.400  0.2570  0.3131 -0.2451
   51MOL   C21413314   2.593   7.090   1.147  0.1648  0.8019  0.9762
   51MOL   H21513315   2.436   7.420   1.386 -0.8441 -1.9802 -1.5083
   51MOL   H21613316   2.532   7.332   1.484 -1.5298  1.0336  1.0334
   51MOL   H21713317   2.487   7.321   1.180  0.3372  0.1482 -0.0417
   51MOL   H21813318   2.695   7.001   1.371 -1.1416  0.0218 -1.3278
   51MOL   H21913319   2.594   7.090   1.491  3.2208 -0.8589  1.6297
   51MOL   H22013320   2.739   7.159   1.427 -0.8091  0.6633  2.4759
   51MOL   H22113321   2.698   7.074   1.122  0.0685  1.6126  0.0529
   51MOL   H22213322   2.559   7.150   1.063 -0.2287  1.6782  1.7569
   51MOL   C22313323   2.525   6.957   1.146 -0.1976 -0.2572 -0.1196
   51MOL   C22413324   2.374   6.965   1.165 -0.3653 -0.7604 -0.4655
   51MOL   C22513325   2.302   6.944   1.275  0.5457  0.1701 -0.2862
   51MOL   C22613326   2.354   6.895   1.407 -0.0160 -0.6126 -0.0521
   51MOL   C22713327   2.151   6.958   1.277  0.9260 -0.2094  0.2923
   51MOL   H22813328   2.585   6.892   1.210  0.5729 -0.4900 -1.0603
   51MOL   H22913329   2.542   6.904   1.052 -1.0771 -1.5154  0.4146
   51MOL   H23013330   2.322   6.997   1.076  2.1327  1.8319 -1.0526
   51MOL   H23113331   2.459   6.865   1.414  0.1990  0.1438  0.0128
   51MOL   H23213332   2.291   6.813   1.441 -1.8322  0.4068 -0.8957
   51MOL   H23313333   2.348   6.978   1.478 -1.1990 -1.6731  1.1317
   51MOL   H23413334   2.110   6.871   1.329  3.1375 -0.4299  1.7410
   51MOL   H23513335   2.099   6.961   1.182  0.7294  1.9518  0.4652
   51MOL   C23613336   2.118   7.079   1.366  0.2075 -0.3432  0.1871
   51MOL   C23713337   1.973   7.118   1.372  0.1766  0.3354  0.9560
   51MOL   C23813338   1.920   7.186   1.468 -0.1613 -0.2990 -0.2148
   51MOL   C23913339   1.998   7.247   1.580  0.1483 -0.8371  1.1761
   51MOL   C24013340   1.772   7.224   1.478  1.1248  0.1087  0.5531
   51MOL   H24113341   2.189   7.160   1.351 -0.0233  0.0312  1.0596
   51MOL   H24213342   2.151   7.056   1.468  1.7998 -3.1863 -0.9070
   51MOL   H24313343   1.909   7.075   1.296  3.4730 -3.2565  0.0459
   51MOL   H24413344   1.969   7.352   1.589  1.9590 -0.3156  1.1606
   51MOL   H24513345   2.106   7.242   1.562  0.1023  1.4142  0.0456
   51MOL   H24613346   1.975   7.196   1.673 -0.5048 -2.0538  0.3624
   51MOL   H24713347   1.730   7.211   1.379  2.7395 -1.0978 -0.0042
   51MOL   H24813348   1.769   7.331   1.495 -3.3575  0.0801  0.5236
   51MOL   C24913349   1.675   7.145   1.574  0.2707 -0.2512  0.0753
   51MOL   C25013350   1.543   7.215   1.571 -0.3500 -0.4407 -0.1774
   51MOL   C25113351   1.419   7.166   1.542 -0.2783  0.4220  0.2183
   51MOL   C25213352   1.398   7.025   1.495 -0.4990 -0.3533  0.1253
   51MOL   C25313353   1.294   7.253   1.537  0.0625 -0.3310 -0.2751
   51MOL   H25413354   1.720   7.143   1.673 -0.1881 -1.2644  0.2749
   51MOL   H25513355   1.674   7.045   1.531 -1.8376  0.2816 -1.2480
   51MOL   H25613356   1.535   7.320   1.596 -1.7273 -0.0789 -2.0883
   51MOL   H25713357   1.299   6.988   1.523  0.5141 -1.4375  2.4716
   51MOL   H25813358   1.476   6.968   1.545 -0.9595  0.5403  1.9412
   51MOL   H25913359   1.408   7.015   1.387 -3.0976  1.0885 -0.3017
   51MOL   H26013360   1.259   7.275   1.436 -0.1447  0.4057 -0.0505
   51MOL   H26113361   1.321   7.346   1.587 -0.3379 -0.4182  0.1122
   51MOL   H26213362   1.205   7.219   1.590  0.0592  0.9269  0.5550
   52MOL     C113363   0.510   3.484   6.966 -0.8753 -0.3828 -0.0992
   52MOL     C213364   0.524   3.574   6.852 -0.6645  1.1567  0.0128
   52MOL     C313365   0.456   3.569   6.737  0.0664  0.1154  0.3561
   52MOL     C413366   0.347   3.466   6.710 -0.1937  0.2104  0.4518
   52MOL     C513367   0.479   3.674   6.625 -0.2957  0.2191  0.4436
   52MOL     H613368   0.605   3.491   7.018 -1.5911  1.6483  0.9628
   52MOL     H713369   0.448   3.525   7.045  1.8487 -0.2837  2.0577
   52MOL     H813370   0.584   3.660   6.878  1.5565  0.1779 -1.7875
   52MOL     H913371   0.334   3.446   6.604  0.7547  2.1393 -0.0335
   52MOL    H1013372   0.250   3.495   6.751 -1.3189 -1.9854 -0.5503
   52MOL    H1113373   0.368   3.366   6.749  0.2050  1.1230  2.6580
   52MOL    H1213374   0.504   3.631   6.528 -0.8392  0.1381  0.3385
   52MOL    H1313375   0.555   3.746   6.656 -0.2957  1.1892 -1.7131
   52MOL    H1413376   0.487   3.378   6.951  1.6701 -0.9275 -0.3824
   52MOL    C1513377   0.350   3.753   6.600 -0.3898 -0.2219 -0.1082
   52MOL    C1613378   0.372   3.858   6.491  0.1709  0.5128  0.2590
   52MOL    C1713379   0.390   3.989   6.518  0.6994  0.2094  0.4217
   52MOL    C1813380   0.393   4.051   6.653  0.5920  0.3319 -0.1822
   52MOL    C1913381   0.407   4.092   6.406  0.3544  1.0623 -0.6914
   52MOL    H2013382   0.305   3.795   6.689  3.4263 -0.9907  2.3157
   52MOL    H2113383   0.264   3.692   6.571  0.9248 -1.3326 -1.8507
   52MOL    H2213384   0.364   3.815   6.393 -0.7849  0.6514  0.2733
   52MOL    H2313385   0.471   4.126   6.667 -0.7224  1.1279  3.4574
   52MOL    H2413386   0.378   3.986   6.739  3.7074 -0.4018 -0.1411
   52MOL    H2513387   0.292   4.093   6.652 -0.1174 -1.2982  1.1906
   52MOL    H2613388   0.504   4.142   6.418  0.8065  0.0075  0.1539
   52MOL    H2713389   0.322   4.159   6.421 -1.2413 -0.9302 -0.6407
   52MOL    C2813390   0.406   4.044   6.262 -0.2439  0.6129 -0.0381
   52MOL    C2913391   0.466   4.156   6.173  0.0020  0.4272  0.2062
   52MOL    C3013392   0.400   4.258   6.114  0.5274  0.6630 -0.9790
   52MOL    C3113393   0.246   4.263   6.121 -0.4802  0.2041 -0.3288
   52MOL    C3213394   0.465   4.359   6.024 -0.0426  0.6661 -0.4948
   52MOL    H3313395   0.305   4.009   6.241  0.2824 -1.4734  0.7668
   52MOL    H3413396   0.461   3.950   6.255  0.1107  0.8734 -0.7236
   52MOL    H3513397   0.573   4.149   6.155  0.2264 -0.4726  1.7539
   52MOL    H3613398   0.207   4.205   6.205 -1.3425  0.9001 -0.2502
   52MOL    H3713399   0.195   4.228   6.031 -1.2701  0.4076  0.0392
   52MOL    H3813400   0.200   4.359   6.143 -0.9241  0.1807 -1.1347
   52MOL    H3913401   0.441   4.331   5.921  0.4384  2.4309 -1.1116
   52MOL    H4013402   0.569   4.343   6.051 -0.8671 -1.1636  1.7644
   52MOL    C4113403   0.419   4.504   6.046  0.8855  0.1841  0.0786
   52MOL    C4213404   0.506   4.598   5.962  0.0800  0.3603  0.2961
   52MOL    C4313405   0.472   4.665   5.854  0.5415 -0.5535 -0.6657
   52MOL    C4413406   0.337   4.662   5.790 -0.4769  0.4623  0.2391
   52MOL    C4513407   0.580   4.763   5.801  0.6373 -0.5363 -0.3721
   52MOL    H4613408   0.411   4.519   6.154 -0.5938 -1.4388  0.2323
   52MOL    H4713409   0.320   4.496   6.001  0.8760 -0.6686  0.2328
   52MOL    H4813410   0.603   4.613   6.007  1.1275 -1.2385 -1.3652
   52MOL    H4913411   0.347   4.681   5.683 -0.3140 -0.0374  0.1644
   52MOL    H5013412   0.284   4.737   5.849  0.5678  1.0301  0.4865
   52MOL    H5113413   0.294   4.563   5.794  0.5520  0.0798  2.3915
   52MOL    H5213414   0.596   4.721   5.702 -0.1242  0.2557 -0.8296
   52MOL    H5313415   0.677   4.764   5.853  0.0608  0.6162  0.7199
   52MOL    C5413416   0.526   4.908   5.805 -0.1998  0.2968 -0.4861
   52MOL    C5513417   0.622   5.023   5.776 -0.0612 -0.6959 -0.9325
   52MOL    C5613418   0.660   5.126   5.854  0.1569 -0.7603 -0.3705
   52MOL    C5713419   0.612   5.143   6.002  0.2314  0.4449  0.2100
   52MOL    C5813420   0.749   5.237   5.807  0.0679  0.3185  0.3045
   52MOL    H5913421   0.478   4.923   5.902  0.7592  1.2793 -0.1544
   52MOL    H6013422   0.454   4.911   5.724 -1.6800  0.1760  0.7898
   52MOL    H6113423   0.648   5.028   5.671 -0.0594 -0.3296 -0.9124
   52MOL    H6213424   0.518   5.197   5.998 -1.2794 -2.1886 -1.4023
   52MOL    H6313425   0.682   5.192   6.069  1.1041  0.7285 -0.9020
   52MOL    H6413426   0.599   5.046   6.050  1.8706 -0.7336 -1.6665
   52MOL    H6513427   0.791   5.214   5.709  0.7530 -0.3413  0.7506
   52MOL    H6613428   0.833   5.248   5.875 -0.2047  2.1529  0.3962
   52MOL    C6713429   0.672   5.369   5.803 -0.3557  0.3726  0.0010
   52MOL    C6813430   0.750   5.485   5.751  0.8875  0.4547  0.0948
   52MOL    C6913431   0.759   5.541   5.624 -0.6569 -0.8138  0.2813
   52MOL    C7013432   0.686   5.486   5.499 -0.4262 -0.2179 -0.1682
   52MOL    C7113433   0.844   5.663   5.594  0.4293 -0.5882 -0.3441
   52MOL    H7213434   0.643   5.392   5.906 -2.7991 -0.4054 -0.4805
   52MOL    H7313435   0.576   5.361   5.752  0.7509  2.1375 -2.4263
   52MOL    H7413436   0.801   5.531   5.834 -1.9416  0.7914  1.6917
   52MOL    H7513437   0.622   5.399   5.508  0.2265 -0.6496  0.3981
   52MOL    H7613438   0.761   5.477   5.420  0.8840  2.1688  0.7316
   52MOL    H7713439   0.628   5.573   5.469  0.2727  0.3148  0.0103
   52MOL    H7813440   0.870   5.714   5.686 -2.7660 -1.3106  1.0120
   52MOL    H7913441   0.783   5.733   5.537  0.3963  0.1245  0.5614
   52MOL    C8013442   0.977   5.632   5.517 -0.5176 -0.4320  0.7079
   52MOL    C8113443   1.064   5.749   5.478  0.1765 -0.8089  0.1054
   52MOL    C8213444   1.109   5.784   5.359  0.1044  0.7072 -0.4283
   52MOL    C8313445   1.063   5.704   5.230 -0.2149  0.4714  0.2645
   52MOL    C8413446   1.196   5.905   5.326  0.3227  0.4921 -0.1883
   52MOL    H8513447   0.954   5.572   5.429 -1.1468 -0.0157  0.5847
   52MOL    H8613448   1.033   5.566   5.583  1.7364 -1.3303 -1.9819
   52MOL    H8713449   1.092   5.810   5.562 -0.5419 -1.0128  0.4983
   52MOL    H8813450   1.087   5.751   5.135  0.3784  1.6985  1.0118
   52MOL    H8913451   0.954   5.694   5.231 -0.2073 -0.1063 -2.0905
   52MOL    H9013452   1.108   5.605   5.234  2.8953  1.8724  1.3100
   52MOL    H9113453   1.185   5.966   5.416 -1.8644 -0.2091  0.0454
   52MOL    H9213454   1.141   5.966   5.255 -2.4722 -1.0389  0.5844
   52MOL    C9313455   1.333   5.871   5.279 -0.2748 -0.5365 -0.4470
   52MOL    C9413456   1.435   5.987   5.288  0.1679 -0.6421  0.4139
   52MOL    C9513457   1.552   5.998   5.358  0.7719 -0.6649 -0.6063
   52MOL    C9613458   1.594   5.896   5.468  0.1368  0.2007  0.0666
   52MOL    C9713459   1.646   6.117   5.338  0.0806 -0.6899  0.0182
   52MOL    H9813460   1.331   5.837   5.176  1.6263 -0.9318 -0.3674
   52MOL    H9913461   1.378   5.792   5.340 -0.7420 -0.7105 -0.3280
   52MOL   H10013462   1.415   6.069   5.220 -1.6887 -1.0389  0.4363
   52MOL   H10113463   1.688   5.921   5.517  0.5534  2.3107 -1.7398
   52MOL   H10213464   1.590   5.791   5.437  1.9212  0.3297 -0.6354
   52MOL   H10313465   1.518   5.901   5.546  0.2187  0.8405  0.1087
   52MOL   H10413466   1.601   6.177   5.258  1.8906  0.9486  0.1933
   52MOL   H10513467   1.742   6.082   5.299 -0.4521  0.7495 -2.7088
   52MOL   C10613468   1.682   6.208   5.450  0.1227  0.2144  0.3789
   52MOL   C10713469   1.752   6.338   5.402 -0.1134  0.3237 -0.2317
   52MOL   C10813470   1.842   6.408   5.476 -1.0918 -0.2386 -0.2206
   52MOL   C10913471   1.880   6.375   5.612 -0.2498 -0.6763  0.3468
   52MOL   C11013472   1.920   6.524   5.413  0.6640  0.4681  0.3967
   52MOL   H11113473   1.736   6.148   5.523 -0.9432 -1.1930  0.0435
   52MOL   H11213474   1.593   6.242   5.503 -0.5324  0.5610 -0.9144
   52MOL   H11313475   1.716   6.383   5.310  0.3774  0.2514 -0.4582
   52MOL   H11413476   1.869   6.267   5.622  1.1240 -0.8984 -0.3503
   52MOL   H11513477   1.817   6.434   5.678  0.7354 -1.3444  1.9081
   52MOL   H11613478   1.984   6.402   5.627 -0.8533  1.4390  0.8608
   52MOL   H11713479   1.896   6.528   5.307 -1.6636 -3.3358  0.6919
   52MOL   H11813480   2.027   6.511   5.428  0.4157 -1.1453  0.8668
   52MOL   C11913481   1.855   6.665   5.453  0.3277  0.2767 -0.0812
   52MOL   C12013482   1.876   6.776   5.352  0.1439  0.4713 -0.1850
   52MOL   C12113483   1.898   6.904   5.383  0.1102 -0.4786 -0.0713
   52MOL   C12213484   1.895   6.964   5.527 -0.5060 -0.1159 -0.2655
   52MOL   C12313485   1.923   7.005   5.272 -0.4326 -0.3614  0.3831
   52MOL   H12413486   1.882   6.688   5.556  0.6661 -2.0222  0.3535
   52MOL   H12513487   1.746   6.660   5.458  0.3566  0.3586  0.6728
   52MOL   H12613488   1.876   6.753   5.246  1.8321  0.4528 -0.1944
   52MOL   H12713489   1.873   6.893   5.607 -1.6032  1.7687  1.1479
   52MOL   H12813490   1.817   7.040   5.537 -0.6682 -0.2146 -0.7799
   52MOL   H12913491   1.991   7.008   5.552  0.0432 -1.2191 -0.4157
   52MOL   H13013492   1.931   6.958   5.174  1.6591  2.3267 -0.8097
   52MOL   H13113493   2.017   7.055   5.292 -0.5327 -0.7396  1.8149
   52MOL   C13213494   1.825   7.121   5.251  0.1410  0.2417 -0.5756
   52MOL   C13313495   1.680   7.085   5.204  0.4892  0.2868  0.2204
   52MOL   C13413496   1.638   7.113   5.076  0.1114  0.4406  0.0003
   52MOL   C13513497   1.729   7.189   4.981  0.2700  0.0948  0.1128
   52MOL   C13613498   1.500   7.074   5.030 -0.6716 -0.5926 -0.5684
   52MOL   H13713499   1.872   7.195   5.186  0.9510 -0.1972 -0.4979
   52MOL   H13813500   1.806   7.166   5.348 -0.2611  1.5838 -1.2729
   52MOL   H13913501   1.616   7.030   5.271 -3.7826  2.6485 -1.7386
   52MOL   H14013502   1.675   7.208   4.888 -0.9484  0.4587  0.8892
   52MOL   H14113503   1.830   7.149   4.971 -1.1146 -3.2258 -1.1773
   52MOL   H14213504   1.740   7.290   5.022 -0.7179 -0.4378  1.7285
   52MOL   H14313505   1.449   6.999   5.090 -0.7015  1.0808  1.5363
   52MOL   H14413506   1.511   7.027   4.932 -2.3774 -1.8940 -0.1606
   52MOL   C14513507   1.402   7.193   5.032 -0.2070  0.1304  0.2063
   52MOL   C14613508   1.279   7.165   4.953 -0.0341 -0.3788  0.2556
   52MOL   C14713509   1.267   7.187   4.817  0.4293  0.2253 -0.2215
   52MOL   C14813510   1.377   7.249   4.730  0.1906 -0.6723 -0.1616
   52MOL   C14913511   1.129   7.156   4.756  0.0893 -0.3987 -0.1411
   52MOL   H15013512   1.451   7.280   4.988 -0.4883 -0.3051 -0.9917
   52MOL   H15113513   1.382   7.219   5.136  1.1044 -1.9541  1.0305
   52MOL   H15213514   1.193   7.139   5.013  1.5703 -0.5172  2.5399
   52MOL   H15313515   1.351   7.350   4.699  2.2427 -0.8881 -2.7756
   52MOL   H15413516   1.391   7.188   4.641 -1.3982 -0.0490 -0.8539
   52MOL   H15513517   1.478   7.245   4.772 -0.0663 -0.0588  0.5031
   52MOL   H15613518   1.094   7.245   4.704  1.0151 -0.3774 -0.7496
   52MOL   H15713519   1.051   7.131   4.827 -1.4316  0.2825 -1.5356
   52MOL   C15813520   1.134   7.049   4.644  0.0631 -0.1445  0.2709
   52MOL   C15913521   1.141   6.906   4.693  0.0780 -0.2259 -0.4252
   52MOL   C16013522   1.039   6.822   4.715 -0.0948  0.3036 -0.4275
   52MOL   C16113523   0.895   6.853   4.690  0.0762  0.3749 -0.5807
   52MOL   C16213524   1.058   6.678   4.764 -0.2038 -0.6660 -0.4264
   52MOL   H16313525   1.209   7.064   4.566 -3.4500  2.3374 -2.7830
   52MOL   H16413526   1.037   7.052   4.594  1.3218  0.7329 -2.1895
   52MOL   H16513527   1.245   6.884   4.715 -0.1378 -0.8744 -0.0586
   52MOL   H16613528   0.883   6.940   4.626  1.4506  0.4594 -0.7380
   52MOL   H16713529   0.836   6.858   4.781 -2.0718 -1.8359 -1.7855
   52MOL   H16813530   0.861   6.774   4.623 -0.6890 -0.6614  1.0134
   52MOL   H16913531   0.974   6.647   4.826 -0.2542  0.3703  0.0346
   52MOL   H17013532   1.154   6.677   4.816 -0.1793  0.4300 -0.4464
   52MOL   C17113533   1.049   6.568   4.660 -0.6398  0.7970  0.4805
   52MOL   C17213534   1.168   6.583   4.557 -0.0450  0.4639  0.0535
   52MOL   C17313535   1.161   6.592   4.424 -0.5362 -0.0141  0.2524
   52MOL   C17413536   1.029   6.612   4.353  0.3524 -0.3650  0.7500
   52MOL   C17513537   1.281   6.586   4.338 -0.1642  0.2662 -0.2514
   52MOL   H17613538   0.949   6.557   4.618  0.2676 -0.3013 -1.4355
   52MOL   H17713539   1.064   6.474   4.712 -0.1038 -0.6370 -2.2051
   52MOL   H17813540   1.265   6.570   4.602 -0.7169 -0.6961  1.1985
   52MOL   H17913541   1.037   6.576   4.251  0.8261  2.3324 -0.2077
   52MOL   H18013542   1.030   6.720   4.335 -2.5489 -0.4403 -0.1654
   52MOL   H18113543   0.949   6.562   4.408 -0.4267 -0.7359 -0.7091
   52MOL   H18213544   1.268   6.521   4.252  0.2003  0.0481 -0.1397
   52MOL   H18313545   1.364   6.539   4.391 -1.0304  0.8809  1.6900
   52MOL   C18413546   1.322   6.724   4.276 -0.6322 -0.1968  0.0376
   52MOL   C18513547   1.455   6.719   4.200  0.5453 -0.2386 -0.6991
   52MOL   C18613548   1.472   6.724   4.067  0.7998  0.1366  0.0210
   52MOL   C18713549   1.365   6.702   3.960  0.3714  0.2629 -0.2708
   52MOL   C18813550   1.615   6.741   4.008 -0.2682 -0.4889 -0.2988
   52MOL   H18913551   1.333   6.805   4.348  0.7444  0.2034 -0.6104
   52MOL   H19013552   1.245   6.769   4.213 -0.8280 -0.4590  0.0886
   52MOL   H19113553   1.547   6.723   4.257  0.0144 -1.3079  0.2529
   52MOL   H19213554   1.296   6.619   3.977  0.1954  0.6904  1.1469
   52MOL   H19313555   1.416   6.695   3.863 -1.4294 -1.5723 -1.1197
   52MOL   H19413556   1.308   6.794   3.946  0.2451  0.1931 -0.2166
   52MOL   H19513557   1.632   6.663   3.933  3.3168  0.8149 -0.9220
   52MOL   H19613558   1.684   6.711   4.087 -1.1217 -1.0312  0.2529
   52MOL   C19713559   1.638   6.877   3.951 -0.3483 -0.3009  0.0394
   52MOL   C19813560   1.783   6.890   3.905 -0.8176  0.2460  0.2396
   52MOL   C19913561   1.853   7.002   3.918 -1.1193  0.0834 -0.2626
   52MOL   C20013562   1.796   7.131   3.973 -0.2429 -0.2322  0.1983
   52MOL   C20113563   2.000   7.003   3.874 -0.1883 -0.5056  0.1212
   52MOL   H20213564   1.625   6.946   4.034  1.2731 -1.0270  0.9178
   52MOL   H20313565   1.582   6.905   3.861 -3.5595  0.5782  2.2386
   52MOL   H20413566   1.832   6.812   3.849 -3.1875 -1.7503  0.8740
   52MOL   H20513567   1.812   7.221   3.912 -2.0930  0.2247  0.3746
   52MOL   H20613568   1.840   7.157   4.069  1.1914 -2.5358  0.1952
   52MOL   H20713569   1.687   7.132   3.980 -0.2586  0.4487 -0.0974
   52MOL   H20813570   2.042   6.902   3.869 -1.6590 -1.1160 -0.0864
   52MOL   H20913571   2.059   7.058   3.947 -0.6766 -2.1097  1.7860
   52MOL   C21013572   2.024   7.079   3.743  0.5585  0.3432  0.2743
   52MOL   C21113573   1.954   7.019   3.624 -0.1829  0.0151  0.0140
   52MOL   C21213574   1.997   7.004   3.497  0.5373 -0.3643 -0.4356
   52MOL   C21313575   2.137   7.041   3.446 -0.3788 -0.3738 -0.1779
   52MOL   C21413576   1.904   6.944   3.392  0.6832  0.2340  0.2562
   52MOL   H21513577   2.131   7.081   3.723  0.5536  2.1233  0.3925
   52MOL   H21613578   1.985   7.180   3.749  0.4529  0.3619 -0.6284
   52MOL   H21713579   1.852   6.994   3.650  0.2117 -0.7802  0.8198
   52MOL   H21813580   2.224   6.978   3.464 -0.5392 -0.9360 -1.3365
   52MOL   H21913581   2.169   7.139   3.482  2.8455 -1.0519 -1.0419
   52MOL   H22013582   2.126   7.050   3.338  1.9530 -2.1137 -0.5969
   52MOL   H22113583   1.913   7.006   3.302 -0.9796  1.7647  1.1242
   52MOL   H22213584   1.800   6.943   3.424  0.1048 -2.7137 -1.5365
   52MOL   C22313585   1.952   6.800   3.353  0.5080 -0.1227  0.1594
   52MOL   C22413586   1.877   6.756   3.230  0.6095  0.9017  1.0168
   52MOL   C22513587   1.795   6.650   3.224 -0.3899 -0.3152 -0.2757
   52MOL   C22613588   1.762   6.567   3.344  0.8418  0.0083  0.1355
   52MOL   C22713589   1.724   6.621   3.090  0.7087 -0.5539 -0.4294
   52MOL   H22813590   1.927   6.729   3.431 -1.1850 -1.3194 -1.4340
   52MOL   H22913591   2.055   6.795   3.316 -0.2218 -0.9431 -1.8268
   52MOL   H23013592   1.893   6.812   3.139 -0.6915  1.9338  1.3990
   52MOL   H23113593   1.857   6.531   3.384 -0.1181 -2.0896  0.6000
   52MOL   H23213594   1.699   6.484   3.313  0.1097  0.3600  0.6958
   52MOL   H23313595   1.722   6.618   3.431 -1.4764  1.1722 -1.5523
   52MOL   H23413596   1.740   6.513   3.085  2.1818 -0.2916 -2.0581
   52MOL   H23513597   1.784   6.651   3.003 -1.0040 -1.5301 -1.9949
   52MOL   C23613598   1.582   6.646   3.084 -0.4057  0.6440  0.0526
   52MOL   C23713599   1.557   6.797   3.071  0.0655  0.4241 -0.7223
   52MOL   C23813600   1.479   6.879   3.151 -0.4413 -0.8733  0.4938
   52MOL   C23913601   1.411   6.837   3.280  0.3090  0.2456 -0.3145
   52MOL   C24013602   1.457   7.024   3.106  0.0871  0.3725  0.1778
   52MOL   H24113603   1.537   6.610   3.176 -2.7745 -0.8476 -1.6106
   52MOL   H24213604   1.529   6.588   3.009 -0.0580  0.2881  0.0817
   52MOL   H24313605   1.598   6.845   2.983  1.9695 -1.5557 -0.9434
   52MOL   H24413606   1.363   6.741   3.265 -1.2717  0.9008  0.3986
   52MOL   H24513607   1.330   6.893   3.327 -1.0953 -1.0751 -1.1240
   52MOL   H24613608   1.502   6.836   3.339  1.5835  0.1754 -2.2409
   52MOL   H24713609   1.357   7.044   3.068  0.1770  2.2351  0.8940
   52MOL   H24813610   1.513   7.049   3.015  0.8541  2.3217  1.1537
   52MOL   C24913611   1.488   7.136   3.206  0.3963  0.7008  0.2348
   52MOL   C25013612   1.425   7.263   3.160 -0.8927 -0.0690 -0.1253
   52MOL   C25113613   1.319   7.318   3.207  0.7631  0.3979  0.3738
   52MOL   C25213614   1.243   7.249   3.315 -0.7529  0.5233  0.5161
   52MOL   C25313615   1.266   7.460   3.167  0.1463  0.0507 -0.1026
   52MOL   H25413616   1.595   7.155   3.214  0.4866 -0.3703  1.7162
   52MOL   H25513617   1.452   7.094   3.300 -1.6276  1.5017 -0.1640
   52MOL   H25613618   1.479   7.324   3.088 -1.5214  0.7148  0.0637
   52MOL   H25713619   1.140   7.285   3.325 -0.6483  0.4042  2.1237
   52MOL   H25813620   1.278   7.289   3.410 -0.3199 -0.5108  0.8041
   52MOL   H25913621   1.227   7.141   3.316 -1.1074  0.5773  1.0691
   52MOL   H26013622   1.319   7.510   3.086 -0.9903  1.9403  0.2972
   52MOL   H26113623   1.273   7.516   3.260 -1.8516 -0.2069  0.2450
   52MOL   H26213624   1.160   7.462   3.141  0.0325  1.0010  0.4350
   53MOL     C113625   4.469   0.122   5.200 -0.0841  0.3036  0.7928
   53MOL     C213626   4.565   0.120   5.323 -0.5569 -0.0779  0.1954
   53MOL     C313627   4.523   0.140   5.450 -0.4466 -0.0708  0.0933
   53MOL     C413628   4.378   0.171   5.482 -1.4332 -0.4729  0.4279
   53MOL     C513629   4.615   0.112   5.571  0.2861  0.3449 -0.1836
   53MOL     H613630   4.397   0.203   5.208  0.2082  0.5740  0.6598
   53MOL     H713631   4.527   0.138   5.110  0.4545 -0.3442  1.0204
   53MOL     H813632   4.665   0.085   5.303  1.1753  4.1757  0.9173
   53MOL     H913633   4.356   0.136   5.583 -0.3001  1.2426  1.2881
   53MOL    H1013634   4.307   0.118   5.418 -2.5529 -0.0030  1.2656
   53MOL    H1113635   4.367   0.279   5.488 -0.6309 -0.4366  1.3177
   53MOL    H1213636   4.705   0.073   5.523  0.7680  1.2083 -0.0068
   53MOL    H1313637   4.569   0.042   5.641  2.2291  0.7140  1.5359
   53MOL    H1413638   4.421   0.026   5.177 -1.0830  0.7406  1.0298
   53MOL    C1513639   4.635   0.242   5.643 -0.1603  0.4173 -0.4014
   53MOL    C1613640   4.716   0.226   5.768  0.1635 -1.1011 -0.4101
   53MOL    C1713641   4.831   0.291   5.809 -0.2570 -0.3135  0.5978
   53MOL    C1813642   4.911   0.387   5.723  0.4177 -0.4608 -0.6907
   53MOL    C1913643   4.900   0.250   5.944  0.3947  0.0857  0.3922
   53MOL    H2013644   4.544   0.289   5.679 -0.6475 -0.8893  0.1125
   53MOL    H2113645   4.683   0.304   5.568 -0.0748  0.2112 -0.5154
   53MOL    H2213646   4.673   0.151   5.833  0.6222 -0.6954  0.3687
   53MOL    H2313647   4.976   0.442   5.790 -1.5984  0.3419  0.6454
   53MOL    H2413648   4.851   0.457   5.665 -0.4384  0.8018  1.6516
   53MOL    H2513649   4.981   0.341   5.653  1.1752  0.4379 -0.5110
   53MOL    H2613650   4.999   0.205   5.945 -0.5113 -1.9567  1.1113
   53MOL    H2713651   4.835   0.177   5.992 -1.7713  1.8144  0.2054
   53MOL    C2813652   4.906   0.371   6.046 -0.3909  0.3491  0.0148
   53MOL    C2913653   4.985   0.340   6.178 -0.1110  0.0397  0.1746
   53MOL    C3013654   4.933   0.299   6.295 -0.0492 -0.1123  0.2338
   53MOL    C3113655   4.789   0.264   6.315  0.3595 -0.2855 -0.4333
   53MOL    C3213656   5.025   0.270   6.416  0.6046 -0.3544  0.2018
   53MOL    H3313657   4.810   0.421   6.062  0.1520  0.6859  2.2879
   53MOL    H3413658   4.969   0.447   5.999 -1.9683  1.7593  0.1056
   53MOL    H3513659   5.092   0.358   6.182 -0.3391  1.7922 -0.9331
   53MOL    H3613660   4.771   0.159   6.336 -0.0742  0.2283  1.9290
   53MOL    H3713661   4.717   0.287   6.236 -0.8372  0.3565  0.8177
   53MOL    H3813662   4.751   0.328   6.395  0.4489 -0.8955  0.1001
   53MOL    H3913663   4.981   0.303   6.510 -1.7366 -0.2266 -0.9094
   53MOL    H4013664   5.116   0.331   6.420  0.5331 -0.2594  0.3868
   53MOL    C4113665   5.063   0.126   6.439  0.1908  0.8422 -0.4605
   53MOL    C4213666   5.170   0.095   6.545  0.3760 -0.8057 -0.8098
   53MOL    C4313667   5.270   0.003   6.517  0.1063  0.1977  0.1940
   53MOL    C4413668   5.300   7.815   6.389  0.3116 -0.2262  0.9122
   53MOL    C4513669   5.362   7.844   6.629  0.3563  0.8855  0.0147
   53MOL    H4613670   5.056   0.075   6.342  0.6350  1.1737 -0.6651
   53MOL    H4713671   4.984   0.075   6.496  1.0286 -0.3540 -0.3501
   53MOL    H4813672   5.159   0.130   6.646  1.6668 -0.7592 -0.6799
   53MOL    H4913673   5.274   7.710   6.403 -1.1790  0.0183  0.0675
   53MOL    H5013674   5.407   7.815   6.367  0.7692  1.1426  3.0492
   53MOL    H5113675   5.242   7.862   6.309  1.4678  1.0060  0.7904
   53MOL    H5213676   5.331   0.025   6.711 -1.1088 -0.2816  0.3835
   53MOL    H5313677   5.464   7.878   6.609 -0.1498  1.8315 -0.9492
   53MOL    C5413678   5.361   7.697   6.659  0.7602 -0.6945  0.2168
   53MOL    C5513679   5.443   7.672   6.784  0.2936 -0.4035  0.3758
   53MOL    C5613680   5.576   7.655   6.804 -0.3073  0.0767 -0.3474
   53MOL    C5713681   5.674   7.634   6.695 -0.0783  0.2390  0.5097
   53MOL    C5813682   5.633   7.665   6.951  0.8652  0.3933 -0.0550
   53MOL    H5913683   5.393   7.650   6.566 -0.1606  1.2689 -1.1179
   53MOL    H6013684   5.261   7.656   6.675  0.6398 -0.4248  0.1427
   53MOL    H6113685   5.382   7.695   6.870 -0.6243 -1.1056 -0.0887
   53MOL    H6213686   5.635   7.659   6.596 -0.0435 -1.2355  0.1082
   53MOL    H6313687   5.703   7.529   6.689 -2.1645 -0.3552  0.6479
   53MOL    H6413688   5.767   7.686   6.718  0.9145 -0.4239 -1.8960
   53MOL    H6513689   5.558   7.727   7.001 -1.4519 -2.8809  0.6679
   53MOL    H6613690   5.725   7.724   6.954  1.0673  0.1111 -0.7293
   53MOL    C6713691   5.669   7.517   7.013  1.0004 -1.0815 -0.4570
   53MOL    C6813692   5.802   7.456   6.977  0.2755 -0.4264  0.2110
   53MOL    C6913693   5.851   7.335   7.008 -0.0580  0.3157 -0.4106
   53MOL    C7013694   5.777   7.238   7.097 -0.7042  0.8000 -0.5550
   53MOL    C7113695   5.981   7.287   6.950 -0.4204  0.0018  0.5334
   53MOL    H7213696   5.593   7.452   6.970 -0.5220  0.1719  0.2898
   53MOL    H7313697   5.655   7.522   7.121  2.9666 -0.7414 -0.2078
   53MOL    H7413698   5.858   7.526   6.916  0.0236 -1.5793 -1.3700
   53MOL    H7513699   5.675   7.267   7.120 -0.6381  0.0481  0.6889
   53MOL    H7613700   5.836   7.218   7.187  0.1812 -2.7694 -1.8319
   53MOL    H7713701   5.762   7.141   7.049  3.2746 -1.2040  1.9423
   53MOL    H7813702   6.050   7.244   7.022 -0.0135  0.4019  0.3856
   53MOL    H7913703   6.031   7.381   6.927 -1.4443  0.7164  1.2019
   53MOL    C8013704   5.964   7.179   6.836 -0.0490 -0.2194  0.6227
   53MOL    C8113705   5.847   7.213   6.737 -0.0494  0.4534 -0.1245
   53MOL    C8213706   5.727   7.149   6.715  0.1854 -0.0248  0.0146
   53MOL    C8313707   5.694   7.015   6.762  0.1578  0.9608 -0.1425
   53MOL    C8413708   5.626   7.230   6.629 -1.1085  0.0869  0.1956
   53MOL    H8513709   5.952   7.079   6.877 -0.9476 -1.0436 -1.5693
   53MOL    H8613710   6.054   7.166   6.777  0.1397 -0.6347  0.9993
   53MOL    H8713711   5.859   7.304   6.679 -1.0900  1.6250  1.4597
   53MOL    H8813712   5.585   7.008   6.765  0.1702  1.1734  0.9148
   53MOL    H8913713   5.726   6.995   6.864 -0.0535  2.0153  0.1328
   53MOL    H9013714   5.726   6.934   6.695  0.0984  1.1909 -0.4473
   53MOL    H9113715   5.619   7.162   6.545  3.0916 -1.9868  1.3677
   53MOL    H9213716   5.665   7.322   6.585  1.8367 -1.2934 -0.2134
   53MOL    C9313717   5.481   7.262   6.679  0.2575  0.4933  0.1953
   53MOL    C9413718   5.377   7.280   6.565 -0.7300 -0.5711 -0.3786
   53MOL    C9513719   5.238   7.290   6.574  0.2283  0.1954 -0.3469
   53MOL    C9613720   5.169   7.260   6.708 -0.1959 -0.8429 -0.8257
   53MOL    C9713721   5.156   7.313   6.455  0.4848 -0.3102 -0.1742
   53MOL    H9813722   5.494   7.346   6.747  0.2267  0.6497  0.0089
   53MOL    H9913723   5.440   7.182   6.741  1.0655  1.1086  1.5373
   53MOL   H10013724   5.422   7.301   6.469  1.4729 -0.7009  0.5728
   53MOL   H10113725   5.075   7.315   6.711  0.3448  0.0170  1.5133
   53MOL   H10213726   5.227   7.300   6.791 -1.1361  0.4154 -0.7598
   53MOL   H10313727   5.143   7.156   6.725 -0.7155 -0.1547  3.0262
   53MOL   H10413728   5.067   7.253   6.477 -0.3672  1.0300  0.0542
   53MOL   H10513729   5.199   7.265   6.367  1.5012 -0.5291  0.4266
   53MOL   C10613730   5.128   7.463   6.430  0.1860 -0.2443 -0.1951
   53MOL   C10713731   5.027   7.497   6.319 -0.3879  0.8767  0.2464
   53MOL   C10813732   4.927   7.590   6.334 -0.2422  0.1262  0.4796
   53MOL   C10913733   4.898   7.665   6.461  0.4538  0.1351  0.7407
   53MOL   C11013734   4.820   7.608   6.222 -0.3440 -0.0607  0.5142
   53MOL   H11113735   5.223   7.508   6.402  0.5582 -1.3794 -0.8065
   53MOL   H11213736   5.095   7.498   6.528  1.4286  2.1622 -0.6107
   53MOL   H11313737   5.022   7.437   6.229 -0.4605  0.7062  0.3641
   53MOL   H11413738   4.873   7.602   6.546 -0.7921 -1.4462 -0.7773
   53MOL   H11513739   4.818   7.737   6.443 -0.2181 -0.8580 -0.3106
   53MOL   H11613740   4.988   7.722   6.482  0.1865  1.8421 -2.3692
   53MOL   H11713741   4.716   7.605   6.254 -0.1595  2.6996  1.4885
   53MOL   H11813742   4.828   7.520   6.158  1.4348 -0.0920  0.7441
   53MOL   C11913743   4.844   7.731   6.139  0.7670 -0.7547  0.0342
   53MOL   C12013744   4.782   7.721   6.001 -0.1561  0.6698  0.4735
   53MOL   C12113745   4.839   7.704   5.876  0.5033  0.5474  0.0942
   53MOL   C12213746   4.985   7.696   5.857 -0.2215  0.1854  0.3729
   53MOL   C12313747   4.746   7.710   5.754 -0.4660 -0.4268  0.2939
   53MOL   H12413748   4.952   7.745   6.132  0.4285  1.8298 -0.1973
   53MOL   H12513749   4.807   7.816   6.196 -2.0583 -1.3897 -0.8151
   53MOL   H12613750   4.674   7.733   6.000 -0.1999  0.2516 -0.3403
   53MOL   H12713751   5.038   7.631   5.927  1.0247 -2.4815 -2.8740
   53MOL   H12813752   5.033   7.793   5.842  1.0582 -0.7985 -2.3565
   53MOL   H12913753   5.006   7.648   5.761 -1.7775  1.6691 -0.7293
   53MOL   H13013754   4.778   7.797   5.697  3.0930 -0.4643  2.0959
   53MOL   H13113755   4.641   7.729   5.773 -0.0274  0.8783  1.4417
   53MOL   C13213756   4.760   7.593   5.657 -0.6080 -0.3668 -0.0694
   53MOL   C13313757   4.663   7.610   5.546  0.5418  0.3837  0.4145
   53MOL   C13413758   4.557   7.535   5.514  0.5135  0.7215 -0.1540
   53MOL   C13513759   4.507   7.410   5.582  0.4172 -0.0900 -0.3577
   53MOL   C13613760   4.472   7.588   5.395 -0.3537 -0.3201  0.1027
   53MOL   H13713761   4.733   7.504   5.712 -3.8795  1.4182  1.3591
   53MOL   H13813762   4.860   7.578   5.615 -1.2622 -0.2850 -1.7082
   53MOL   H13913763   4.694   7.686   5.477  1.2195 -1.1506 -1.0127
   53MOL   H14013764   4.585   7.339   5.609 -0.1177 -0.1848  0.9480
   53MOL   H14113765   4.449   7.352   5.510  0.0450 -1.8456  1.3239
   53MOL   H14213766   4.440   7.436   5.663  0.4336  2.6683 -1.1688
   53MOL   H14313767   4.472   7.697   5.396  1.7816 -0.2477 -2.2565
   53MOL   H14413768   4.368   7.563   5.415 -0.1117 -1.1532  0.3634
   53MOL   C14513769   4.503   7.530   5.260 -0.7841 -0.4149 -0.4118
   53MOL   C14613770   4.388   7.552   5.160  0.2958  0.2342 -0.3624
   53MOL   C14713771   4.398   7.634   5.050 -0.3049  0.3823  0.3035
   53MOL   C14813772   4.529   7.694   4.994 -0.4093  0.5125 -0.9454
   53MOL   C14913773   4.284   7.636   4.949 -0.1830  0.5308 -0.0990
   53MOL   H15013774   4.511   7.422   5.272 -0.2172 -0.4094 -0.7167
   53MOL   H15113775   4.598   7.565   5.220 -0.2956 -1.0010  0.2244
   53MOL   H15213776   4.302   7.491   5.182  0.4312 -0.0652 -0.6780
   53MOL   H15313777   4.538   7.802   5.002 -0.1341  0.3844  0.5059
   53MOL   H15413778   4.527   7.681   4.885 -1.2617  1.7614 -1.0876
   53MOL   H15513779   4.619   7.646   5.031 -0.6667  1.2459  0.6616
   53MOL   H15613780   4.197   7.585   4.989  0.8649 -0.6326  0.7608
   53MOL   H15713781   4.322   7.581   4.862  1.0289  1.3653 -0.1163
   53MOL   C15813782   4.248   7.768   4.889  0.1692  0.3056  0.1945
   53MOL   C15913783   4.134   7.756   4.790 -0.7900  0.2699  0.1904
   53MOL   C16013784   4.027   7.835   4.780 -0.1010 -0.2967  0.3392
   53MOL   C16113785   4.017   0.090   4.855  0.6300  0.2135 -0.0035
   53MOL   C16213786   3.905   7.803   4.693  0.3411  0.5829  0.1634
   53MOL   H16313787   4.323   7.818   4.828 -2.5184  1.1575 -2.5805
   53MOL   H16413788   4.231   7.833   4.974  0.3532  0.1673  0.3365
   53MOL   H16513789   4.129   7.661   4.740  0.0188  0.3234 -0.0073
   53MOL   H16613790   4.039   0.172   4.788  0.8069  0.9147  0.8955
   53MOL   H16713791   4.091   0.092   4.935  0.5459 -0.7228  0.1090
   53MOL   H16813792   3.915   0.102   4.891  0.6394 -0.3584  0.2282
   53MOL   H16913793   3.935   7.746   4.605  0.8392  2.0284 -0.6069
   53MOL   H17013794   3.860   0.016   4.667 -0.3849  0.7827  2.0507
   53MOL   C17113795   3.797   7.733   4.771  0.0773  0.1616  0.4626
   53MOL   C17213796   3.676   7.730   4.676  1.0247  1.4499  0.6764
   53MOL   C17313797   3.585   7.630   4.647  0.7583  0.2261 -0.0785
   53MOL   C17413798   3.600   7.497   4.705 -0.5134 -0.6409  0.5182
   53MOL   C17513799   3.489   7.640   4.537 -0.0876 -0.0737  0.4635
   53MOL   H17613800   3.762   7.787   4.858 -0.9311  1.3546 -0.6589
   53MOL   H17713801   3.826   7.632   4.800  2.1777  0.7659  0.5679
   53MOL   H17813802   3.649   7.826   4.634  1.9638  2.7699  2.9913
   53MOL   H17913803   3.702   7.458   4.704 -0.6621 -1.0106 -0.7239
   53MOL   H18013804   3.543   7.430   4.639  0.2414 -0.0990 -0.6999
   53MOL   H18113805   3.557   7.503   4.805 -0.6510  1.1494  0.3682
   53MOL   H18213806   3.463   7.746   4.526  1.6419  0.5677  2.1262
   53MOL   H18313807   3.397   7.588   4.562  0.1332 -0.1291  1.1921
   53MOL   C18413808   3.543   7.586   4.408  0.0865  0.6221  0.2796
   53MOL   C18513809   3.439   7.574   4.301  0.3621  0.2949  0.2747
   53MOL   C18613810   3.345   7.478   4.289 -0.7036  0.5642  0.2312
   53MOL   C18713811   3.328   7.366   4.390  0.2027  0.2960 -0.1265
   53MOL   C18813812   3.241   7.475   4.179 -0.0096  0.1984  0.5037
   53MOL   H18913813   3.593   7.488   4.409  0.2510  0.6829 -1.3522
   53MOL   H19013814   3.624   7.654   4.383  0.1994  0.7082  0.8818
   53MOL   H19113815   3.442   7.661   4.237  1.9683 -0.0791 -0.1620
   53MOL   H19213816   3.301   7.264   4.363 -2.3876  0.3520  2.0449
   53MOL   H19313817   3.261   7.404   4.467  0.1260 -0.0009 -0.0484
   53MOL   H19413818   3.417   7.357   4.452  1.6289 -2.0546 -2.4273
   53MOL   H19513819   3.233   7.567   4.121  2.8831  0.2472  0.1405
   53MOL   H19613820   3.139   7.461   4.216 -0.8828  1.8749 -1.1319
   53MOL   C19713821   3.265   7.357   4.076 -0.8981  0.0162  0.8986
   53MOL   C19813822   3.143   7.341   3.982 -0.4620 -0.6726 -0.4469
   53MOL   C19913823   3.076   7.230   3.940 -0.2188  0.0828  0.2821
   53MOL   C20013824   3.104   7.093   3.998 -0.2919  0.3535 -0.2174
   53MOL   C20113825   2.972   7.233   3.831  0.1674  0.2847 -0.2408
   53MOL   H20213826   3.283   7.267   4.134 -2.3990  1.1137  3.1461
   53MOL   H20313827   3.359   7.364   4.022 -0.5826  1.6121  1.6273
   53MOL   H20413828   3.125   7.428   3.921  4.6152  1.6323  1.0943
   53MOL   H20513829   3.025   7.018   3.992  0.3189 -0.2572 -0.7251
   53MOL   H20613830   3.125   7.114   4.103 -2.8017  0.3359  0.3233
   53MOL   H20713831   3.192   7.052   3.948  0.0029 -0.4188  0.9248
   53MOL   H20813832   2.989   7.147   3.767 -0.0780  0.2925 -0.3171
   53MOL   H20913833   2.966   7.324   3.772 -0.7392 -1.0722 -2.2833
   53MOL   C21013834   2.830   7.204   3.881 -0.9814 -0.7336 -0.3034
   53MOL   C21113835   2.735   7.181   3.772 -0.2588  1.0509  0.2295
   53MOL   C21213836   2.639   7.266   3.726 -0.2985  0.8355 -0.2247
   53MOL   C21313837   2.614   7.407   3.786 -0.2280 -0.0053  0.2278
   53MOL   C21413838   2.543   7.213   3.620  0.1709 -0.3814  0.1898
   53MOL   H21513839   2.802   7.277   3.956 -0.1382  0.0227 -0.7178
   53MOL   H21613840   2.833   7.118   3.948 -3.7421 -0.4722  0.1746
   53MOL   H21713841   2.743   7.088   3.718 -0.6707  2.2738 -2.0007
   53MOL   H21813842   2.516   7.440   3.821 -0.6060 -0.5550 -0.2981
   53MOL   H21913843   2.661   7.490   3.734 -0.5887  0.4160  0.5621
   53MOL   H22013844   2.661   7.422   3.883 -3.5505  3.2553  1.4848
   53MOL   H22113845   2.489   7.305   3.602  0.8338 -0.2500 -1.2061
   53MOL   H22213846   2.483   7.143   3.678 -1.1203 -0.1474 -0.8513
   53MOL   C22313847   2.613   7.164   3.490 -0.4711 -0.6192 -0.3325
   53MOL   C22413848   2.515   7.133   3.384 -0.8074 -0.1920 -0.6428
   53MOL   C22513849   2.492   7.011   3.328 -0.8706 -0.3096  0.1493
   53MOL   C22613850   2.544   6.874   3.387  0.9623 -0.1380 -0.3240
   53MOL   C22713851   2.392   6.998   3.208 -0.1592 -0.3972  0.2559
   53MOL   H22813852   2.662   7.069   3.512  1.4950  0.2162 -0.9310
   53MOL   H22913853   2.679   7.237   3.442 -1.2365 -0.4441 -1.1343
   53MOL   H23013854   2.472   7.214   3.326 -1.5775  0.7533  1.2141
   53MOL   H23113855   2.498   6.851   3.483 -0.3330 -1.2971 -1.1950
   53MOL   H23213856   2.653   6.884   3.393  0.8185  1.1592  0.2977
   53MOL   H23313857   2.529   6.786   3.324  1.3233 -0.5221  0.1256
   53MOL   H23413858   2.356   7.098   3.184  0.8761  0.0280  0.4413
   53MOL   H23513859   2.308   6.941   3.249  1.1045 -1.0312  1.9901
   53MOL   C23613860   2.453   6.918   3.088  0.2185  0.2142 -0.2990
   53MOL   C23713861   2.378   6.937   2.957 -0.2792 -0.1590 -0.2348
   53MOL   C23813862   2.407   6.885   2.834 -0.3627 -0.5918  0.5080
   53MOL   C23913863   2.516   6.776   2.814  0.1555  0.2567 -0.3448
   53MOL   C24013864   2.333   6.909   2.708 -0.2155  0.1636 -0.9981
   53MOL   H24113865   2.460   6.812   3.113 -0.0608 -0.0023 -1.1442
   53MOL   H24213866   2.554   6.958   3.075  0.0015  0.3675 -1.6038
   53MOL   H24313867   2.297   7.007   2.966 -0.6040 -0.7114  1.3322
   53MOL   H24413868   2.603   6.803   2.873 -1.5224  2.2082  1.2931
   53MOL   H24513869   2.558   6.774   2.713 -0.6825  0.0582 -0.6960
   53MOL   H24613870   2.461   6.682   2.818 -0.1997  0.3311 -2.6312
   53MOL   H24713871   2.300   6.813   2.669 -2.2764  0.5193 -0.2110
   53MOL   H24813872   2.414   6.938   2.641 -0.5805 -2.1995 -2.5233
   53MOL   C24913873   2.225   7.014   2.712 -0.5038 -0.1989  0.4326
   53MOL   C25013874   2.170   7.036   2.572  0.1225  0.4218  0.0685
   53MOL   C25113875   2.194   7.143   2.490 -0.4419 -0.1440 -0.8578
   53MOL   C25213876   2.285   7.251   2.521 -0.0347 -0.0807  1.0618
   53MOL   C25313877   2.140   7.148   2.347 -0.4041 -0.0822  0.7916
   53MOL   H25413878   2.259   7.102   2.765 -2.5287 -0.5028  2.2897
   53MOL   H25513879   2.147   6.970   2.773 -0.7806 -2.1619 -1.2752
   53MOL   H25613880   2.114   6.951   2.536 -3.3527  4.2467 -4.2090
   53MOL   H25713881   2.351   7.229   2.605  0.7904  0.3151  0.5281
   53MOL   H25813882   2.244   7.352   2.518  0.1471  0.0512  2.5230
   53MOL   H25913883   2.362   7.258   2.443 -1.4688 -0.4273 -0.4111
   53MOL   H26013884   2.231   7.141   2.288 -0.1023 -0.0815  1.2510
   53MOL   H26113885   2.081   7.239   2.331 -1.4983 -0.3933  2.8163
   53MOL   H26213886   2.080   7.059   2.327 -1.7126  1.2895 -1.6398
   54MOL     C113887   4.133   2.866   7.199 -0.1286 -0.3261 -0.6420
   54MOL     C213888   4.183   2.874   7.345 -0.0057 -0.7705 -0.1754
   54MOL     C313889   4.185   2.983   7.424  0.2396 -0.6895  0.1410
   54MOL     C413890   4.119   3.111   7.389  0.5665 -0.1799 -0.2468
   54MOL     C513891   4.252   2.983   7.564  0.2682 -0.4483 -0.3661
   54MOL     H613892   4.182   2.946   7.143 -0.2685  0.0039 -0.2986
   54MOL     H713893   4.154   2.774   7.145 -1.1097  1.3432 -4.0138
   54MOL     H813894   4.217   2.779   7.382  1.6024 -0.0865  0.1852
   54MOL     H913895   4.183   3.200   7.395 -0.2516  0.3185  1.2995
   54MOL    H1013896   4.037   3.127   7.459  2.0946 -2.2388  2.1089
   54MOL    H1113897   4.067   3.114   7.293  0.9278 -0.0438 -0.4414
   54MOL    H1213898   4.293   2.884   7.580  1.1414 -0.0094  0.0992
   54MOL    H1313899   4.170   2.996   7.635 -0.5152  1.2068 -1.5391
   54MOL    H1413900   4.028   2.892   7.192 -0.0110 -0.1673 -1.9443
   54MOL    C1513901   4.358   3.086   7.577 -0.0171  0.4607 -0.4883
   54MOL    C1613902   4.482   3.054   7.497  0.0810 -0.3342  0.2661
   54MOL    C1713903   4.544   3.130   7.407  0.5083  0.4170 -0.5106
   54MOL    C1813904   4.505   3.273   7.381  0.5671 -0.5204 -0.2313
   54MOL    C1913905   4.656   3.079   7.317 -0.5525  0.9999 -0.1017
   54MOL    H2013906   4.399   3.097   7.677 -2.2370  0.8310  0.4015
   54MOL    H2113907   4.317   3.183   7.550  0.7414  0.9683  0.1663
   54MOL    H2213908   4.511   2.952   7.514 -0.6798 -0.5736  0.1330
   54MOL    H2313909   4.579   3.329   7.323  2.3948 -2.0062  0.6035
   54MOL    H2413910   4.485   3.315   7.479 -0.0061 -2.1856  0.3861
   54MOL    H2513911   4.408   3.265   7.331  1.3513  1.1966 -2.1031
   54MOL    H2613912   4.676   2.976   7.347  0.5105  1.0872 -0.4798
   54MOL    H2713913   4.745   3.140   7.336  0.4032 -0.6560  0.8573
   54MOL    C2813914   4.618   3.095   7.171 -0.4263  0.5823 -0.6751
   54MOL    C2913915   4.729   3.028   7.085  0.1244  0.3280 -0.1045
   54MOL    C3013916   4.728   2.910   7.018 -0.0770 -0.1230 -0.4440
   54MOL    C3113917   4.604   2.829   6.992  0.3529 -0.4779 -0.6336
   54MOL    C3213918   4.851   2.855   6.961 -0.3056  0.6795  0.0263
   54MOL    H3313919   4.624   3.199   7.139  2.4336  0.7415  0.2314
   54MOL    H3413920   4.522   3.054   7.140 -0.3145 -0.8970  0.8963
   54MOL    H3513921   4.823   3.081   7.085 -0.9612  2.2943  1.9546
   54MOL    H3613922   4.518   2.896   7.001  0.2296 -0.7208 -0.0270
   54MOL    H3713923   4.594   2.752   7.068 -0.4403  0.5495  0.3085
   54MOL    H3813924   4.608   2.780   6.895  1.8041  1.5130 -1.6193
   54MOL    H3913925   4.864   2.750   6.989 -1.8119  0.6308  0.5563
   54MOL    H4013926   4.937   2.906   7.006  0.5668 -0.4242 -0.3453
   54MOL    C4113927   4.856   2.856   6.811 -0.2680  0.3921  0.5356
   54MOL    C4213928   4.993   2.811   6.753  0.3477  0.4187 -0.8360
   54MOL    C4313929   5.069   2.883   6.670 -0.0100  0.0198  0.2205
   54MOL    C4413930   5.040   3.019   6.607 -0.3210  0.1994 -0.3011
   54MOL    C4513931   5.206   2.829   6.627  0.7710 -0.0798 -0.2714
   54MOL    H4613932   4.824   2.954   6.776 -2.0742 -1.1965 -2.4625
   54MOL    H4713933   4.785   2.791   6.761 -0.0836  1.5417 -1.2590
   54MOL    H4813934   5.022   2.714   6.789  0.9872  0.6776 -0.6495
   54MOL    H4913935   4.992   3.015   6.509  4.0614 -1.7821 -2.5072
   54MOL    H5013936   5.128   3.082   6.597 -1.2385  1.5685  0.0245
   54MOL    H5113937   4.975   3.067   6.680 -0.0920  2.5943 -1.6385
   54MOL    H5213938   5.219   2.736   6.683  0.7726  0.4850  0.6687
   54MOL    H5313939   5.283   2.897   6.661  0.5170 -1.1952  2.6777
   54MOL    C5413940   5.207   2.797   6.474 -0.3479 -0.3245 -0.8673
   54MOL    C5513941   5.337   2.742   6.425  0.0839 -0.4661 -0.1556
   54MOL    C5613942   5.378   2.613   6.436  1.2100 -0.0719  0.1701
   54MOL    C5713943   5.295   2.497   6.484  0.2161  0.0017 -0.3729
   54MOL    C5813944   5.513   2.565   6.392  0.8637  0.1133  0.2852
   54MOL    H5913945   5.187   2.889   6.418 -0.7447  0.3235  0.3149
   54MOL    H6013946   5.125   2.726   6.462  0.0537 -0.6079 -1.9352
   54MOL    H6113947   5.406   2.821   6.401 -0.5271 -0.0248 -0.4768
   54MOL    H6213948   5.213   2.517   6.554 -0.5504  0.8329 -1.4894
   54MOL    H6313949   5.357   2.418   6.526 -3.7625 -2.1873  1.7287
   54MOL    H6413950   5.245   2.463   6.393 -0.9191 -0.8677  0.5593
   54MOL    H6513951   5.573   2.486   6.439 -0.0403 -2.2043 -2.2916
   54MOL    H6613952   5.579   2.651   6.400  2.8370 -0.9806 -3.0895
   54MOL    C6713953   5.514   2.537   6.239  0.4120 -0.3093 -0.2065
   54MOL    C6813954   5.654   2.501   6.189  0.0211  0.1750 -0.4603
   54MOL    C6913955   5.716   2.382   6.173 -0.6330  0.2853  0.3092
   54MOL    C7013956   5.654   2.249   6.216 -0.0792  0.5539  0.4029
   54MOL    C7113957   5.857   2.367   6.126 -0.1668 -0.5234  0.3349
   54MOL    H7213958   5.491   2.637   6.204  1.5612  0.1552  0.3658
   54MOL    H7313959   5.444   2.459   6.208  0.1084  0.1724 -0.7198
   54MOL    H7413960   5.711   2.592   6.174  2.4107 -1.2365 -0.2992
   54MOL    H7513961   5.577   2.226   6.142  0.0226  0.3863  0.3498
   54MOL    H7613962   5.608   2.235   6.315 -1.2527 -2.0973 -0.4499
   54MOL    H7713963   5.725   2.167   6.207 -1.6347 -1.0483  2.1102
   54MOL    H7813964   5.908   2.280   6.165 -0.0876 -1.0016 -0.7976
   54MOL    H7913965   5.919   2.455   6.146 -1.2468  0.2227  0.4564
   54MOL    C8013966   5.875   2.351   5.977 -0.1679 -0.4025 -0.6076
   54MOL    C8113967   6.021   2.358   5.926 -0.2513  0.2222  0.2588
   54MOL    C8213968   6.090   2.267   5.853  0.5420 -0.0307 -0.4401
   54MOL    C8313969   6.038   2.126   5.805  0.1149 -0.4753 -0.4961
   54MOL    C8413970   6.223   2.304   5.800  0.6477 -0.1422 -0.2736
   54MOL    H8513971   5.822   2.431   5.926  1.4580  0.8643 -0.3439
   54MOL    H8613972   5.838   2.256   5.938 -0.2459 -1.3454  1.6753
   54MOL    H8713973   6.072   2.451   5.945  0.7973 -0.5492  1.3176
   54MOL    H8813974   6.009   2.117   5.700 -1.4572 -0.5448 -0.0729
   54MOL    H8913975   5.957   2.085   5.866  1.3405  2.2231  3.0995
   54MOL    H9013976   6.120   2.056   5.813 -0.1641 -0.7354  0.1481
   54MOL    H9113977   6.239   2.412   5.812 -1.6385  0.1609  0.1493
   54MOL    H9213978   6.223   2.293   5.692  0.9994 -0.8294 -0.2042
   54MOL    C9313979   6.336   2.231   5.874 -0.2302  0.0752 -0.2643
   54MOL    C9413980   6.457   2.259   5.783 -0.1156  0.6042 -0.4414
   54MOL    C9513981   6.565   2.336   5.809  0.0841 -0.4315  0.0802
   54MOL    C9613982   6.580   2.412   5.936 -0.6515 -0.0211 -0.4104
   54MOL    C9713983   6.691   2.354   5.723 -0.8752 -0.2270 -0.4117
   54MOL    H9813984   6.330   2.122   5.872 -1.4816  0.1372 -1.0350
   54MOL    H9913985   6.338   2.272   5.975 -0.7052 -0.2956 -0.0990
   54MOL   H10013986   6.458   2.204   5.690 -1.7216 -0.5386  0.1924
   54MOL   H10113987   6.624   2.338   6.003  0.7573  0.4670 -0.7775
   54MOL   H10213988   6.480   2.424   5.978 -0.3581  0.4699  0.1511
   54MOL   H10313989   6.634   2.506   5.943 -2.5396  1.1196 -0.9839
   54MOL   H10413990   6.778   2.331   5.785  0.5885  1.4126 -1.8183
   54MOL   H10513991   6.696   2.455   5.684  1.8887  0.0451  0.5287
   54MOL   C10613992   6.690   2.272   5.590 -0.5410  0.8010  0.3775
   54MOL   C10713993   6.826   2.277   5.526 -0.2530 -0.6492 -0.0823
   54MOL   C10813994   6.854   2.302   5.399  0.2886  0.3332 -0.3831
   54MOL   C10913995   6.754   2.343   5.290  0.6784  0.2137  0.7512
   54MOL   C11013996   6.998   2.268   5.353 -0.5214 -0.0821 -0.4712
   54MOL   H11113997   6.604   2.296   5.528 -0.3550 -1.0663 -0.6263
   54MOL   H11213998   6.679   2.173   5.632 -1.2014  0.8398  0.2983
   54MOL   H11313999   6.902   2.237   5.591  0.0301 -0.2460 -0.1649
   54MOL   H11414000   6.816   2.416   5.237 -0.3138  2.0752  2.0593
   54MOL   H11514001   6.667   2.398   5.326 -1.3494 -0.6420 -2.6469
   54MOL   H11614002   6.724   2.254   5.235  0.0558  0.7072  0.2803
   54MOL   H11714003   7.063   2.291   5.437  0.6824  1.1319 -1.7079
   54MOL   H11814004   7.041   2.336   5.280  2.0625 -0.6751  0.4494
   54MOL   C11914005   7.007   2.126   5.300  0.2345  0.2718  0.5555
   54MOL   C12014006   7.154   2.104   5.260 -0.2388  0.2757 -0.0979
   54MOL   C12114007   7.250   2.043   5.337 -0.1974  0.0563 -0.1540
   54MOL   C12214008   7.223   1.986   5.473 -0.6524 -0.0556  0.3579
   54MOL   C12314009   7.400   2.052   5.297 -0.1713  0.6699 -0.0304
   54MOL   H12414010   6.953   2.117   5.205 -1.2148 -0.9711  1.4852
   54MOL   H12514011   6.967   2.052   5.368 -0.9034 -0.7487 -1.1889
   54MOL   H12614012   7.175   2.145   5.162  0.9858  1.9856  0.8692
   54MOL   H12714013   7.275   1.891   5.486 -1.1860 -0.5243 -0.8894
   54MOL   H12814014   7.118   1.963   5.491 -0.8553  2.2053  2.4072
   54MOL   H12914015   7.268   2.052   5.547 -0.1562 -0.5545  0.5074
   54MOL   H13014016   7.410   2.038   5.190 -2.9791  0.3074 -0.2702
   54MOL   H13114017   7.467   1.975   5.335  0.5157  1.0854 -0.3986
   54MOL   C13214018   7.465   2.185   5.325 -0.3978 -0.0022  0.2485
   54MOL   C13314019   7.411   2.297   5.241 -0.5197 -0.2081 -0.2986
   54MOL   C13414020   7.357   2.414   5.291  0.2833 -1.3331 -0.2878
   54MOL   C13514021   7.367   2.452   5.436 -0.1942 -0.0719 -0.0548
   54MOL   C13614022   7.282   2.525   5.206  0.3410 -0.0145  0.0623
   54MOL   H13714023   7.571   2.173   5.303 -0.4275  0.2850 -0.0517
   54MOL   H13814024   7.461   2.210   5.431 -2.5444 -0.8130  0.3899
   54MOL   H13914025   7.401   2.267   5.138  1.1148 -0.5699 -0.3616
   54MOL   H14014026   7.327   2.373   5.500 -0.0471 -0.7213 -0.7646
   54MOL   H14114027   7.322   2.548   5.462  0.0355  0.3895 -1.3357
   54MOL   H14214028   7.472   2.458   5.464 -0.1959  1.0918 -0.2451
   54MOL   H14314029   7.310   2.626   5.235 -0.5584  0.5096 -0.8855
   54MOL   H14414030   7.179   2.514   5.239  0.1983 -1.9553 -0.9307
   54MOL   C14514031   7.289   2.514   5.053  0.0693 -0.0796 -0.6588
   54MOL   C14614032   7.230   2.630   4.988  0.2527 -0.1756 -0.0600
   54MOL   C14714033   7.102   2.642   4.956  0.2846 -0.0287  0.5458
   54MOL   C14814034   6.985   2.553   4.987 -0.5415  0.0742  0.2211
   54MOL   C14914035   7.050   2.762   4.882 -0.0745  0.0658 -0.2756
   54MOL   H15014036   7.255   2.422   5.006 -0.1271  0.1774 -1.0173
   54MOL   H15114037   7.398   2.518   5.050  0.0607  0.1447 -0.6257
   54MOL   H15214038   7.306   2.702   4.960  0.2664 -0.1443  0.0590
   54MOL   H15314039   6.922   2.601   5.062  0.1157  0.1822  0.7125
   54MOL   H15414040   7.021   2.459   5.029 -2.0818 -1.1919 -1.2325
   54MOL   H15514041   6.925   2.533   4.898 -0.8190  2.5890 -0.1899
   54MOL   H15614042   7.127   2.839   4.882  0.6320 -0.6415 -0.3197
   54MOL   H15714043   6.956   2.795   4.927 -0.2645  0.0928 -0.6914
   54MOL   C15814044   7.007   2.721   4.739 -0.6610  0.0712  0.2104
   54MOL   C15914045   6.855   2.684   4.720 -0.6767 -0.0496 -0.6785
   54MOL   C16014046   6.801   2.576   4.660  0.7020  0.3590 -0.2989
   54MOL   C16114047   6.884   2.474   4.584  0.1105 -0.6241 -0.8291
   54MOL   C16214048   6.647   2.573   4.637  0.3475  0.1481  0.0175
   54MOL   H16314049   7.077   2.648   4.697  1.3631  1.3591  1.3205
   54MOL   H16414050   7.015   2.813   4.681  0.3237 -0.1199  0.0301
   54MOL   H16514051   6.787   2.761   4.753  0.5041  1.3033 -1.3622
   54MOL   H16614052   6.876   2.379   4.637  0.3840 -1.6558 -2.6119
   54MOL   H16714053   6.986   2.512   4.585 -0.2027  0.2130  0.1080
   54MOL   H16814054   6.850   2.461   4.481  1.5051  1.3445 -1.5549
   54MOL   H16914055   6.630   2.569   4.530 -0.3282  1.3884  0.0613
   54MOL   H17014056   6.620   2.677   4.659 -1.2189 -0.3460  0.4903
   54MOL   C17114057   6.559   2.480   4.734 -0.5278 -0.1199  0.6643
   54MOL   C17214058   6.449   2.557   4.814 -0.2454  0.0476  0.1687
   54MOL   C17314059   6.466   2.585   4.942  0.3235 -1.4033  0.4055
   54MOL   C17414060   6.580   2.528   5.026  0.4621  0.2501 -0.9688
   54MOL   C17514061   6.358   2.652   5.020  0.2300 -0.2194 -0.0281
   54MOL   H17614062   6.622   2.424   4.804 -0.0845  1.5126  1.6069
   54MOL   H17714063   6.518   2.397   4.676  1.4288 -0.7585  0.1469
   54MOL   H17814064   6.358   2.584   4.761  0.1094 -0.6685 -0.8309
   54MOL   H17914065   6.675   2.552   4.978  0.7661  1.2239  0.0921
   54MOL   H18014066   6.573   2.419   5.034  0.5018  0.2303 -1.2042
   54MOL   H18114067   6.578   2.566   5.128 -0.5787 -1.3841 -0.3561
   54MOL   H18214068   6.412   2.710   5.095  3.0397 -1.6167 -0.8616
   54MOL   H18314069   6.289   2.583   5.069  1.5434  0.0919  2.3598
   54MOL   C18414070   6.271   2.756   4.941 -0.4803  0.4129  0.5414
   54MOL   C18514071   6.164   2.792   5.038  0.4219 -0.0525  0.1756
   54MOL   C18614072   6.032   2.790   5.015 -0.2956  0.2515  0.0381
   54MOL   C18714073   5.977   2.733   4.887 -0.2293  0.3210 -0.6065
   54MOL   C18814074   5.922   2.836   5.110  0.5517 -0.0150 -0.2024
   54MOL   H18914075   6.224   2.730   4.846  1.1998 -0.2688 -0.1232
   54MOL   H19014076   6.331   2.843   4.914 -0.9231  0.5704  0.0488
   54MOL   H19114077   6.206   2.830   5.130  1.2699 -1.3978  0.3425
   54MOL   H19214078   6.007   2.629   4.874 -1.2339 -0.1613  0.8296
   54MOL   H19314079   5.985   2.796   4.798 -0.9075  3.3937  1.4345
   54MOL   H19414080   5.869   2.718   4.894 -0.3073  0.6880 -0.9853
   54MOL   H19514081   5.882   2.752   5.167 -1.4845  0.4559 -0.8828
   54MOL   H19614082   5.840   2.879   5.052 -1.1075 -1.5666  0.9564
   54MOL   C19714083   5.973   2.943   5.218 -0.0614  0.0980 -0.8391
   54MOL   C19814084   5.856   3.007   5.290 -0.7732  0.1292 -0.3500
   54MOL   C19914085   5.809   3.134   5.268  0.0086  0.0796  0.2291
   54MOL   C20014086   5.865   3.243   5.178 -0.3136 -0.5751 -0.0339
   54MOL   C20114087   5.697   3.189   5.362 -0.7513  0.3220 -0.0250
   54MOL   H20214088   6.037   3.011   5.162 -0.5799 -0.9114 -2.7306
   54MOL   H20314089   6.033   2.887   5.290 -0.3501  1.4076  0.4228
   54MOL   H20414090   5.812   2.940   5.363 -1.2984  0.9449  0.0879
   54MOL   H20514091   5.958   3.208   5.133 -0.0352  0.1786 -0.0572
   54MOL   H20614092   5.897   3.326   5.241  0.1810  0.4869 -1.6475
   54MOL   H20714093   5.808   3.287   5.096 -2.7368 -1.5810  1.0473
   54MOL   H20814094   5.622   3.235   5.298  0.2528  1.9167 -0.0704
   54MOL   H20914095   5.742   3.271   5.417 -2.0628  0.7371  0.4448
   54MOL   C21014096   5.639   3.102   5.474 -0.1194  0.0533 -0.0185
   54MOL   C21114097   5.540   3.175   5.565 -0.3025 -0.7353  0.0430
   54MOL   C21214098   5.561   3.219   5.685  0.8601 -0.0790  0.2093
   54MOL   C21314099   5.694   3.213   5.759  0.3413 -0.0264  0.1622
   54MOL   C21414100   5.448   3.259   5.778  0.0363 -0.0462 -0.3358
   54MOL   H21514101   5.715   3.047   5.530 -0.7153 -0.2221  0.5358
   54MOL   H21614102   5.582   3.019   5.430  0.9875 -0.3326 -0.7251
   54MOL   H21714103   5.444   3.183   5.517  0.1772  3.0371 -0.5206
   54MOL   H21814104   5.690   3.121   5.817  0.5297  0.2311  0.5810
   54MOL   H21914105   5.708   3.291   5.833 -4.0764  0.6050  0.4564
   54MOL   H22014106   5.773   3.210   5.684 -0.3339 -0.8221 -0.5364
   54MOL   H22114107   5.365   3.272   5.708  0.1408 -2.6307 -0.9559
   54MOL   H22214108   5.466   3.359   5.817  1.8770 -0.9062  1.0636
   54MOL   C22314109   5.410   3.156   5.895  0.2085  0.9988 -0.6069
   54MOL   C22414110   5.407   3.013   5.849 -0.3710 -0.2789 -0.2381
   54MOL   C22514111   5.388   2.904   5.923  0.2476  0.4132 -0.0492
   54MOL   C22614112   5.359   2.899   6.075  0.0498  0.5091  0.4146
   54MOL   C22714113   5.361   2.764   5.860 -0.2806 -0.0534  0.2110
   54MOL   H22814114   5.313   3.183   5.937 -0.5313 -3.5291  0.8527
   54MOL   H22914115   5.468   3.177   5.985  0.0042 -0.9705  0.0050
   54MOL   H23014116   5.422   3.000   5.743  0.3960 -0.4146 -0.1200
   54MOL   H23114117   5.389   2.990   6.128  0.4479 -0.2181  1.4467
   54MOL   H23214118   5.423   2.822   6.116 -1.3608 -1.0175 -0.1627
   54MOL   H23314119   5.256   2.876   6.102 -0.1505 -0.9813 -1.5297
   54MOL   H23414120   5.392   2.682   5.924 -0.8834  0.4247  1.1434
   54MOL   H23514121   5.410   2.752   5.764  0.3982  1.2810  0.3745
   54MOL   C23614122   5.212   2.748   5.837 -0.5850 -0.1688  0.5772
   54MOL   C23714123   5.167   2.617   5.790  0.5204  0.2921 -1.3466
   54MOL   C23814124   5.145   2.564   5.667 -0.0244 -0.5276 -0.0582
   54MOL   C23914125   5.177   2.639   5.537  0.1445 -0.0349  0.0074
   54MOL   C24014126   5.090   2.424   5.647 -0.9678  0.0687  0.6587
   54MOL   H24114127   5.177   2.817   5.760 -0.4165 -1.4402 -0.6659
   54MOL   H24214128   5.147   2.774   5.921 -1.1446  1.3213 -0.3015
   54MOL   H24314129   5.146   2.545   5.868  1.0061  0.6927 -0.8500
   54MOL   H24414130   5.238   2.570   5.479 -1.2136 -1.1659 -0.0842
   54MOL   H24514131   5.231   2.731   5.562  1.0269 -1.0470  1.9790
   54MOL   H24614132   5.086   2.662   5.482  0.1788  0.1482  0.0264
   54MOL   H24714133   5.067   2.422   5.541 -1.5844 -0.3152  0.7962
   54MOL   H24814134   4.985   2.430   5.676 -1.2028 -1.1069  0.1145
   54MOL   C24914135   5.173   2.312   5.706  0.1183  0.8358  0.5431
   54MOL   C25014136   5.318   2.324   5.664 -0.0346  0.5638 -0.3503
   54MOL   C25114137   5.424   2.311   5.740 -0.1338  0.3240  0.2241
   54MOL   C25214138   5.433   2.294   5.885 -0.6328 -0.2514  0.5763
   54MOL   C25314139   5.558   2.330   5.665 -0.2858 -0.1195 -0.7561
   54MOL   H25414140   5.135   2.213   5.682  1.4327  0.7396 -1.2513
   54MOL   H25514141   5.156   2.328   5.813 -1.2836  1.2152  0.2793
   54MOL   H25614142   5.320   2.336   5.556 -0.0356  1.8207 -0.2169
   54MOL   H25714143   5.338   2.291   5.937 -0.8442  2.1166  0.3923
   54MOL   H25814144   5.484   2.379   5.931 -3.0735  0.8082  1.4205
   54MOL   H25914145   5.498   2.208   5.897  0.6110  0.4068 -1.1178
   54MOL   H26014146   5.640   2.269   5.704  0.8018  1.0949 -1.1075
   54MOL   H26114147   5.589   2.434   5.677  0.6835 -0.5106  0.1958
   54MOL   H26214148   5.550   2.311   5.559 -1.2000 -0.4244 -0.6394
   55MOL     C114149   2.409   5.836   4.039 -0.6903 -0.2883 -0.3155
   55MOL     C214150   2.463   5.796   4.176 -0.2247 -0.0204  0.8882
   55MOL     C314151   2.435   5.684   4.246 -0.3840  0.7509 -0.0962
   55MOL     C414152   2.337   5.579   4.191 -0.4719  0.2860  0.6368
   55MOL     C514153   2.490   5.668   4.379 -0.1218 -0.2051 -1.1810
   55MOL     H614154   2.342   5.762   3.995 -0.4766 -1.1059  0.7029
   55MOL     H714155   2.363   5.934   4.041 -0.3782 -0.1580  1.8401
   55MOL     H814156   2.533   5.867   4.216 -0.8319  1.8184 -1.2010
   55MOL     H914157   2.353   5.556   4.086 -2.1608  2.3736 -0.1200
   55MOL    H1014158   2.231   5.600   4.210 -0.2194  1.0246  1.2699
   55MOL    H1114159   2.355   5.485   4.242  0.5674 -0.1543 -0.5107
   55MOL    H1214160   2.568   5.744   4.391 -0.8961  0.3833  0.2431
   55MOL    H1314161   2.554   5.580   4.376 -0.9263 -0.8181 -0.4467
   55MOL    H1414162   2.489   5.848   3.967  1.6973 -0.2317  2.2395
   55MOL    C1514163   2.385   5.660   4.494 -0.2283 -0.2028 -0.1835
   55MOL    C1614164   2.456   5.648   4.630  0.4184 -0.9604  0.0506
   55MOL    C1714165   2.439   5.542   4.713  1.1067  0.0280 -0.1374
   55MOL    C1814166   2.342   5.430   4.681  0.3180 -0.3940 -0.5151
   55MOL    C1914167   2.516   5.529   4.845  0.4355 -0.3082  0.0964
   55MOL    H2014168   2.330   5.568   4.473 -2.1583  0.9420 -0.2849
   55MOL    H2114169   2.320   5.747   4.486 -0.3940 -0.4308 -1.3844
   55MOL    H2214170   2.532   5.719   4.658 -0.0821 -0.8214  1.0915
   55MOL    H2314171   2.355   5.340   4.742  1.3210  0.5949  0.7515
   55MOL    H2414172   2.359   5.387   4.582 -1.3586 -1.6249 -0.2961
   55MOL    H2514173   2.239   5.466   4.689  0.7833  0.8141  0.1126
   55MOL    H2614174   2.453   5.514   4.932  0.1950 -3.6612 -0.6002
   55MOL    H2714175   2.574   5.620   4.862  3.1344 -1.6704 -1.4562
   55MOL    C2814176   2.619   5.412   4.833 -0.4934 -0.4171 -0.0402
   55MOL    C2914177   2.692   5.395   4.961 -0.3729 -0.6859  0.0516
   55MOL    C3014178   2.823   5.359   4.976  0.4053  0.3775 -0.4778
   55MOL    C3114179   2.912   5.318   4.862 -0.1504  0.1091  0.3207
   55MOL    C3214180   2.885   5.335   5.109 -0.0293 -0.0463 -0.7556
   55MOL    H3314181   2.677   5.441   4.746  0.2387 -3.8149 -0.7730
   55MOL    H3414182   2.571   5.319   4.800 -0.4940 -0.1043 -0.9078
   55MOL    H3514183   2.635   5.412   5.051  1.8223  3.5766  0.7545
   55MOL    H3614184   2.875   5.346   4.763 -0.5975 -1.3681  0.0563
   55MOL    H3714185   2.930   5.211   4.861 -1.0209 -0.0480  0.9541
   55MOL    H3814186   3.013   5.356   4.868 -0.6068  1.2429  1.0244
   55MOL    H3914187   2.934   5.238   5.106 -0.7125 -0.4972  1.3995
   55MOL    H4014188   2.808   5.325   5.186  2.1759 -0.3751  1.4859
   55MOL    C4114189   2.987   5.443   5.147 -0.3669 -0.6868  0.0506
   55MOL    C4214190   3.090   5.397   5.250 -0.1438 -0.0672 -0.0263
   55MOL    C4314191   3.225   5.392   5.220  0.3024  0.8583 -0.0344
   55MOL    C4414192   3.282   5.426   5.084 -0.5620 -0.2032 -0.4116
   55MOL    C4514193   3.318   5.327   5.323  0.4665 -0.3761  0.4024
   55MOL    H4614194   2.931   5.523   5.194 -1.3949 -0.8633 -0.8602
   55MOL    H4714195   3.028   5.489   5.057 -0.1582 -0.7898  0.0932
   55MOL    H4814196   3.042   5.381   5.345  0.6494 -1.4416  0.1501
   55MOL    H4914197   3.278   5.533   5.061 -0.8612  0.3942  2.3473
   55MOL    H5014198   3.225   5.380   5.003 -1.9789 -2.2238  1.6641
   55MOL    H5114199   3.385   5.394   5.068 -0.6622 -0.8253  0.1934
   55MOL    H5214200   3.363   5.242   5.273 -0.9108 -1.0245  0.2279
   55MOL    H5314201   3.262   5.288   5.408  3.4732 -2.5272  1.4734
   55MOL    C5414202   3.408   5.433   5.393 -0.2063 -0.4067 -0.7331
   55MOL    C5514203   3.479   5.378   5.509  0.4115  0.0763 -0.3379
   55MOL    C5614204   3.433   5.374   5.635  0.0961  0.4297  0.5225
   55MOL    C5714205   3.290   5.421   5.676  0.8554 -0.9448 -0.3865
   55MOL    C5814206   3.514   5.309   5.745  0.4202 -0.1025 -0.5315
   55MOL    H5914207   3.354   5.521   5.427  0.1674 -0.0393 -1.0745
   55MOL    H6014208   3.491   5.468   5.331  2.0603 -0.5112  2.1152
   55MOL    H6114209   3.571   5.330   5.480  1.1428  1.9349 -1.1665
   55MOL    H6214210   3.230   5.478   5.606  2.5431 -0.8624 -1.7863
   55MOL    H6314211   3.281   5.478   5.769  1.9250 -0.3099 -0.6712
   55MOL    H6414212   3.220   5.342   5.705  0.4203 -0.7424 -0.8671
   55MOL    H6514213   3.526   5.373   5.832 -1.9849 -2.5818  1.7248
   55MOL    H6614214   3.619   5.288   5.727  0.2095  0.7611 -2.9432
   55MOL    C6714215   3.446   5.175   5.789  0.1633 -0.3639  0.0622
   55MOL    C6814216   3.546   5.072   5.851 -0.1073 -0.3721 -0.1084
   55MOL    C6914217   3.597   5.075   5.977  0.1837  1.1978  0.0251
   55MOL    C7014218   3.585   5.187   6.089 -0.4405  0.1501  0.7477
   55MOL    C7114219   3.701   4.971   6.009  0.1160  0.3420  0.2095
   55MOL    H7214220   3.379   5.128   5.717 -1.9291  1.6812  0.5965
   55MOL    H7314221   3.376   5.198   5.870  2.6481  0.2815  2.0864
   55MOL    H7414222   3.577   4.989   5.790 -0.7312 -1.4774  1.0619
   55MOL    H7514223   3.685   5.228   6.109 -0.3604  0.7948 -0.8282
   55MOL    H7614224   3.523   5.150   6.170 -2.4606  0.2357 -0.7313
   55MOL    H7714225   3.532   5.269   6.041  2.1049  1.5660  0.2270
   55MOL    H7814226   3.789   5.018   6.054 -1.3018  1.9112  1.4106
   55MOL    H7914227   3.738   4.923   5.919 -0.9211  0.7315 -0.4329
   55MOL    C8014228   3.658   4.857   6.107 -0.2528 -0.3105  0.5865
   55MOL    C8114229   3.769   4.759   6.125 -0.2896  0.4783  0.2185
   55MOL    C8214230   3.772   4.627   6.084 -0.2892 -0.1290 -0.0483
   55MOL    C8314231   3.647   4.552   6.040  0.1426 -0.3374  0.2369
   55MOL    C8414232   3.896   4.549   6.087 -0.1368  1.2600 -0.4393
   55MOL    H8514233   3.573   4.804   6.066  1.3638 -2.5782  0.0547
   55MOL    H8614234   3.630   4.899   6.204 -1.2225 -0.0349  0.1964
   55MOL    H8714235   3.857   4.804   6.169 -0.3219 -0.1083  0.9081
   55MOL    H8814236   3.600   4.587   5.948  2.6124  0.5126 -0.7504
   55MOL    H8914237   3.573   4.574   6.117 -0.8630  1.2225 -1.1352
   55MOL    H9014238   3.656   4.444   6.038 -1.3274 -0.4475 -1.1803
   55MOL    H9114239   3.883   4.462   6.151  1.6067  1.8688  0.7684
   55MOL    H9214240   3.980   4.601   6.134  1.1953 -0.2688 -1.1233
   55MOL    C9314241   3.944   4.510   5.941  0.2125  1.0404 -0.0844
   55MOL    C9414242   3.949   4.626   5.845  0.1357 -0.0263  0.4040
   55MOL    C9514243   3.927   4.598   5.715  0.0939  0.1508 -0.0720
   55MOL    C9614244   3.891   4.462   5.659  0.0169  0.2929 -0.4838
   55MOL    C9714245   3.939   4.706   5.614 -0.7731 -0.3157 -0.5423
   55MOL    H9814246   3.882   4.423   5.919  1.2080  0.4284 -0.5251
   55MOL    H9914247   4.047   4.474   5.948 -0.4118 -0.4460  2.0006
   55MOL   H10014248   3.989   4.723   5.867  0.0405 -0.1134  0.9652
   55MOL   H10114249   3.783   4.449   5.651  0.1487 -3.5872  2.1231
   55MOL   H10214250   3.931   4.378   5.717  1.9854  2.0289  0.7333
   55MOL   H10314251   3.928   4.455   5.557  0.7489  0.2169 -0.2203
   55MOL   H10414252   4.014   4.680   5.538  0.6045  2.3217 -0.1393
   55MOL   H10514253   3.979   4.796   5.660  1.8088 -0.6474 -2.0156
   55MOL   C10614254   3.806   4.742   5.545 -0.0081 -0.4345  0.0632
   55MOL   C10714255   3.819   4.875   5.468  0.4286 -0.2849  0.0747
   55MOL   C10814256   3.718   4.956   5.433  0.8394  0.7829  0.5721
   55MOL   C10914257   3.575   4.908   5.462  0.4432 -0.1390 -0.0461
   55MOL   C11014258   3.740   5.093   5.368  0.9173  0.1259 -0.3816
   55MOL   H11114259   3.723   4.750   5.616 -1.2768 -0.3684 -1.3814
   55MOL   H11214260   3.775   4.656   5.487  0.6515 -1.1982  0.8424
   55MOL   H11314261   3.923   4.901   5.452 -0.1699  1.7276 -0.6499
   55MOL   H11414262   3.546   4.948   5.559 -1.4006 -2.3488  0.3719
   55MOL   H11514263   3.570   4.799   5.462  1.7661 -0.2018  0.8543
   55MOL   H11614264   3.512   4.948   5.382  0.2178 -0.2093  0.0939
   55MOL   H11714265   3.683   5.170   5.420  1.3678 -0.4457  0.9943
   55MOL   H11814266   3.693   5.081   5.270 -1.1829 -4.0580  0.9798
   55MOL   C11914267   3.883   5.143   5.340  0.1360  0.4213  0.1477
   55MOL   C12014268   3.881   5.281   5.274  0.7750  0.0365 -0.6697
   55MOL   C12114269   3.903   5.309   5.143  0.1505  0.0782 -0.1895
   55MOL   C12214270   3.935   5.208   5.032 -0.3157 -0.2601  0.4764
   55MOL   C12314271   3.902   5.457   5.097 -0.3945 -0.0469 -0.1350
   55MOL   H12414272   3.944   5.069   5.287  0.2934  1.3518 -1.0083
   55MOL   H12514273   3.919   5.161   5.441 -3.6313 -0.3940  1.6817
   55MOL   H12614274   3.861   5.356   5.348  1.7224 -0.9581  0.6134
   55MOL   H12714275   4.033   5.228   4.989 -0.9064 -1.6566 -1.5595
   55MOL   H12814276   3.861   5.222   4.954 -1.1591  0.1603  1.3399
   55MOL   H12914277   3.937   5.104   5.066 -0.2708 -0.2311  0.5660
   55MOL   H13014278   3.977   5.470   5.020  0.9606  3.7914  1.7092
   55MOL   H13114279   3.931   5.513   5.186  1.4681 -1.9512  0.4815
   55MOL   C13214280   3.767   5.509   5.054 -0.0833 -0.3925  0.1416
   55MOL   C13314281   3.773   5.649   4.999 -0.0541 -0.1800 -0.7574
   55MOL   C13414282   3.697   5.699   4.902 -0.5573 -0.4408 -0.6655
   55MOL   C13514283   3.587   5.615   4.838 -0.4496  0.2165  0.2714
   55MOL   C13614284   3.727   5.840   4.854  0.6770  0.1376  0.0308
   55MOL   H13714285   3.690   5.512   5.132  0.4227 -0.3343  0.6366
   55MOL   H13814286   3.739   5.441   4.973 -0.8215  0.5382 -0.3937
   55MOL   H13914287   3.848   5.701   5.057  1.6131 -2.2586 -0.9708
   55MOL   H14014288   3.623   5.579   4.742  1.1308  1.6447  0.3146
   55MOL   H14114289   3.503   5.683   4.823  2.2127  3.8191  0.9747
   55MOL   H14214290   3.547   5.537   4.903 -0.9116  0.4048  0.2195
   55MOL   H14314291   3.813   5.876   4.910 -0.6199  0.2726  1.9831
   55MOL   H14414292   3.640   5.903   4.874 -0.9721 -1.8238 -0.7595
   55MOL   C14514293   3.752   5.847   4.699  0.1176  0.1253  0.3182
   55MOL   C14614294   3.870   5.755   4.668 -0.1014  0.2575 -0.0469
   55MOL   C14714295   3.988   5.785   4.614  0.6550 -0.1880  0.1933
   55MOL   C14814296   4.018   5.930   4.570 -0.6824  0.0321  0.3875
   55MOL   C14914297   4.100   5.681   4.598 -0.3731 -0.3172 -0.1647
   55MOL   H15014298   3.773   5.950   4.670 -1.8948  0.7101  0.8695
   55MOL   H15114299   3.661   5.813   4.650 -0.8189  1.8289  0.8242
   55MOL   H15214300   3.854   5.652   4.695  2.1507 -0.3937 -1.0977
   55MOL   H15314301   4.024   5.985   4.664 -1.3070  1.7066 -0.5352
   55MOL   H15414302   3.938   5.979   4.516 -0.8700  0.4983  1.0753
   55MOL   H15514303   4.106   5.923   4.505 -0.0916  0.8156  1.0893
   55MOL   H15614304   4.099   5.643   4.496  0.0685  0.0553 -0.3069
   55MOL   H15714305   4.063   5.592   4.649 -2.2304  0.2653 -0.4635
   55MOL   C15814306   4.228   5.731   4.655 -0.1028 -1.0910 -0.5764
   55MOL   C15914307   4.333   5.626   4.628  0.9182  0.6940 -0.2057
   55MOL   C16014308   4.355   5.507   4.691  0.3591  0.8956  0.3461
   55MOL   C16114309   4.274   5.466   4.809 -0.4520  0.6165 -0.5464
   55MOL   C16214310   4.466   5.408   4.658  0.4129 -0.2396 -0.5102
   55MOL   H16314311   4.226   5.743   4.763 -1.1358  0.2272 -0.7270
   55MOL   H16414312   4.255   5.825   4.607 -1.6205 -0.7321 -0.7542
   55MOL   H16514313   4.393   5.650   4.541  4.1075 -1.6112  1.2765
   55MOL   H16614314   4.252   5.556   4.867  0.2024  1.5625 -1.7400
   55MOL   H16714315   4.335   5.410   4.880 -0.3174  1.2566 -0.1471
   55MOL   H16814316   4.180   5.416   4.786 -0.5111  1.0317 -1.1922
   55MOL   H16914317   4.419   5.316   4.623  0.2936 -0.3473 -0.0665
   55MOL   H17014318   4.529   5.395   4.746  1.2615 -1.1083 -1.2357
   55MOL   C17114319   4.548   5.441   4.526 -0.1027  0.3070 -0.4234
   55MOL   C17214320   4.644   5.329   4.487 -0.0252  0.0358  0.7543
   55MOL   C17314321   4.648   5.255   4.373 -0.6634 -0.3485  0.5767
   55MOL   C17414322   4.540   5.257   4.268  0.6371  0.1657  0.4133
   55MOL   C17514323   4.748   5.138   4.345  0.3280  0.3603  0.4034
   55MOL   H17614324   4.597   5.538   4.514 -1.3182  1.0793  0.7809
   55MOL   H17714325   4.470   5.450   4.451  0.4817 -3.1596 -1.5302
   55MOL   H17814326   4.724   5.308   4.557  2.8619 -1.3619 -2.7739
   55MOL   H17914327   4.583   5.255   4.167  2.1763  0.8586  1.0411
   55MOL   H18014328   4.464   5.335   4.271 -0.2421 -0.5965 -1.2068
   55MOL   H18114329   4.480   5.166   4.268 -1.1027  1.2993  0.6455
   55MOL   H18214330   4.690   5.052   4.311  0.3954  0.6230 -0.3760
   55MOL   H18314331   4.777   5.103   4.445  1.5190 -3.0245 -1.0453
   55MOL   C18414332   4.874   5.179   4.271 -0.2316 -0.3852  0.1178
   55MOL   C18514333   4.972   5.061   4.258 -0.6139 -0.7101  0.7379
   55MOL   C18614334   5.088   5.052   4.319 -0.0861  0.4051  0.4853
   55MOL   C18714335   5.120   5.133   4.440 -0.3489 -0.2972  0.4663
   55MOL   C18814336   5.191   4.945   4.267 -0.0610  0.2416  0.3343
   55MOL   H18914337   4.916   5.266   4.322 -1.0530  1.9712 -3.0951
   55MOL   H19014338   4.846   5.210   4.170 -0.3902  0.9481  0.5564
   55MOL   H19114339   4.959   4.997   4.172  2.1985 -2.6760  1.7401
   55MOL   H19214340   5.180   5.215   4.400 -1.3692  0.0732 -0.3350
   55MOL   H19314341   5.186   5.083   4.512 -0.2166  2.7766  2.5640
   55MOL   H19414342   5.030   5.173   4.486 -0.8549  0.3250 -1.0306
   55MOL   H19514343   5.279   5.002   4.237 -0.4651  0.8131  0.2133
   55MOL   H19614344   5.158   4.887   4.180 -0.2802 -1.1109  1.3060
   55MOL   C19714345   5.240   4.842   4.372 -0.6311  0.0602 -0.1013
   55MOL   C19814346   5.351   4.747   4.331  0.4238 -0.4572  0.0711
   55MOL   C19914347   5.464   4.712   4.395 -0.2289 -0.5607  0.0010
   55MOL   C20014348   5.509   4.761   4.534 -0.3393 -0.2304  0.4227
   55MOL   C20114349   5.560   4.613   4.327  0.8391 -0.5689 -0.2617
   55MOL   H20214350   5.162   4.777   4.412  0.6178 -0.4871  1.5491
   55MOL   H20314351   5.283   4.894   4.458 -0.2172 -0.6608  0.1360
   55MOL   H20414352   5.342   4.698   4.235 -0.3816 -1.5508  0.6891
   55MOL   H20514353   5.558   4.681   4.590 -1.9856 -2.8999 -1.8154
   55MOL   H20614354   5.427   4.785   4.601  0.0342  1.5350  0.2604
   55MOL   H20714355   5.578   4.843   4.518  0.8914 -1.1918  0.6751
   55MOL   H20814356   5.658   4.619   4.374  0.5379  0.2410  0.2760
   55MOL   H20914357   5.565   4.645   4.223  0.4402 -0.3131 -0.2046
   55MOL   C21014358   5.506   4.473   4.334  0.4134 -0.0338 -0.3238
   55MOL   C21114359   5.615   4.372   4.294  0.4252  0.0093  0.3828
   55MOL   C21214360   5.675   4.280   4.370 -0.0664  0.3636  0.1126
   55MOL   C21314361   5.655   4.268   4.524 -0.5897 -0.5113  0.7342
   55MOL   C21414362   5.790   4.200   4.311 -0.1225 -0.3042 -0.1598
   55MOL   H21514363   5.421   4.469   4.265 -2.2451  0.9420  2.7936
   55MOL   H21614364   5.477   4.451   4.436 -0.0631  1.4957 -0.1100
   55MOL   H21714365   5.645   4.385   4.192  1.0664 -0.1591  0.5453
   55MOL   H21814366   5.554   4.291   4.559 -1.0005  0.1522 -0.8379
   55MOL   H21914367   5.721   4.347   4.559  1.5727 -1.3236 -1.4367
   55MOL   H22014368   5.696   4.176   4.565 -0.8667 -0.8835  0.1752
   55MOL   H22114369   5.790   4.227   4.205 -0.7876 -0.9294 -0.3221
   55MOL   H22214370   5.769   4.093   4.315 -0.2435 -0.2561  0.5842
   55MOL   C22314371   5.929   4.229   4.373  0.5971 -0.0266 -0.3577
   55MOL   C22414372   6.031   4.130   4.333  0.2427 -0.2828  0.5323
   55MOL   C22514373   6.113   4.142   4.227  0.0596 -0.3013  0.5941
   55MOL   C22614374   6.114   4.268   4.141 -0.2988 -0.4208 -0.0558
   55MOL   C22714375   6.215   4.030   4.213  0.3493  0.0691  0.1977
   55MOL   H22814376   5.930   4.214   4.481  0.6332 -0.2594 -0.3891
   55MOL   H22914377   5.973   4.327   4.355 -0.1425  0.0407 -1.8662
   55MOL   H23014378   6.035   4.042   4.396  1.5177  0.0605  0.9584
   55MOL   H23114379   6.122   4.240   4.036  2.7505  3.3338 -0.9531
   55MOL   H23214380   6.196   4.335   4.165  0.7114 -1.3512 -0.8656
   55MOL   H23314381   6.027   4.331   4.163 -0.1235 -0.6771  1.4680
   55MOL   H23414382   6.220   3.964   4.300  1.7998  1.1689  0.9774
   55MOL   H23514383   6.309   4.084   4.215  0.5470 -0.1767 -1.9331
   55MOL   C23614384   6.194   3.946   4.085  0.1768  0.7560  0.5607
   55MOL   C23714385   6.293   3.830   4.072  0.8070 -0.5239 -0.5810
   55MOL   C23814386   6.263   3.695   4.078  0.2633 -0.2741 -1.3664
   55MOL   C23914387   6.123   3.641   4.110 -0.1655  0.4244  0.1008
   55MOL   C24014388   6.377   3.596   4.085 -0.0754  0.4148  0.4764
   55MOL   H24114389   6.208   4.008   3.997  3.9140  2.0104  1.9727
   55MOL   H24214390   6.088   3.919   4.082  0.0301  1.1613  1.9345
   55MOL   H24314391   6.392   3.871   4.070  0.7323 -0.2695  0.7096
   55MOL   H24414392   6.044   3.715   4.094 -1.5344 -1.1701 -0.7499
   55MOL   H24514393   6.116   3.607   4.213 -2.3696 -0.4678 -0.2996
   55MOL   H24614394   6.089   3.561   4.044 -1.1057  1.2906 -0.4846
   55MOL   H24714395   6.383   3.545   4.181  1.2086 -1.6476 -0.6612
   55MOL   H24814396   6.473   3.645   4.069 -0.0306  0.5050  1.0216
   55MOL   C24914397   6.361   3.490   3.972  0.2268  0.0518 -0.0987
   55MOL   C25014398   6.488   3.416   3.947 -0.0369  0.6145 -0.2186
   55MOL   C25114399   6.578   3.441   3.852 -0.2808 -0.9093  0.5207
   55MOL   C25214400   6.559   3.530   3.729  0.5599 -0.0138  0.6011
   55MOL   C25314401   6.713   3.362   3.839 -0.1717  0.1917  0.1508
   55MOL   H25414402   6.337   3.551   3.885  0.3132  1.3624  0.7721
   55MOL   H25514403   6.282   3.417   3.986 -1.2302  1.3041 -1.5661
   55MOL   H25614404   6.522   3.347   4.022  0.6423  2.7560  1.5064
   55MOL   H25714405   6.464   3.582   3.726 -0.5255 -1.6958  3.4117
   55MOL   H25814406   6.551   3.473   3.637  0.5010  1.0618 -0.0599
   55MOL   H25914407   6.641   3.602   3.727 -0.5909  1.3353  1.3039
   55MOL   H26014408   6.798   3.422   3.807  0.1930  1.0869  2.6929
   55MOL   H26114409   6.700   3.269   3.783  0.9794  1.5411 -2.4331
   55MOL   H26214410   6.736   3.326   3.939  1.3724 -0.3453 -0.3831
   56MOL     C114411   5.675   2.022   2.649 -0.5211 -0.6121  0.2766
   56MOL     C214412   5.638   2.071   2.784 -0.0585 -0.2405 -0.5025
   56MOL     C314413   5.638   2.004   2.901  0.1054 -0.2877 -0.0768
   56MOL     C414414   5.665   1.853   2.909 -0.2741  0.4444 -0.2264
   56MOL     C514415   5.593   2.068   3.030  0.6367  0.3658 -0.7543
   56MOL     H614416   5.747   1.940   2.647 -0.3004 -0.4020 -0.9204
   56MOL     H714417   5.588   1.991   2.592  0.5586 -1.3337 -1.0137
   56MOL     H814418   5.620   2.177   2.788 -0.8092 -0.3190 -1.6783
   56MOL     H914419   5.710   1.805   2.823 -1.9516  1.0085 -1.4391
   56MOL    H1014420   5.569   1.804   2.928  0.0509  0.6620  2.1157
   56MOL    H1114421   5.720   1.829   3.001  0.6299 -0.0050 -0.8790
   56MOL    H1214422   5.601   2.175   3.012 -0.7704  0.7912  0.9851
   56MOL    H1314423   5.666   2.046   3.108 -0.6339 -0.0410  0.3364
   56MOL    H1414424   5.726   2.106   2.602  1.9742 -1.6831  0.9939
   56MOL    C1514425   5.457   2.028   3.067 -0.1506 -0.5134  0.4317
   56MOL    C1614426   5.413   2.064   3.205 -0.2530 -0.0786 -0.6332
   56MOL    C1714427   5.443   2.003   3.320  0.4099 -0.1874  0.2737
   56MOL    C1814428   5.530   1.876   3.331  0.0666 -0.0893  0.5084
   56MOL    C1914429   5.389   2.058   3.447  0.1349  1.1501 -0.3061
   56MOL    H2014430   5.440   1.921   3.058 -1.6402 -0.2895  0.4786
   56MOL    H2114431   5.396   2.081   2.993 -1.4507 -1.2252  0.9722
   56MOL    H2214432   5.350   2.152   3.206 -0.4652 -0.2337 -0.3243
   56MOL    H2314433   5.546   1.845   3.434  2.5670  0.5770  0.3527
   56MOL    H2414434   5.620   1.888   3.271  0.1844 -0.5165  0.5996
   56MOL    H2514435   5.481   1.794   3.278  0.0199 -0.3386  0.9324
   56MOL    H2614436   5.343   2.153   3.419  1.3847  1.5727 -0.9905
   56MOL    H2714437   5.477   2.085   3.506  0.7124  0.7616 -0.9801
   56MOL    C2814438   5.306   1.949   3.522 -0.5441 -0.6752 -0.1911
   56MOL    C2914439   5.171   1.920   3.449 -0.4169  0.3285  0.0879
   56MOL    C3014440   5.055   1.877   3.502  0.0315  0.1699  0.6570
   56MOL    C3114441   5.050   1.836   3.647  0.1604  0.0217 -0.6871
   56MOL    C3214442   4.929   1.850   3.419  0.1718  0.1718 -0.5611
   56MOL    H3314443   5.290   1.981   3.625  0.8795  2.0269 -0.7645
   56MOL    H3414444   5.355   1.852   3.531 -0.6152 -0.7628 -0.7717
   56MOL    H3514445   5.180   1.949   3.345  0.1463  2.1559  0.6123
   56MOL    H3614446   4.947   1.830   3.681 -0.0555 -1.0248 -1.4943
   56MOL    H3714447   5.102   1.913   3.704  1.2958 -1.4003  0.2389
   56MOL    H3814448   5.092   1.738   3.667 -1.5014 -0.6276 -0.3700
   56MOL    H3914449   4.852   1.911   3.467  0.7040 -0.5565  1.2685
   56MOL    H4014450   4.896   1.746   3.429  0.6963  0.0225 -0.3920
   56MOL    C4114451   4.934   1.898   3.271  0.5187  0.2332  0.3685
   56MOL    C4214452   4.803   1.883   3.197  0.2532  0.3072  0.5070
   56MOL    C4314453   4.748   1.963   3.106  0.7723  0.3923  0.4598
   56MOL    C4414454   4.813   2.093   3.054  0.7517 -0.3603 -0.4730
   56MOL    C4514455   4.616   1.934   3.025 -0.1368 -0.0062  0.0358
   56MOL    H4614456   5.003   1.828   3.223  1.5114  0.7099  1.0788
   56MOL    H4714457   4.971   2.000   3.268  0.8963  0.0621 -1.1530
   56MOL    H4814458   4.751   1.790   3.216 -1.3717  1.4301  1.7178
   56MOL    H4914459   4.742   2.173   3.073 -0.1527 -1.1046 -0.6702
   56MOL    H5014460   4.822   2.106   2.947  3.0971  2.4523  0.0184
   56MOL    H5114461   4.907   2.116   3.103  1.8404 -4.0711 -0.6352
   56MOL    H5214462   4.657   1.921   2.925  1.5282  2.2850  0.3693
   56MOL    H5314463   4.552   2.023   3.027  1.6024  1.2781 -0.3441
   56MOL    C5414464   4.541   1.807   3.066  1.0043  0.0238 -0.0605
   56MOL    C5514465   4.423   1.787   2.974  0.1802 -0.5886 -0.5637
   56MOL    C5614466   4.413   1.701   2.864  0.0424  0.3843 -0.4480
   56MOL    C5714467   4.527   1.628   2.805 -0.1180  0.2705 -0.3846
   56MOL    C5814468   4.282   1.659   2.801 -0.3556 -0.1964  0.2589
   56MOL    H5914469   4.507   1.811   3.169 -0.2468 -1.1401 -0.4288
   56MOL    H6014470   4.596   1.713   3.059  2.3183  0.7642  0.0254
   56MOL    H6114471   4.338   1.841   3.015 -0.9013 -1.9630 -0.9550
   56MOL    H6214472   4.500   1.625   2.700 -0.7196 -0.6778 -0.2103
   56MOL    H6314473   4.550   1.532   2.850 -0.7036  0.7573  1.0015
   56MOL    H6414474   4.612   1.696   2.818 -0.3747  0.8305 -1.5565
   56MOL    H6514475   4.220   1.676   2.889 -0.9431 -2.5994  0.3555
   56MOL    H6614476   4.296   1.556   2.767  0.5275 -0.3061  0.9487
   56MOL    C6714477   4.236   1.746   2.687 -0.3415 -0.9136  0.9453
   56MOL    C6814478   4.190   1.877   2.745  0.0829  0.6064 -0.5656
   56MOL    C6914479   4.257   1.997   2.746  0.4257  0.7204 -0.1511
   56MOL    C7014480   4.402   2.009   2.708 -0.1276  0.8343 -0.2402
   56MOL    C7114481   4.190   2.123   2.790 -0.0252 -0.0653 -0.6748
   56MOL    H7214482   4.149   1.704   2.636  0.7582 -1.3079 -0.6475
   56MOL    H7314483   4.313   1.756   2.610 -0.5916  2.2560  1.0464
   56MOL    H7414484   4.083   1.883   2.760 -0.2649  0.0827 -2.6576
   56MOL    H7514485   4.456   2.061   2.787 -0.2725  1.1449 -0.3484
   56MOL    H7614486   4.407   2.065   2.615  0.4501 -1.8016 -1.8679
   56MOL    H7714487   4.446   1.911   2.691  0.1603  0.8161  0.5874
   56MOL    H7814488   4.243   2.179   2.867 -1.4910 -0.4863  0.6860
   56MOL    H7914489   4.090   2.098   2.829  0.6760  1.3275  2.1805
   56MOL    C8014490   4.177   2.230   2.676  0.5069 -0.5043  1.1596
   56MOL    C8114491   4.112   2.357   2.726 -0.2261  0.0842  0.6501
   56MOL    C8214492   3.982   2.396   2.713 -0.8023 -0.2189  1.1901
   56MOL    C8314493   3.879   2.316   2.642  0.0211 -0.2322 -0.1479
   56MOL    C8414494   3.925   2.524   2.767 -0.0675  0.3390 -0.8159
   56MOL    H8514495   4.130   2.196   2.584 -2.5630  2.8790  1.3832
   56MOL    H8614496   4.274   2.260   2.637 -0.6806  1.4831 -0.3470
   56MOL    H8714497   4.182   2.420   2.779  1.3593 -1.7355  0.7577
   56MOL    H8814498   3.904   2.210   2.645  0.2164 -0.1601  1.6937
   56MOL    H8914499   3.865   2.340   2.537  0.4889  1.2574  0.1068
   56MOL    H9014500   3.780   2.320   2.687 -1.9676 -4.2931 -3.7943
   56MOL    H9114501   3.995   2.573   2.834  0.1978  0.5438 -1.2432
   56MOL    H9214502   3.835   2.510   2.828 -1.9771  3.5144 -2.8071
   56MOL    C9314503   3.885   2.619   2.655 -0.0998  0.1394 -0.3910
   56MOL    C9414504   3.879   2.759   2.701 -0.2752 -0.0978  0.3453
   56MOL    C9514505   3.769   2.840   2.702 -0.2801  0.0691 -0.0132
   56MOL    C9614506   3.636   2.791   2.666  0.1153 -0.1149 -0.0875
   56MOL    C9714507   3.783   2.981   2.745  0.0993  0.4754  0.3324
   56MOL    H9814508   3.797   2.590   2.597  0.4462 -1.9190 -0.2308
   56MOL    H9914509   3.957   2.602   2.574  2.4985 -2.1974  2.3075
   56MOL   H10014510   3.977   2.793   2.731 -0.6464 -0.7691  2.3572
   56MOL   H10114511   3.629   2.773   2.558 -2.3086  1.7156 -0.2603
   56MOL   H10214512   3.558   2.864   2.686  0.2257 -0.3941  1.3588
   56MOL   H10314513   3.606   2.699   2.716  1.1954  0.5832  1.8800
   56MOL   H10414514   3.685   3.029   2.737  0.0163 -0.2911 -5.2177
   56MOL   H10514515   3.844   3.039   2.676 -0.5201  2.8062  1.6584
   56MOL   C10614516   3.844   2.979   2.888  0.4249 -0.2099  0.6025
   56MOL   C10714517   3.834   3.121   2.950 -0.8045  0.6651 -0.3723
   56MOL   C10814518   3.934   3.204   2.977 -0.2252 -0.0800  0.5362
   56MOL   C10914519   4.078   3.174   2.955  0.1073  1.1362  0.2231
   56MOL   C11014520   3.907   3.341   3.048 -0.5201  0.0188  0.0980
   56MOL   H11114521   3.944   2.937   2.893 -0.2144 -2.1306 -1.9095
   56MOL   H11214522   3.778   2.920   2.952  0.3947 -0.3707  0.4236
   56MOL   H11314523   3.733   3.151   2.976 -0.6010  1.1743 -0.1547
   56MOL   H11414524   4.117   3.144   3.052  0.9079 -0.1367 -0.4826
   56MOL   H11514525   4.132   3.253   2.903 -0.5490  0.0297 -2.2079
   56MOL   H11614526   4.099   3.078   2.909  2.1315  1.8943 -0.4552
   56MOL   H11714527   3.993   3.369   3.110  1.1708 -0.2856 -2.0413
   56MOL   H11814528   3.815   3.342   3.106 -0.0538  1.3189  0.8584
   56MOL   C11914529   3.884   3.441   2.932 -1.4061  0.2226  0.4437
   56MOL   C12014530   3.852   3.575   2.986  0.5572  0.0142  0.2860
   56MOL   C12114531   3.912   3.694   2.962 -0.0343  0.1060 -0.0424
   56MOL   C12214532   4.020   3.715   2.857  0.4628 -0.0469  0.0608
   56MOL   C12314533   3.859   3.816   3.037 -0.6500  0.2084  0.2747
   56MOL   H12414534   3.802   3.395   2.877 -0.8836 -0.6374  0.3579
   56MOL   H12514535   3.965   3.434   2.859 -1.7353  3.5087 -0.2835
   56MOL   H12614536   3.770   3.577   3.055 -0.7447 -1.3911 -1.1663
   56MOL   H12714537   4.029   3.624   2.798  0.6006  0.7029 -1.0921
   56MOL   H12814538   4.117   3.740   2.899  1.2644 -0.2843 -1.6041
   56MOL   H12914539   3.995   3.798   2.791  1.2461 -1.4664 -2.0986
   56MOL   H13014540   3.783   3.794   3.113  0.7665 -1.7355  1.1670
   56MOL   H13114541   3.796   3.882   2.977 -1.7233 -1.1190 -0.0892
   56MOL   C13214542   3.968   3.877   3.115  0.3695 -0.1068  0.0604
   56MOL   C13314543   3.927   3.982   3.215  0.1654  0.0400  0.0665
   56MOL   C13414544   3.931   4.117   3.198  0.3392  0.6999 -0.7419
   56MOL   C13514545   3.983   4.194   3.077  0.5377 -0.8402  0.3502
   56MOL   C13614546   3.928   4.207   3.323 -0.3085  0.4561 -0.2116
   56MOL   H13714547   4.040   3.914   3.042 -0.3305  0.5371 -0.3096
   56MOL   H13814548   4.022   3.805   3.176 -0.4420 -0.5771  0.2192
   56MOL   H13914549   3.908   3.946   3.315 -2.8569  1.7365  0.1659
   56MOL   H14014550   4.084   4.222   3.105  0.9088 -2.0867  0.2911
   56MOL   H14114551   3.919   4.277   3.044  1.7990 -0.9657 -2.5933
   56MOL   H14214552   3.993   4.124   2.994 -1.8853 -0.9919  0.1218
   56MOL   H14314553   3.847   4.281   3.323  1.4126  2.3977 -1.3293
   56MOL   H14414554   4.015   4.270   3.303 -0.2408  0.2886 -0.4304
   56MOL   C14514555   3.932   4.132   3.464 -0.3441  0.2738  0.3094
   56MOL   C14614556   3.966   4.220   3.581  0.1890 -0.2183  0.2872
   56MOL   C14714557   4.081   4.201   3.652  0.4179  0.8593  0.2056
   56MOL   C14814558   4.194   4.109   3.623 -0.0264 -0.7102  0.6694
   56MOL   C14914559   4.094   4.292   3.768 -0.3122  0.4137 -0.3185
   56MOL   H15014560   3.990   4.040   3.459  0.5684  0.8152  0.8114
   56MOL   H15114561   3.834   4.093   3.492 -0.2330  0.3194  0.7581
   56MOL   H15214562   3.894   4.289   3.621 -0.6053  0.7254 -2.6553
   56MOL   H15314563   4.200   4.091   3.516  1.1371 -1.1004  0.7984
   56MOL   H15414564   4.174   4.007   3.656 -2.7399 -0.8868 -1.3691
   56MOL   H15514565   4.291   4.140   3.661 -0.6023  1.2048  0.6101
   56MOL   H15614566   4.085   4.396   3.737  1.3343  0.3808 -0.9583
   56MOL   H15714567   4.198   4.287   3.802 -0.3727  0.2475 -0.1560
   56MOL   C15814568   3.994   4.262   3.888  0.6330  0.1263 -0.0519
   56MOL   C15914569   4.024   4.332   4.013 -0.4510  0.2625  0.6380
   56MOL   C16014570   3.937   4.342   4.115 -0.6589  0.3767  0.2021
   56MOL   C16114571   3.808   4.264   4.119 -0.5801  0.4254  0.0073
   56MOL   C16214572   3.969   4.429   4.234 -0.0152 -0.0447  0.1182
   56MOL   H16314573   3.995   4.155   3.910 -0.0401 -0.4359 -2.5612
   56MOL   H16414574   3.897   4.289   3.847  1.0675  2.0671  0.1661
   56MOL   H16514575   4.111   4.396   4.019 -1.2118  1.2508  1.4456
   56MOL   H16614576   3.725   4.331   4.140 -1.5340 -1.3706  2.1750
   56MOL   H16714577   3.810   4.186   4.195 -1.2540  1.2087  0.8403
   56MOL   H16814578   3.772   4.213   4.029 -1.7151 -1.1253  1.3167
   56MOL   H16914579   4.071   4.465   4.239  0.5015 -0.7979 -3.8673
   56MOL   H17014580   3.946   4.363   4.318  0.6119  1.9035  1.8922
   56MOL   C17114581   3.874   4.552   4.257 -0.9102 -0.6743 -0.1278
   56MOL   C17214582   3.911   4.659   4.156  0.1620 -0.0738  0.6312
   56MOL   C17314583   3.888   4.793   4.164 -0.8452 -0.1111 -0.3733
   56MOL   C17414584   3.838   4.863   4.282  0.0164  0.5281  0.2240
   56MOL   C17514585   3.919   4.883   4.041 -0.0699 -0.0590  0.3554
   56MOL   H17614586   3.895   4.593   4.356  0.3025  0.0722 -0.6834
   56MOL   H17714587   3.771   4.521   4.246 -1.0074  0.5262 -3.0009
   56MOL   H17814588   3.932   4.614   4.060  1.0917  1.3888  0.1232
   56MOL   H17914589   3.740   4.822   4.307 -0.4552  0.5743 -1.4642
   56MOL   H18014590   3.838   4.970   4.265  2.4723  0.2543 -1.8171
   56MOL   H18114591   3.905   4.835   4.363  0.1953 -1.6230 -0.6209
   56MOL   H18214592   3.976   4.842   3.957 -0.4855  0.8080 -0.3480
   56MOL   H18314593   3.990   4.956   4.081 -1.4728  1.4165  0.2126
   56MOL   C18414594   3.798   4.950   3.985 -0.1171 -0.4056  0.3562
   56MOL   C18514595   3.837   5.060   3.886 -0.6032 -0.5866  0.3279
   56MOL   C18614596   3.841   5.192   3.905 -0.2470 -0.8978 -0.3509
   56MOL   C18714597   3.808   5.250   4.040  0.1043  0.2723 -0.0488
   56MOL   C18814598   3.893   5.290   3.803 -0.2574 -0.1604 -0.2620
   56MOL   H18914599   3.733   4.980   4.067 -1.2841 -0.0796 -0.6840
   56MOL   H19014600   3.752   4.871   3.927 -2.5828  1.0508  0.2718
   56MOL   H19114601   3.856   5.017   3.788  0.3055  1.3702 -0.3675
   56MOL   H19214602   3.835   5.191   4.128  1.0674 -0.4259 -0.8040
   56MOL   H19314603   3.699   5.252   4.027  0.0698  1.1280  0.3332
   56MOL   H19414604   3.841   5.353   4.049 -0.1608  0.4354 -0.8870
   56MOL   H19514605   3.919   5.235   3.713  1.8481 -1.2902  0.9697
   56MOL   H19614606   3.986   5.332   3.842 -0.8883 -1.0991  2.3717
   56MOL   C19714607   3.793   5.402   3.762 -0.5939 -0.2733  0.7744
   56MOL   C19814608   3.856   5.487   3.649 -0.1004  0.0028  0.1259
   56MOL   C19914609   3.846   5.470   3.516  0.1761  0.3550 -0.1672
   56MOL   C20014610   3.772   5.352   3.461 -0.5362 -0.0688  0.4761
   56MOL   C20114611   3.911   5.556   3.413  0.4485 -0.3776  0.4650
   56MOL   H20214612   3.766   5.467   3.846 -2.4732  0.0893 -0.0894
   56MOL   H20314613   3.703   5.354   3.725 -1.6029  1.2748  1.1581
   56MOL   H20414614   3.922   5.566   3.680  0.0581  0.3091 -0.9717
   56MOL   H20514615   3.749   5.272   3.531  0.0950 -1.3329 -0.7269
   56MOL   H20614616   3.821   5.311   3.373  0.5066  0.3722  0.8351
   56MOL   H20714617   3.678   5.389   3.421 -0.1332  1.4802  0.9401
   56MOL   H20814618   3.981   5.500   3.352  0.6506  1.9784 -1.5903
   56MOL   H20914619   3.964   5.627   3.476  1.2950 -0.2584 -0.3634
   56MOL   C21014620   3.799   5.610   3.310  0.4601 -0.4880 -0.2540
   56MOL   C21114621   3.689   5.699   3.375  0.2610  0.6411  0.4122
   56MOL   C21214622   3.641   5.819   3.343 -0.2573  0.7687  0.6936
   56MOL   C21314623   3.683   5.901   3.224 -0.3119 -0.2863  0.4296
   56MOL   C21414624   3.528   5.888   3.419  0.7205  0.1380 -0.0952
   56MOL   H21514625   3.754   5.525   3.259  0.6012 -0.6418 -0.1213
   56MOL   H21614626   3.840   5.683   3.240 -2.2972  0.6461 -0.7439
   56MOL   H21714627   3.650   5.663   3.469 -0.8969  1.3807  0.2144
   56MOL   H21814628   3.744   5.847   3.151  0.4162  0.9424  0.1047
   56MOL   H21914629   3.730   5.994   3.256 -0.6360  0.2120 -0.5308
   56MOL   H22014630   3.595   5.935   3.169 -0.9875 -0.7178  1.2471
   56MOL   H22114631   3.558   5.992   3.432  2.4998 -0.3354 -0.2107
   56MOL   H22214632   3.513   5.836   3.514  0.3878  0.0054 -0.2215
   56MOL   C22314633   3.392   5.886   3.343  0.1098  0.3788 -0.5044
   56MOL   C22414634   3.330   5.746   3.346  0.0986  0.5317 -0.2219
   56MOL   C22514635   3.258   5.689   3.245 -0.3122 -0.4100 -0.2613
   56MOL   C22614636   3.238   5.761   3.107 -0.2953  0.1561  0.2196
   56MOL   C22714637   3.211   5.539   3.250 -0.8066  0.8000 -0.1300
   56MOL   H22814638   3.396   5.925   3.241  0.5677 -1.5241 -1.2200
   56MOL   H22914639   3.317   5.949   3.392  0.1418 -1.5875  2.1205
   56MOL   H23014640   3.360   5.694   3.436  0.7392 -0.8581 -1.2163
   56MOL   H23114641   3.154   5.718   3.053 -0.5321  0.5324  0.2856
   56MOL   H23214642   3.327   5.750   3.045 -3.7356 -1.3623 -4.6939
   56MOL   H23314643   3.222   5.869   3.110  0.9491  0.4309 -1.9296
   56MOL   H23414644   3.250   5.483   3.165 -0.7997 -0.0508  0.4320
   56MOL   H23514645   3.102   5.536   3.248 -0.8025  1.0030 -2.6144
   56MOL   C23614646   3.267   5.453   3.377 -0.8451  0.2481 -0.1971
   56MOL   C23714647   3.222   5.495   3.518 -0.4494 -0.3073  0.2572
   56MOL   C23814648   3.296   5.502   3.633 -0.0223  0.5907 -0.0975
   56MOL   C23914649   3.451   5.487   3.633  0.1332 -0.1652  0.0461
   56MOL   C24014650   3.233   5.522   3.768  0.1468  0.2242 -0.6559
   56MOL   H24114651   3.375   5.455   3.369 -0.6735  0.3209  2.0040
   56MOL   H24214652   3.240   5.349   3.356 -1.4451  0.4604 -0.5129
   56MOL   H24314653   3.115   5.498   3.532 -0.3517 -2.0549  1.5954
   56MOL   H24414654   3.493   5.588   3.635 -2.5857  1.0538 -1.3634
   56MOL   H24514655   3.495   5.415   3.564 -0.6146 -0.4919 -0.0913
   56MOL   H24614656   3.477   5.444   3.729 -1.8253  1.6757  1.4610
   56MOL   H24714657   3.136   5.572   3.760 -0.1282  0.1810  1.9445
   56MOL   H24814658   3.292   5.588   3.830  0.3110 -0.7614  0.2522
   56MOL   C24914659   3.192   5.387   3.826 -0.0224 -0.0999  0.1117
   56MOL   C25014660   3.121   5.405   3.955  0.3309 -0.2974 -0.3438
   56MOL   C25114661   3.182   5.409   4.075 -0.5829  0.0206  0.2758
   56MOL   C25214662   3.329   5.396   4.093 -0.9342 -0.0584 -0.2757
   56MOL   C25314663   3.103   5.432   4.199 -0.5294  0.0872 -0.4221
   56MOL   H25414664   3.278   5.320   3.830  0.1807  0.2578  2.0136
   56MOL   H25514665   3.118   5.343   3.759 -1.4336  1.1959  0.8055
   56MOL   H25614666   3.014   5.416   3.959  0.5151  0.8425  2.2676
   56MOL   H25714667   3.372   5.496   4.104  0.7774 -0.7973 -0.1103
   56MOL   H25814668   3.388   5.362   4.007 -0.7585 -1.5312  0.4143
   56MOL   H25914669   3.367   5.326   4.167  0.3138 -0.3315 -1.1595
   56MOL   H26014670   3.125   5.527   4.249  1.5889 -0.5065 -0.1631
   56MOL   H26114671   3.119   5.349   4.267  1.1753 -0.8598 -1.9446
   56MOL   H26214672   2.997   5.436   4.173 -0.8587  0.0588  0.8722
   57MOL     C114673   3.171   1.102   7.423  0.1177  0.2120  0.3091
   57MOL     C214674   3.300   1.115   7.359  0.2154 -0.9160 -0.2428
   57MOL     C314675   3.391   1.214   7.380  0.1065  0.7617 -0.2930
   57MOL     C414676   3.372   1.328   7.474  0.3043 -0.1912 -0.2217
   57MOL     C514677   3.529   1.205   7.304  0.8024  0.3256 -0.0770
   57MOL     H614678   3.094   1.149   7.362  0.7448  0.9746  0.1046
   57MOL     H714679   3.150   0.995   7.431  0.8413  0.3091  4.3579
   57MOL     H814680   3.328   1.038   7.289  2.8644  0.2367 -0.5205
   57MOL     H914681   3.408   1.303   7.574 -1.4000 -1.5577  0.0967
   57MOL    H1014682   3.266   1.354   7.476  0.3536  0.0706 -0.9377
   57MOL    H1114683   3.405   1.427   7.444  2.3444 -0.0656  2.2280
   57MOL    H1214684   3.553   1.108   7.260  2.7330  0.1363  1.3554
   57MOL    H1314685   3.608   1.213   7.378 -0.3808 -1.4257  1.4061
   57MOL    H1414686   3.167   1.147   7.522  1.4638 -1.0463  0.9614
   57MOL    C1514687   3.552   1.306   7.192  0.3555  0.6622 -0.6678
   57MOL    C1614688   3.460   1.270   7.073  0.6888 -0.3092  0.0205
   57MOL    C1714689   3.341   1.322   7.039 -0.0051 -0.1606 -0.0779
   57MOL    C1814690   3.269   1.429   7.126 -0.8034  0.7523  0.0118
   57MOL    C1914691   3.254   1.262   6.927 -1.0858 -0.7327 -0.5870
   57MOL    H2014692   3.655   1.310   7.156  0.6628 -2.2236 -0.2203
   57MOL    H2114693   3.526   1.402   7.236 -0.6001  0.1728 -0.1511
   57MOL    H2214694   3.492   1.184   7.015 -0.7555 -0.7582 -0.1453
   57MOL    H2314695   3.218   1.363   7.196 -2.1491  1.0770 -0.6444
   57MOL    H2414696   3.199   1.491   7.070 -0.3434 -0.3597 -1.8326
   57MOL    H2514697   3.339   1.496   7.177  0.2838 -1.6781  1.7750
   57MOL    H2614698   3.242   1.351   6.865 -0.2468 -0.6480 -0.6400
   57MOL    H2714699   3.160   1.222   6.963  1.3321 -4.5903  1.8495
   57MOL    C2814700   3.315   1.140   6.851  0.0898  0.5032  0.2039
   57MOL    C2914701   3.225   1.094   6.730 -0.3588  0.2990 -0.9141
   57MOL    C3014702   3.133   0.996   6.724  0.3241 -0.4890 -0.3289
   57MOL    C3114703   3.117   0.887   6.827  0.2343  0.1557  0.1076
   57MOL    C3214704   3.042   0.988   6.595 -0.2794 -0.0518 -0.2347
   57MOL    H3314705   3.343   1.061   6.921 -0.6893 -0.9405 -1.1009
   57MOL    H3414706   3.414   1.166   6.814 -0.5068  0.7430 -1.2399
   57MOL    H3514707   3.226   1.164   6.648 -3.7977 -0.3958 -1.6084
   57MOL    H3614708   3.197   0.890   6.901  0.5149 -2.0619 -0.0639
   57MOL    H3714709   3.108   0.792   6.773 -1.2436  0.0821  0.4597
   57MOL    H3814710   3.026   0.896   6.886 -1.1958 -0.8068 -1.8941
   57MOL    H3914711   3.072   0.894   6.549  0.6850 -0.0018  0.2841
   57MOL    H4014712   3.072   1.071   6.531 -1.3029  1.0154  0.6448
   57MOL    C4114713   2.887   0.975   6.618 -0.2961  0.0463  0.3566
   57MOL    C4214714   2.791   0.986   6.498  0.5617 -0.2449 -0.1875
   57MOL    C4314715   2.653   0.993   6.508  0.7558  0.3549  0.6843
   57MOL    C4414716   2.588   0.979   6.645 -0.0387  0.2734  0.4699
   57MOL    C4514717   2.557   1.019   6.387  0.2790 -0.1605  1.0912
   57MOL    H4614718   2.853   1.044   6.695  1.3570  0.8412  0.4038
   57MOL    H4714719   2.874   0.871   6.644 -0.2833 -0.2305 -0.7146
   57MOL    H4814720   2.828   1.016   6.401 -1.9591  0.1028 -1.0837
   57MOL    H4914721   2.608   0.882   6.690 -1.0480 -0.2364 -0.1657
   57MOL    H5014722   2.480   0.995   6.648 -0.3951 -2.2358  1.9218
   57MOL    H5114723   2.629   1.055   6.713  2.8445 -0.0560 -0.8429
   57MOL    H5214724   2.492   0.932   6.379 -1.2938  0.9737  1.2862
   57MOL    H5314725   2.606   1.006   6.291 -1.0073 -3.7505  0.8556
   57MOL    C5414726   2.467   1.147   6.395  0.8749 -0.9232  0.4859
   57MOL    C5514727   2.395   1.174   6.269  0.5324 -0.3391 -0.5408
   57MOL    C5614728   2.425   1.261   6.173 -0.0457  0.5440 -0.2111
   57MOL    C5714729   2.545   1.353   6.177 -0.5653  0.4519 -0.5464
   57MOL    C5814730   2.349   1.262   6.041 -0.3177 -0.3680 -0.3207
   57MOL    H5914731   2.534   1.230   6.419 -0.1550 -0.1550  0.7582
   57MOL    H6014732   2.392   1.147   6.474  0.8810 -1.9141  0.4964
   57MOL    H6114733   2.308   1.110   6.260 -0.7596  0.9315  2.0350
   57MOL    H6214734   2.564   1.363   6.284 -0.9854 -2.6917 -0.1474
   57MOL    H6314735   2.517   1.452   6.141  0.4719  1.4889  1.4467
   57MOL    H6414736   2.635   1.318   6.126 -0.4076  0.9677 -0.6235
   57MOL    H6514737   2.376   1.353   5.987 -2.3393 -0.0085 -0.7639
   57MOL    H6614738   2.243   1.282   6.056 -0.6330 -1.3245 -1.1731
   57MOL    C6714739   2.376   1.133   5.961  0.0332 -0.0498 -0.3365
   57MOL    C6814740   2.312   1.135   5.826 -0.2103  0.4069  0.2467
   57MOL    C6914741   2.239   1.037   5.784  0.6643 -0.3444 -0.2238
   57MOL    C7014742   2.193   0.917   5.866  0.2899 -0.6926 -0.1271
   57MOL    C7114743   2.183   1.041   5.645  0.3757  0.1816  0.2631
   57MOL    H7214744   2.328   1.060   6.026 -0.7266  2.5263  2.0711
   57MOL    H7314745   2.482   1.112   5.955 -0.3547 -1.8620 -1.2771
   57MOL    H7414746   2.335   1.211   5.753  1.1158 -1.8771 -1.7812
   57MOL    H7514747   2.101   0.937   5.922  0.4477 -0.6884  0.1292
   57MOL    H7614748   2.259   0.883   5.946 -1.7042 -1.1372  1.3780
   57MOL    H7714749   2.169   0.829   5.806 -1.2460 -1.2842  1.2806
   57MOL    H7814750   2.191   0.939   5.608  0.3418  1.0404 -2.1467
   57MOL    H7914751   2.244   1.101   5.578  0.9612  0.2661  0.8597
   57MOL    C8014752   2.037   1.071   5.643 -0.3349  0.0691 -0.2746
   57MOL    C8114753   2.006   1.195   5.727 -0.7602 -0.0850 -0.2282
   57MOL    C8214754   1.982   1.321   5.689 -0.1460  0.1149 -0.1622
   57MOL    C8314755   1.995   1.370   5.545 -0.4048  0.0344 -0.6381
   57MOL    C8414756   1.947   1.421   5.787  0.2741  0.3912  0.4468
   57MOL    H8514757   1.972   0.991   5.678 -1.0163 -0.7995 -3.3335
   57MOL    H8614758   2.010   1.084   5.538 -1.9564  2.5803  0.4037
   57MOL    H8714759   1.989   1.180   5.833  0.1083  1.4584  0.1554
   57MOL    H8814760   1.910   1.437   5.537 -0.7017 -0.3967 -1.1757
   57MOL    H8914761   1.981   1.282   5.482  3.3124 -1.7240  0.7837
   57MOL    H9014762   2.090   1.424   5.539 -0.2679 -0.3422 -1.9850
   57MOL    H9114763   1.983   1.518   5.751  0.4775  0.2613  0.3026
   57MOL    H9214764   2.004   1.393   5.876  1.9236  3.1685  0.3335
   57MOL    C9314765   1.801   1.438   5.805 -0.0645  0.4999 -0.5810
   57MOL    C9414766   1.767   1.537   5.913  0.5113  0.2788 -0.1851
   57MOL    C9514767   1.732   1.671   5.898  0.2621  0.2555  0.1684
   57MOL    C9614768   1.701   1.732   5.761  0.2300  0.2368 -0.1877
   57MOL    C9714769   1.703   1.760   6.015 -0.1799  0.2662 -1.2904
   57MOL    H9814770   1.761   1.338   5.823 -1.6266  1.3723  0.8672
   57MOL    H9914771   1.753   1.458   5.709 -0.2885 -0.4642 -0.6791
   57MOL   H10014772   1.795   1.498   6.010 -0.5641 -1.8848 -0.7141
   57MOL   H10114773   1.714   1.662   5.678 -0.6293  1.8977 -1.7641
   57MOL   H10214774   1.774   1.811   5.742  1.5705 -1.4883 -2.4581
   57MOL   H10314775   1.598   1.769   5.767  0.1792 -0.1396  1.3662
   57MOL   H10414776   1.742   1.701   6.099  0.1109  1.7575 -0.3625
   57MOL   H10514777   1.595   1.764   6.018 -0.2695 -1.5536 -1.7162
   57MOL   C10614778   1.761   1.901   6.016  0.6685 -0.2344  0.4100
   57MOL   C10714779   1.712   1.966   6.141  0.3521 -0.4574 -0.5813
   57MOL   C10814780   1.760   1.942   6.267 -0.7315 -0.0492  0.0817
   57MOL   C10914781   1.870   1.839   6.299  0.1449 -0.1784  0.6114
   57MOL   C11014782   1.696   2.009   6.386  0.5439  0.1876 -0.5057
   57MOL   H11114783   1.716   1.958   5.935  1.4141  1.4004  1.1292
   57MOL   H11214784   1.869   1.890   6.005  0.8142  1.6493 -0.2088
   57MOL   H11314785   1.631   2.036   6.127  0.9081 -0.0866 -1.9925
   57MOL   H11414786   1.936   1.822   6.214  1.4032 -1.0806  1.7296
   57MOL   H11514787   1.840   1.750   6.355  1.0998  0.1028  1.6037
   57MOL   H11614788   1.949   1.887   6.358 -0.1734 -2.0896  2.6872
   57MOL   H11714789   1.621   2.080   6.352  1.0353  0.1312 -1.7312
   57MOL   H11814790   1.768   2.073   6.437  1.5910 -1.0745 -0.3851
   57MOL   C11914791   1.640   1.908   6.486 -0.1953 -0.1059 -0.1969
   57MOL   C12014792   1.583   1.986   6.610 -0.0911 -0.1237 -0.9645
   57MOL   C12114793   1.620   1.971   6.736  0.2802 -0.4089 -0.2200
   57MOL   C12214794   1.731   1.885   6.776  0.2982 -0.0204 -0.2911
   57MOL   C12314795   1.561   2.055   6.846  0.5335 -0.2217  0.6932
   57MOL   H12414796   1.720   1.841   6.516 -0.3867 -1.3308 -2.3226
   57MOL   H12514797   1.560   1.846   6.444 -0.6527  1.6584 -2.0034
   57MOL   H12614798   1.514   2.068   6.598  0.9480  1.1549  1.6490
   57MOL   H12714799   1.716   1.874   6.884  0.1886  0.8172 -0.2203
   57MOL   H12814800   1.826   1.939   6.777  2.0728 -3.0280 -0.4084
   57MOL   H12914801   1.723   1.788   6.726  2.7174 -0.7302  0.5882
   57MOL   H13014802   1.508   2.139   6.800  1.8020  1.4916  2.3287
   57MOL   H13114803   1.642   2.092   6.908  0.1964  0.9160  0.4585
   57MOL   C13214804   1.455   1.982   6.937 -0.2372  0.3918  0.1599
   57MOL   C13314805   1.341   1.916   6.861 -0.1250  0.3380  0.8073
   57MOL   C13414806   1.292   1.789   6.884  0.4289 -0.1266  0.4289
   57MOL   C13514807   1.330   1.699   6.999  0.3970  0.0201 -0.2427
   57MOL   C13614808   1.176   1.731   6.805 -1.1141  0.1258  0.0170
   57MOL   H13714809   1.399   2.048   7.004  1.0951  0.8726  0.8279
   57MOL   H13814810   1.513   1.921   7.007  2.6212  0.5652 -1.9959
   57MOL   H13914811   1.298   1.980   6.785  1.0521  0.0494 -0.1088
   57MOL   H14014812   1.401   1.738   7.073  1.6978  0.6145 -1.7528
   57MOL   H14114813   1.382   1.615   6.953  1.7834  0.2403  0.8711
   57MOL   H14214814   1.238   1.668   7.047  0.6884  2.5592  2.1340
   57MOL   H14314815   1.178   1.624   6.785 -0.5507  0.3568 -1.2312
   57MOL   H14414816   1.202   1.768   6.706 -1.2439  0.0451 -0.0461
   57MOL   C14514817   1.049   1.786   6.865 -0.0783 -0.1701  0.0597
   57MOL   C14614818   0.929   1.768   6.771  0.0383  0.0402  0.3774
   57MOL   C14714819   0.813   1.713   6.808 -0.3627  0.8745 -0.3022
   57MOL   C14814820   0.773   1.663   6.950 -0.1049  0.2684  0.6529
   57MOL   C14914821   0.700   1.706   6.706  0.0896 -0.4796  0.2158
   57MOL   H15014822   1.051   1.893   6.884  2.1071  0.0080 -1.0278
   57MOL   H15114823   1.035   1.723   6.953 -1.6527  0.6672  0.4176
   57MOL   H15214824   0.935   1.800   6.668  1.2728 -2.4385 -0.3673
   57MOL   H15314825   0.737   1.561   6.937 -0.7548 -0.0538  4.5485
   57MOL   H15414826   0.689   1.710   7.000 -0.8167  0.4289 -0.6579
   57MOL   H15514827   0.853   1.641   7.020  0.7882  1.7950  0.1513
   57MOL   H15614828   0.745   1.773   6.632  0.0183  0.0816  0.6711
   57MOL   H15714829   0.605   1.751   6.734 -0.9620 -0.9870 -2.4139
   57MOL   C15814830   0.682   1.572   6.635  0.1309 -0.0141  0.0846
   57MOL   C15914831   0.617   1.458   6.716  0.3253 -0.1295 -0.4667
   57MOL   C16014832   0.665   1.332   6.736 -0.3534  0.1336  0.9516
   57MOL   C16114833   0.800   1.281   6.681  0.5532 -0.2446  0.4689
   57MOL   C16214834   0.588   1.232   6.819 -0.5701 -0.1622  0.2274
   57MOL   H16314835   0.778   1.530   6.607 -0.0442 -0.6844  0.5064
   57MOL   H16414836   0.624   1.593   6.545  0.5165  2.0074  0.2631
   57MOL   H16514837   0.530   1.488   6.772  1.7209 -0.7092  2.1571
   57MOL   H16614838   0.782   1.274   6.574  0.5571 -1.7877  0.5486
   57MOL   H16714839   0.836   1.180   6.702  1.8653  0.2519  0.6498
   57MOL   H16814840   0.878   1.357   6.689  1.1744 -0.6924 -1.2003
   57MOL   H16914841   0.590   1.138   6.765  1.6111 -1.4620  2.4433
   57MOL   H17014842   0.482   1.258   6.820 -0.1140  1.7437  0.4385
   57MOL   C17114843   0.634   1.239   6.968  0.3794 -0.0458  0.4762
   57MOL   C17214844   0.757   1.156   6.993  0.0228  0.0800 -0.3250
   57MOL   C17314845   0.818   1.127   7.110  0.7942 -0.0411 -0.2250
   57MOL   C17414846   0.767   1.183   7.243  0.2448 -0.5795 -1.0311
   57MOL   C17514847   0.939   1.028   7.120  0.3265  0.0007  0.0985
   57MOL   H17614848   0.553   1.180   7.012 -0.0905  1.0978  1.1679
   57MOL   H17714849   0.640   1.340   7.010 -0.1816 -0.1365  0.7795
   57MOL   H17814850   0.801   1.100   6.912  1.3059 -1.3488  1.3292
   57MOL   H17914851   0.842   1.251   7.284  0.0218 -0.2095 -1.2402
   57MOL   H18014852   0.748   1.096   7.306  3.2708 -0.8750 -0.4522
   57MOL   H18114853   0.675   1.241   7.243  0.4966 -0.1513  0.3484
   57MOL   H18214854   0.940   0.941   7.054  2.7787  0.7326 -0.8920
   57MOL   H18314855   0.936   0.975   7.215  1.6720 -0.8235 -0.3128
   57MOL   C18414856   1.075   1.099   7.092 -0.6653 -0.2107 -0.6158
   57MOL   C18514857   1.100   1.206   7.201  0.3106 -0.2928  0.2777
   57MOL   C18614858   1.151   1.329   7.184 -0.0405  0.0108 -0.1561
   57MOL   C18714859   1.208   1.385   7.056 -0.0479  0.3410 -0.2620
   57MOL   C18814860   1.149   1.432   7.290  0.0148  0.0637 -0.1013
   57MOL   H18914861   1.066   1.149   6.995 -0.9632  1.5315  0.2858
   57MOL   H19014862   1.152   1.023   7.080 -2.3965 -1.9740 -0.8433
   57MOL   H19114863   1.072   1.186   7.303  0.6505  2.0059  0.8327
   57MOL   H19214864   1.293   1.447   7.086 -0.3898  0.5130  0.3505
   57MOL   H19314865   1.137   1.453   7.010 -1.1176 -1.1646 -0.8688
   57MOL   H19414866   1.243   1.295   7.005  1.1351  0.1352  0.8792
   57MOL   H19514867   1.224   1.511   7.282  0.3703 -0.3969 -1.3198
   57MOL   H19614868   1.157   1.375   7.383 -0.9367 -0.5382 -0.3792
   57MOL   C19714869   1.018   1.503   7.300 -0.2647 -0.0235 -0.5141
   57MOL   C19814870   1.010   1.618   7.401 -0.4728 -0.0140 -0.2889
   57MOL   C19914871   0.907   1.704   7.413  0.2560 -0.1889  0.1954
   57MOL   C20014872   0.784   1.700   7.329  0.0313 -0.8834  0.3554
   57MOL   C20114873   0.910   1.822   7.518  0.0652  0.8522  0.4116
   57MOL   H20214874   0.936   1.434   7.323 -0.5905  0.2498 -0.8407
   57MOL   H20314875   0.991   1.557   7.209 -1.2716 -2.1684 -1.5205
   57MOL   H20414876   1.100   1.648   7.453 -1.5933  0.1537  1.5695
   57MOL   H20514877   0.767   1.607   7.275  0.6834 -0.9732  0.3040
   57MOL   H20614878   0.768   1.787   7.265 -2.6792 -3.4776 -2.6723
   57MOL   H20714879   0.701   1.696   7.400 -0.9068 -0.1052 -0.6720
   57MOL   H20814880   0.992   1.809   7.588  0.4523  1.8955  0.1621
   57MOL   H20914881   0.823   1.819   7.584  0.5044 -3.2224  0.9185
   57MOL   C21014882   0.939   1.953   7.449  0.2217 -0.0577  0.4993
   57MOL   C21114883   0.816   2.029   7.400  0.6011  0.9648 -0.0327
   57MOL   C21214884   0.780   2.047   7.270 -0.0195 -0.8821 -0.0090
   57MOL   C21314885   0.867   2.008   7.147  0.5090 -0.2759  0.0913
   57MOL   C21414886   0.657   2.130   7.241 -0.4416  0.2060  0.0143
   57MOL   H21514887   1.000   1.939   7.360 -1.0001  0.4452 -0.4405
   57MOL   H21614888   0.996   2.025   7.507  1.6493 -1.0784  0.3697
   57MOL   H21714889   0.743   2.054   7.475  0.7981  0.6044  0.2775
   57MOL   H21814890   0.845   1.907   7.112 -0.0582 -0.0637 -0.1810
   57MOL   H21914891   0.972   2.037   7.154  0.6490 -0.6918 -0.2164
   57MOL   H22014892   0.840   2.066   7.058 -0.9648  1.5605  1.6772
   57MOL   H22114893   0.684   2.212   7.175 -2.3225 -0.8741 -2.1718
   57MOL   H22214894   0.615   2.173   7.332 -0.5669  1.6298 -0.7076
   57MOL   C22314895   0.551   2.052   7.159 -0.0424 -0.2457  0.2385
   57MOL   C22414896   0.446   2.143   7.096  0.1357 -0.7190  0.0691
   57MOL   C22514897   0.314   2.161   7.127  0.1931  0.1937 -0.0152
   57MOL   C22614898   0.244   2.056   7.215 -0.1645  0.0562  0.4491
   57MOL   C22714899   0.227   2.262   7.052 -0.0062  0.4662  0.1839
   57MOL   H22814900   0.509   1.980   7.228  0.7971 -0.5358  0.4400
   57MOL   H22914901   0.600   2.000   7.076 -0.5024 -0.8851  0.3650
   57MOL   H23014902   0.492   2.202   7.019  0.0087 -0.2542  0.3440
   57MOL   H23114903   0.197   2.093   7.306 -3.5118  1.5764 -1.8178
   57MOL   H23214904   0.306   1.975   7.254  1.8985  1.4748  0.2166
   57MOL   H23314905   0.164   2.007   7.160  0.6682 -3.4165  2.1399
   57MOL   H23414906   0.155   2.214   6.985 -0.1264  1.0702 -0.1281
   57MOL   H23514907   0.293   2.321   6.988 -0.0730 -0.5633 -0.8405
   57MOL   C23614908   0.151   2.353   7.146 -0.4214 -0.0712  0.8291
   57MOL   C23714909   0.079   2.452   7.058 -0.3109 -0.7129 -0.1693
   57MOL   C23814910   0.085   2.590   7.077  0.1553 -1.1633  0.0240
   57MOL   C23914911   0.147   2.651   7.207  0.3048  0.5724 -0.1843
   57MOL   C24014912   7.882   2.688   7.000  0.6820  0.5657 -0.5547
   57MOL   H24114913   0.240   2.395   7.192  0.6031  0.0056 -1.1455
   57MOL   H24214914   0.078   2.303   7.210  0.9010 -1.9985  0.8701
   57MOL   H24314915   0.015   2.410   6.982 -1.8389  0.0053  0.6826
   57MOL   H24414916   0.206   2.738   7.179  0.2179  0.6984  0.0337
   57MOL   H24514917   0.221   2.587   7.256 -0.0906 -0.3176 -0.7312
   57MOL   H24614918   0.068   2.677   7.277 -1.9632 -3.2600 -1.1451
   57MOL   H24714919   7.814   2.721   7.079  0.7063 -1.5213  0.3742
   57MOL   H24814920   7.817   2.623   6.942  2.5452 -1.7809 -0.0717
   57MOL   C24914921   0.072   2.790   6.906 -0.6627 -0.4761 -0.3148
   57MOL   C25014922   7.876   2.881   6.809  0.5406  1.0908  0.1737
   57MOL   C25114923   7.878   3.010   6.789  0.9555  0.2448 -0.4317
   57MOL   C25214924   0.073   3.111   6.868 -0.7119 -0.2518  0.3521
   57MOL   C25314925   7.772   3.076   6.700  0.2937 -0.0894 -0.3141
   57MOL   H25414926   0.147   2.736   6.848  0.1851 -1.0546  1.2758
   57MOL   H25514927   0.122   2.861   6.971 -1.7247  0.0091 -0.0171
   57MOL   H25614928   7.800   2.831   6.750 -0.1744 -0.9251  2.7218
   57MOL   H25714929   0.011   3.195   6.899 -1.0356 -0.8903  1.4802
   57MOL   H25814930   0.157   3.152   6.813  0.4134 -2.3914  0.4282
   57MOL   H25914931   0.112   3.069   6.961  0.3671  0.6713  0.3193
   57MOL   H26014932   7.733   3.007   6.624 -1.7540 -0.0487  0.6675
   57MOL   H26114933   7.801   3.165   6.644 -2.1032 -0.3865 -2.1248
   57MOL   H26214934   7.695   3.096   6.774  0.9651 -0.4120  0.4768
   58MOL     C114935   2.991   3.069   0.684 -0.2964  0.5546 -0.1607
   58MOL     C214936   3.061   2.977   0.585  0.5352  0.2432  0.1004
   58MOL     C314937   3.185   2.985   0.542  0.2603 -0.1695  0.0071
   58MOL     C414938   3.273   3.101   0.583  0.0505  0.0384  0.2462
   58MOL     C514939   3.232   2.902   0.429  0.5812  0.2784 -0.3075
   58MOL     H614940   2.884   3.062   0.665 -0.2252 -1.2277 -0.0429
   58MOL     H714941   2.997   3.038   0.788  1.2443 -1.7779 -0.8830
   58MOL     H814942   2.990   2.906   0.544 -0.5549 -0.1768  2.6075
   58MOL     H914943   3.342   3.053   0.652 -0.4023 -2.8088 -1.2092
   58MOL    H1014944   3.225   3.185   0.633 -1.0714  0.2356 -1.1254
   58MOL    H1114945   3.327   3.141   0.496  0.6683 -1.2661  0.0260
   58MOL    H1214946   3.259   2.968   0.347 -1.4177 -0.4403 -1.6025
   58MOL    H1314947   3.153   2.840   0.387  1.9709 -1.1019 -0.8990
   58MOL    H1414948   3.018   3.174   0.675 -1.8967  0.8604 -1.6852
   58MOL    C1514949   3.342   2.805   0.480  0.2312 -0.1715  0.0752
   58MOL    C1614950   3.390   2.690   0.387  0.0223  0.5309 -0.1572
   58MOL    C1714951   3.398   2.559   0.418  0.0831  0.0046 -0.1579
   58MOL    C1814952   3.362   2.512   0.557 -0.0560 -0.0919  0.2122
   58MOL    C1914953   3.435   2.452   0.320 -0.5881 -0.0708 -0.3439
   58MOL    H2014954   3.297   2.762   0.569 -0.7295  0.5299 -0.0589
   58MOL    H2114955   3.428   2.859   0.520 -0.6948  0.4023  1.3586
   58MOL    H2214956   3.413   2.719   0.285  1.7253  1.9094  0.6082
   58MOL    H2314957   3.431   2.432   0.584 -1.5420 -1.9227 -1.2302
   58MOL    H2414958   3.265   2.463   0.554  0.5211 -1.4074  2.1774
   58MOL    H2514959   3.364   2.582   0.640 -0.3540 -0.0781  0.2089
   58MOL    H2614960   3.516   2.385   0.350  0.0349  1.5070  1.5477
   58MOL    H2714961   3.473   2.502   0.231  0.2610 -1.7902 -0.9690
   58MOL    C2814962   3.318   2.358   0.296 -0.6279  0.1474 -0.1037
   58MOL    C2914963   3.352   2.245   0.196 -0.3414 -0.6057  0.1313
   58MOL    C3014964   3.279   2.139   0.177 -0.8914 -0.0054  0.5459
   58MOL    C3114965   3.147   2.110   0.249 -0.1510  1.0896 -0.1982
   58MOL    C3214966   3.328   2.029   0.082  0.2737 -0.1797 -0.2571
   58MOL    H3314967   3.238   2.415   0.249 -0.2774 -0.8064 -1.9142
   58MOL    H3414968   3.294   2.311   0.391 -1.9601  0.9997 -0.0072
   58MOL    H3514969   3.451   2.246   0.152 -1.3535  0.7909 -2.2214
   58MOL    H3614970   3.163   2.039   0.329 -0.6097  0.9866 -0.1951
   58MOL    H3714971   3.074   2.059   0.186  1.0668 -0.3504 -0.4803
   58MOL    H3814972   3.097   2.190   0.304 -1.5746  1.9968 -2.7303
   58MOL    H3914973   3.425   2.064   0.046 -0.6657  0.3469 -2.3875
   58MOL    H4014974   3.268   2.011   7.875 -0.7442 -2.3563  0.8186
   58MOL    C4114975   3.362   1.894   0.145  0.3219  0.5873  0.5026
   58MOL    C4214976   3.421   1.799   0.047  0.2145  0.0634 -0.0992
   58MOL    C4314977   3.551   1.761   0.050 -0.6002 -0.2638 -0.2884
   58MOL    C4414978   3.657   1.820   0.145 -0.4360 -0.3499  0.1354
   58MOL    C4514979   3.610   1.654   7.840 -0.3530 -0.4248 -0.0444
   58MOL    H4614980   3.276   1.844   0.191  0.1304 -1.1223 -1.6310
   58MOL    H4714981   3.431   1.908   0.228 -0.0254 -0.3190  0.9594
   58MOL    H4814982   3.346   1.759   7.863  1.6837  0.2067 -1.8716
   58MOL    H4914983   3.627   1.925   0.151 -2.0131 -0.7519 -0.4803
   58MOL    H5014984   3.759   1.821   0.105 -1.2479 -0.8865 -2.0035
   58MOL    H5114985   3.662   1.774   0.244  0.1963  0.0676  0.3071
   58MOL    H5214986   3.703   1.695   7.800  1.1256 -1.7025  2.0146
   58MOL    H5314987   3.535   1.641   7.762  0.2342 -0.8456 -0.5479
   58MOL    C5414988   3.635   1.527   0.035  0.5900  0.7189 -0.2756
   58MOL    C5514989   3.678   1.421   7.822 -0.0026  0.4179 -1.1637
   58MOL    C5614990   3.755   1.310   7.844  0.0943  0.5242  0.9251
   58MOL    C5714991   3.795   1.261   0.098 -0.1161 -0.7566  0.8329
   58MOL    C5814992   3.779   1.214   7.732  0.0002  0.4059 -0.2978
   58MOL    H5914993   3.553   1.484   0.094  0.5515  0.8982 -0.1963
   58MOL    H6014994   3.705   1.534   0.118  1.8196  1.0324 -1.3315
   58MOL    H6114995   3.630   1.444   7.728 -1.9228  0.4597 -0.1965
   58MOL    H6214996   3.797   1.334   0.179 -3.0942  0.6269 -0.2556
   58MOL    H6314997   3.890   1.209   0.107  0.7484  0.7318  0.4886
   58MOL    H6414998   3.724   1.186   0.133  0.0930 -1.5010 -0.3218
   58MOL    H6514999   3.888   1.211   7.726 -0.0241  1.0155 -1.1153
   58MOL    H6615000   3.737   1.233   7.633 -1.3160 -0.2346  0.1330
   58MOL    C6715001   3.719   1.066   7.757  0.2656  0.3973  0.0985
   58MOL    C6815002   3.725   0.983   7.629  0.0858  0.4012  0.4752
   58MOL    C6915003   3.630   0.908   7.575  0.4280  0.0425 -0.2591
   58MOL    C7015004   3.487   0.891   7.628 -0.5035 -0.3096 -0.0358
   58MOL    C7115005   3.649   0.826   7.450 -0.6014  0.3856 -0.2374
   58MOL    H7215006   3.613   1.083   7.779  0.1205 -2.8165  2.2418
   58MOL    H7315007   3.769   1.013   7.838  0.2305  2.0742  1.2369
   58MOL    H7415008   3.825   0.979   7.587  0.6951 -0.3971  1.9636
   58MOL    H7515009   3.476   0.935   7.727  0.8371 -0.4015  0.1598
   58MOL    H7615010   3.443   0.791   7.622  0.0321 -0.5991  0.7928
   58MOL    H7715011   3.426   0.957   7.567  0.0860  1.1224  0.9015
   58MOL    H7815012   3.552   0.833   7.400 -1.5281 -1.5611  1.1928
   58MOL    H7915013   3.685   0.729   7.487 -2.1115  0.1109  0.5651
   58MOL    C8015014   3.761   0.878   7.360  0.4584  0.0186  0.0962
   58MOL    C8115015   3.760   0.802   7.228  0.1544  0.0453 -0.8615
   58MOL    C8215016   3.773   0.858   7.108  0.2020  0.1458  0.1568
   58MOL    C8315017   3.778   1.007   7.081  0.6504  0.4681 -0.2579
   58MOL    C8415018   3.753   0.771   6.984 -0.4013 -0.3122 -0.1622
   58MOL    H8515019   3.862   0.886   7.400  0.8156  2.4356 -1.2011
   58MOL    H8615020   3.735   0.982   7.339  2.6249  0.5769  0.0838
   58MOL    H8715021   3.748   0.695   7.237 -0.9677  0.1486 -1.0978
   58MOL    H8815022   3.832   1.022   6.987  1.1849 -0.3464 -0.0903
   58MOL    H8915023   3.821   1.075   7.155  3.4377 -2.0997  0.6018
   58MOL    H9015024   3.680   1.048   7.061 -0.5592 -1.2757  1.8360
   58MOL    H9115025   3.752   0.664   7.005 -1.5726 -0.3453 -0.3780
   58MOL    H9215026   3.832   0.788   6.911  1.3607 -0.1213  1.7426
   58MOL    C9315027   3.618   0.800   6.912 -0.7248 -0.0767  0.1872
   58MOL    C9415028   3.613   0.740   6.766 -0.2044 -0.2927  0.1816
   58MOL    C9515029   3.524   0.669   6.704 -0.1662 -0.2433  0.1109
   58MOL    C9615030   3.393   0.630   6.778  0.6452  0.1086  0.5172
   58MOL    C9715031   3.536   0.628   6.560  0.1302 -1.1184  0.0355
   58MOL    H9815032   3.615   0.908   6.904  0.7316  0.0834  1.5949
   58MOL    H9915033   3.540   0.763   6.979  1.6317 -1.1641  2.4340
   58MOL   H10015034   3.698   0.775   6.709  0.4132  1.4532  2.0838
   58MOL   H10115035   3.421   0.534   6.822  0.0413 -0.2075  0.2066
   58MOL   H10215036   3.300   0.624   6.722  1.7050 -0.4432 -1.2038
   58MOL   H10315037   3.361   0.698   6.857  0.6383 -0.4319  0.9821
   58MOL   H10415038   3.569   0.524   6.566 -2.0177 -1.7154  2.3435
   58MOL   H10515039   3.620   0.685   6.519 -2.0929 -0.1337 -3.3431
   58MOL   C10615040   3.412   0.641   6.468 -0.0647 -0.3139 -0.2885
   58MOL   C10715041   3.355   0.783   6.457  0.6499  0.3121  0.2642
   58MOL   C10815042   3.329   0.852   6.347  0.2817 -0.0559 -0.5646
   58MOL   C10915043   3.344   0.799   6.208  0.0490 -0.0504  0.3904
   58MOL   C11015044   3.298   0.994   6.343  0.6443  0.3791 -0.0545
   58MOL   H11115045   3.336   0.568   6.494 -1.7873  1.0781 -1.3015
   58MOL   H11215046   3.448   0.606   6.371  0.3793  1.3119 -0.7335
   58MOL   H11315047   3.346   0.825   6.557  2.0461 -1.1186  1.0290
   58MOL   H11415048   3.446   0.806   6.172 -0.3270  2.2493 -0.2976
   58MOL   H11515049   3.279   0.844   6.133  1.0070  0.7658  0.0484
   58MOL   H11615050   3.320   0.693   6.208 -4.5633  0.8658  1.9892
   58MOL   H11715051   3.262   1.015   6.444 -0.0174 -0.4609 -0.1116
   58MOL   H11815052   3.205   1.006   6.289  0.1683  0.6648  0.8083
   58MOL   C11915053   3.411   1.093   6.296 -0.5357 -0.0658  0.4756
   58MOL   C12015054   3.534   1.085   6.384  0.3318 -0.1116 -0.3826
   58MOL   C12115055   3.649   1.156   6.365 -0.2471 -0.1849 -0.2098
   58MOL   C12215056   3.677   1.242   6.244 -0.5156  0.0130 -0.3444
   58MOL   C12315057   3.760   1.160   6.473 -0.5932 -0.0828  0.0953
   58MOL   H12415058   3.372   1.194   6.306 -0.3573  0.1760 -1.1622
   58MOL   H12515059   3.437   1.072   6.192 -0.1969  0.3691  0.4749
   58MOL   H12615060   3.515   1.012   6.461  2.4694 -1.2148 -0.8898
   58MOL   H12715061   3.774   1.216   6.201 -0.7588  1.3578 -1.7788
   58MOL   H12815062   3.670   1.347   6.273  0.7901  0.0107 -0.0070
   58MOL   H12915063   3.617   1.227   6.154  2.4988  0.0069 -2.4336
   58MOL   H13015064   3.765   1.264   6.505  0.3178 -0.2415  0.4676
   58MOL   H13115065   3.855   1.156   6.421 -0.2178  0.1171  0.7671
   58MOL   C13215066   3.743   1.062   6.586 -1.1619 -0.9492 -0.7002
   58MOL   C13315067   3.860   1.073   6.684  0.4278 -0.7800 -0.4466
   58MOL   C13415068   3.970   0.998   6.690  0.2727  0.0623  0.5261
   58MOL   C13515069   3.985   0.869   6.608  0.1132  0.7100 -0.8112
   58MOL   C13615070   4.071   1.029   6.801 -0.5901 -0.3185  0.0863
   58MOL   H13715071   3.721   0.960   6.554 -1.4714 -1.1896  0.2527
   58MOL   H13815072   3.655   1.087   6.646 -0.4765  1.3531 -0.6037
   58MOL   H13915073   3.852   1.159   6.749  1.2365 -1.4628  0.5627
   58MOL   H14015074   4.091   0.842   6.612  0.1017  0.6989 -0.6056
   58MOL   H14115075   3.949   0.880   6.506 -0.2727 -1.2334 -0.8869
   58MOL   H14215076   3.918   0.800   6.658 -0.1206 -0.0681 -2.1922
   58MOL   H14315077   4.078   0.932   6.849  1.5353  0.1152  0.7215
   58MOL   H14415078   4.033   1.104   6.871 -0.7785 -0.5597  0.2416
   58MOL   C14515079   4.210   1.066   6.750  0.2925  0.3545 -0.2219
   58MOL   C14615080   4.306   1.113   6.863 -0.1612 -0.0898  0.1108
   58MOL   C14715081   4.439   1.096   6.861  0.4810 -1.0978  0.6076
   58MOL   C14815082   4.515   1.006   6.763 -0.1407  0.3190  0.3034
   58MOL   C14915083   4.537   1.154   6.968  0.6038  0.8164  0.4376
   58MOL   H15015084   4.195   1.138   6.670 -3.0038  0.8943  0.8252
   58MOL   H15115085   4.244   0.971   6.710 -0.6939 -0.6099  1.1795
   58MOL   H15215086   4.269   1.185   6.934  0.1129 -0.5200  0.6894
   58MOL   H15315087   4.611   1.058   6.754  0.0495  0.2278  1.7034
   58MOL   H15415088   4.474   1.005   6.662 -2.0231  0.2572  1.0419
   58MOL   H15515089   4.536   0.905   6.799 -1.3895 -0.4039 -0.9584
   58MOL   H15615090   4.478   1.235   7.012 -1.2210 -0.5531  0.5701
   58MOL   H15715091   4.624   1.194   6.916  0.5458 -0.8153 -0.9600
   58MOL   C15815092   4.581   1.051   7.072  0.0801  0.6710  0.7785
   58MOL   C15915093   4.676   1.110   7.180  0.7067  0.8004  0.1749
   58MOL   C16015094   4.760   1.043   7.261 -0.1738  0.4251  0.6631
   58MOL   C16115095   4.814   0.903   7.238 -0.6003 -0.5631 -0.0574
   58MOL   C16215096   4.826   1.108   7.386 -0.0837 -0.2802  0.4743
   58MOL   H16315097   4.641   0.974   7.023  1.6938 -0.6045  4.6254
   58MOL   H16415098   4.507   0.985   7.118 -0.5068  1.8281  1.5322
   58MOL   H16515099   4.656   1.214   7.199  0.3257  1.0674 -1.5460
   58MOL   H16615100   4.916   0.897   7.277  0.9336  0.3900 -3.6599
   58MOL   H16715101   4.836   0.891   7.132  0.7302 -1.7010  0.3399
   58MOL   H16815102   4.758   0.821   7.282 -1.9222  1.5254  2.3015
   58MOL   H16915103   4.934   1.116   7.380 -0.1685 -1.4321 -5.0592
   58MOL   H17015104   4.819   1.043   7.473  0.4172 -0.9350  0.0304
   58MOL   C17115105   4.778   1.255   7.409 -0.6116 -0.0346 -0.2014
   58MOL   C17215106   4.837   1.328   7.526 -0.7496 -0.2997  0.0655
   58MOL   C17315107   4.871   1.458   7.526  0.2414  0.4969  0.2445
   58MOL   C17415108   4.840   1.557   7.413  0.4330  0.8003 -0.0152
   58MOL   C17515109   4.950   1.512   7.644  0.3951  0.0066 -0.1878
   58MOL   H17615110   4.670   1.260   7.424 -0.7813 -2.6048 -0.3940
   58MOL   H17715111   4.808   1.308   7.319  1.4967 -0.5822  0.1481
   58MOL   H17815112   4.877   1.272   7.609 -0.5418 -0.7006 -0.3043
   58MOL   H17915113   4.841   1.660   7.450  0.0022  0.4319  1.0172
   58MOL   H18015114   4.741   1.533   7.374  1.7697 -2.7813 -1.4107
   58MOL   H18115115   4.903   1.555   7.324  0.4875  0.4350  0.0311
   58MOL   H18215116   5.035   1.566   7.601  0.3895  0.6535  0.5898
   58MOL   H18315117   4.983   1.431   7.709 -2.1458  0.2757  1.5233
   58MOL   C18415118   4.869   1.618   7.727  0.9822  0.4166  0.4503
   58MOL   C18515119   4.922   1.643   7.865 -0.5830 -0.7868  0.1962
   58MOL   C18615120   4.951   1.766   0.034 -0.2570  0.0422 -0.3425
   58MOL   C18715121   4.906   1.896   7.861  0.0029 -0.4404  0.5580
   58MOL   C18815122   5.014   1.778   0.174 -0.5892  0.6036 -0.1797
   58MOL   H18915123   4.765   1.586   7.724  0.5785  1.7809 -0.2792
   58MOL   H19015124   4.863   1.709   7.668  0.4695  1.4568  2.0717
   58MOL   H19115125   4.944   1.553   0.038 -1.5529 -0.5356  0.9998
   58MOL   H19215126   4.983   1.973   7.860 -0.8135  0.3875  1.0937
   58MOL   H19315127   4.834   1.946   0.044  1.4547  0.8845  1.1862
   58MOL   H19415128   4.867   1.907   7.760  2.1133  0.4578 -0.1774
   58MOL   H19515129   5.116   1.813   0.159  0.1955 -0.9299  1.4490
   58MOL   H19615130   5.022   1.673   0.200  0.1444  1.3723  2.9268
   58MOL   C19715131   4.926   1.854   0.283  0.4263  0.1187  0.2313
   58MOL   C19815132   4.976   1.855   0.424  0.2184  0.0924 -0.5374
   58MOL   C19915133   4.948   1.760   0.520 -0.5991 -0.0943  0.0396
   58MOL   C20015134   4.879   1.625   0.479 -0.2541  0.8485  0.1567
   58MOL   C20115135   4.992   1.776   0.665 -0.6438  0.0267 -0.5325
   58MOL   H20215136   4.831   1.801   0.278  0.2608 -0.0551  3.7266
   58MOL   H20315137   4.912   1.959   0.256 -0.4493  0.4262  1.8158
   58MOL   H20415138   5.030   1.946   0.446  0.0487 -0.0727  0.5847
   58MOL   H20515139   4.914   1.548   0.548 -1.2905 -0.4242 -0.7095
   58MOL   H20615140   4.907   1.585   0.382 -1.1586  0.8274 -0.1027
   58MOL   H20715141   4.774   1.642   0.500 -0.1764 -0.7948  2.0291
   58MOL   H20815142   5.034   1.871   0.696  0.4641 -0.5359 -0.2720
   58MOL   H20915143   5.067   1.698   0.682 -1.5557 -0.8715 -0.5489
   58MOL   C21015144   4.892   1.723   0.772 -0.2748  0.2487 -0.4964
   58MOL   C21115145   4.938   1.727   0.922  0.5192 -0.1841  1.1544
   58MOL   C21215146   4.861   1.738   1.026  0.3768  0.8001  0.2183
   58MOL   C21315147   4.711   1.716   1.015 -0.1891 -0.6491 -0.6199
   58MOL   C21415148   4.919   1.773   1.161 -0.0817 -0.8310 -0.0414
   58MOL   H21515149   4.875   1.618   0.749  2.3434 -0.1951 -0.5052
   58MOL   H21615150   4.800   1.781   0.759 -0.2753  0.6061  1.0255
   58MOL   H21715151   5.036   1.766   0.943  1.3267 -2.1705  1.1719
   58MOL   H21815152   4.661   1.813   1.019  1.2493  0.0482  0.8612
   58MOL   H21915153   4.665   1.653   1.092  2.0726 -1.0004  0.4783
   58MOL   H22015154   4.698   1.673   0.916  1.0993 -0.2974 -0.9412
   58MOL   H22115155   4.886   1.875   1.182  0.6591 -1.0281  2.1739
   58MOL   H22215156   5.028   1.772   1.161 -0.0685 -0.4112 -1.3751
   58MOL   C22315157   4.882   1.665   1.268 -0.4889  0.7166  0.2450
   58MOL   C22415158   4.939   1.694   1.403 -0.1105 -0.5046  0.3437
   58MOL   C22515159   5.000   1.600   1.478  0.1257  0.1254  0.0821
   58MOL   C22615160   4.997   1.449   1.459  0.0317  0.4509 -0.2226
   58MOL   C22715161   5.057   1.642   1.615  0.7427 -0.2793  0.3806
   58MOL   H22815162   4.909   1.566   1.232 -4.3350 -0.0170 -0.8195
   58MOL   H22915163   4.778   1.666   1.300 -0.4794 -3.0925  0.6560
   58MOL   H23015164   4.926   1.796   1.435  2.4146 -0.1932  0.5285
   58MOL   H23115165   4.890   1.429   1.452  0.2257 -1.5473  2.0627
   58MOL   H23215166   5.029   1.398   1.549  1.6832  0.1039 -0.9848
   58MOL   H23315167   5.061   1.420   1.375 -1.0426 -2.2483 -0.1580
   58MOL   H23415168   5.037   1.570   1.694  1.1160 -1.4198 -0.5521
   58MOL   H23515169   5.023   1.742   1.643 -1.0599 -1.7036  3.5514
   58MOL   C23615170   5.211   1.668   1.612  0.5196 -0.2884  0.9790
   58MOL   C23715171   5.248   1.720   1.748 -0.9570  0.0936  0.4144
   58MOL   C23815172   5.293   1.843   1.778  0.6294 -0.8119 -0.8715
   58MOL   C23915173   5.307   1.961   1.682 -0.6808 -0.6589 -0.1343
   58MOL   C24015174   5.331   1.889   1.922  0.7367 -1.1648  0.1676
   58MOL   H24115175   5.225   1.740   1.532  0.3282 -1.9253 -0.5578
   58MOL   H24215176   5.264   1.575   1.592  0.4029 -0.1917  0.2107
   58MOL   H24315177   5.228   1.650   1.828 -1.3493 -0.5922 -0.2723
   58MOL   H24415178   5.398   2.020   1.687  0.8069 -2.6916 -2.3147
   58MOL   H24515179   5.227   2.036   1.688  0.9965  0.9682  3.2940
   58MOL   H24615180   5.304   1.932   1.577 -1.8179  1.0712 -0.6100
   58MOL   H24715181   5.290   1.812   1.988  0.3467 -0.7814  0.3728
   58MOL   H24815182   5.278   1.980   1.951 -0.1159 -1.1860 -1.2914
   58MOL   C24915183   5.480   1.887   1.962  0.5692 -0.0270 -0.7792
   58MOL   C25015184   5.503   1.915   2.109 -0.2642 -0.3775  0.1575
   58MOL   C25115185   5.557   1.833   2.208 -0.3482 -0.2879  0.1973
   58MOL   C25215186   5.588   1.680   2.182  0.1499 -0.1643 -0.4985
   58MOL   C25315187   5.594   1.887   2.347  0.4212  0.8969  0.1083
   58MOL   H25415188   5.523   1.979   1.922 -2.4245  1.4032 -0.8747
   58MOL   H25515189   5.536   1.797   1.935  0.0336 -0.5491 -0.1715
   58MOL   H25615190   5.480   2.017   2.135  1.1388 -0.5594  2.2078
   58MOL   H25715191   5.694   1.682   2.155  0.0895  2.3110 -0.6550
   58MOL   H25815192   5.528   1.644   2.099 -1.1516 -0.3155  0.4952
   58MOL   H25915193   5.592   1.623   2.275  0.0358  0.2099 -0.2651
   58MOL   H26015194   5.597   1.996   2.358  1.4998  0.8396  0.4052
   58MOL   H26115195   5.699   1.865   2.364  0.1651  1.1930  2.2314
   58MOL   H26215196   5.522   1.850   2.420  1.2988 -0.6691  0.1891
   59MOL     C115197   3.674   0.315   6.832  0.2407 -0.6134 -0.1473
   59MOL     C215198   3.589   0.313   6.956  0.4256 -0.0419  0.2395
   59MOL     C315199   3.634   0.330   7.085  0.0981  0.4646  0.4734
   59MOL     C415200   3.783   0.361   7.120  0.3430  0.7710  0.4764
   59MOL     C515201   3.534   0.339   7.198 -0.2057 -0.1307  0.5300
   59MOL     H615202   3.774   0.357   6.841  0.5744 -1.5107  0.4618
   59MOL     H715203   3.677   0.217   6.784  1.1985 -0.1360 -1.1053
   59MOL     H815204   3.487   0.287   6.930  0.4078  0.2085  0.0632
   59MOL     H915205   3.866   0.329   7.057 -1.5516 -3.0867 -0.1849
   59MOL    H1015206   3.792   0.314   7.218 -1.5165  1.0204  0.7947
   59MOL    H1115207   3.784   0.468   7.142 -1.5054  0.6203  1.4611
   59MOL    H1215208   3.558   0.271   7.280 -2.3142 -0.1504  1.1467
   59MOL    H1315209   3.438   0.306   7.161  0.4190 -0.5594 -0.7291
   59MOL    H1415210   3.631   0.389   6.766 -0.3832 -0.3528  0.5466
   59MOL    C1515211   3.521   0.485   7.255 -0.0802 -0.1058  0.0453
   59MOL    C1615212   3.405   0.501   7.350 -0.1390  0.0636 -0.0281
   59MOL    C1715213   3.313   0.604   7.356 -0.0421  0.2410  0.0227
   59MOL    C1815214   3.312   0.724   7.261 -0.5851 -0.0079  0.2458
   59MOL    C1915215   3.213   0.618   7.474 -1.0219 -0.4735 -0.3923
   59MOL    H2015216   3.512   0.553   7.170 -0.2754 -0.8290 -0.5200
   59MOL    H2115217   3.610   0.512   7.311 -0.5517 -0.7256  1.1013
   59MOL    H2215218   3.412   0.429   7.430  2.4134  0.6579  0.3416
   59MOL    H2315219   3.316   0.694   7.156 -0.3569 -1.8511  0.7782
   59MOL    H2415220   3.394   0.791   7.289 -2.7576  2.0700  1.8466
   59MOL    H2515221   3.222   0.784   7.276  0.5030  2.3320 -2.0109
   59MOL    H2615222   3.180   0.721   7.492 -1.8220 -1.1098  1.9965
   59MOL    H2715223   3.263   0.601   7.570 -0.6475  0.2897 -0.4425
   59MOL    C2815224   3.080   0.535   7.461 -0.0300  0.8172 -0.3440
   59MOL    C2915225   2.996   0.565   7.342 -0.2771  0.4922  0.7718
   59MOL    C3015226   2.990   0.481   7.232  0.4745 -0.8397 -0.8389
   59MOL    C3115227   3.078   0.357   7.231  0.1085  0.0187  0.4244
   59MOL    C3215228   2.919   0.518   7.103  0.2699 -0.0536  0.7995
   59MOL    H3315229   3.016   0.547   7.549 -0.7491 -1.2579 -0.5693
   59MOL    H3415230   3.103   0.429   7.465  0.5315  0.9255 -0.6460
   59MOL    H3515231   2.944   0.659   7.332 -0.0815  0.5928  0.7140
   59MOL    H3615232   3.051   0.280   7.302  0.5096 -1.2451 -0.7696
   59MOL    H3715233   3.185   0.362   7.251  0.2855 -1.5602 -0.0893
   59MOL    H3815234   3.076   0.301   7.138  1.2144  2.2842 -1.0279
   59MOL    H3915235   2.868   0.611   7.129  0.4592  0.7033 -1.4111
   59MOL    H4015236   2.854   0.437   7.074 -0.5335  0.4808  1.0944
   59MOL    C4115237   3.032   0.556   6.993 -0.5934  0.7178  0.7917
   59MOL    C4215238   2.965   0.591   6.859  0.1817  0.0817  0.5959
   59MOL    C4315239   2.954   0.497   6.762  0.1023  0.3340 -0.3735
   59MOL    C4415240   3.003   0.351   6.770  0.3702  0.0889  0.5212
   59MOL    C4515241   2.882   0.530   6.638  0.2534  0.1154  0.0040
   59MOL    H4615242   3.099   0.470   6.992  0.3337  1.4311 -0.9948
   59MOL    H4715243   3.088   0.639   7.035 -0.3273 -1.3201  4.6216
   59MOL    H4815244   2.914   0.686   6.852 -0.9904 -0.1174  4.7221
   59MOL    H4915245   2.973   0.308   6.866 -0.8089  1.2908  0.7067
   59MOL    H5015246   3.112   0.346   6.758  0.2777 -1.1192  0.0777
   59MOL    H5115247   2.949   0.288   6.700 -0.4120  0.7300  0.5465
   59MOL    H5215248   2.821   0.617   6.661  1.3220  1.9851 -3.7792
   59MOL    H5315249   2.807   0.456   6.614 -1.5678  1.4489  1.4708
   59MOL    C5415250   2.973   0.552   6.518 -0.1173  0.3162 -0.6232
   59MOL    C5515251   2.888   0.588   6.402  0.2533 -0.5154  0.7298
   59MOL    C5615252   2.928   0.572   6.271  0.1689  0.2821 -0.9362
   59MOL    C5715253   3.065   0.513   6.237 -0.2581  0.1558  1.1260
   59MOL    C5815254   2.833   0.597   6.153  0.1763 -0.1921 -0.2192
   59MOL    H5915255   3.039   0.466   6.507  2.0954  1.9617 -0.5252
   59MOL    H6015256   3.041   0.632   6.546 -1.8966  2.3444 -2.0099
   59MOL    H6115257   2.788   0.627   6.417  1.2659  2.8970 -0.8683
   59MOL    H6215258   3.047   0.407   6.221 -0.7773  0.5493 -1.0876
   59MOL    H6315259   3.140   0.515   6.316  2.8455  0.5348 -1.6766
   59MOL    H6415260   3.111   0.553   6.146  0.5870 -3.0769  0.0656
   59MOL    H6515261   2.731   0.580   6.187  0.3658 -2.5149 -0.7515
   59MOL    H6615262   2.848   0.499   6.107  2.9359  0.1681 -0.1375
   59MOL    C6715263   2.855   0.714   6.061 -0.4581  0.1849  0.1673
   59MOL    C6815264   2.760   0.720   5.942 -0.0922  0.7874  0.8468
   59MOL    C6915265   2.643   0.785   5.938  0.1700 -0.0870 -0.9090
   59MOL    C7015266   2.583   0.853   6.059  0.3179 -0.2086 -0.0156
   59MOL    C7115267   2.565   0.802   5.806  0.1963 -0.6508 -0.2284
   59MOL    H7215268   2.959   0.716   6.028 -0.7876 -0.4929 -0.9548
   59MOL    H7315269   2.837   0.800   6.126 -1.2498  1.2989 -1.4744
   59MOL    H7415270   2.797   0.672   5.853  0.6037 -0.4233  1.7787
   59MOL    H7515271   2.480   0.877   6.030  1.4277  2.8262 -1.6361
   59MOL    H7615272   2.616   0.954   6.082 -0.8221 -0.5461  3.4729
   59MOL    H7715273   2.586   0.789   6.148  1.5469 -0.8592 -0.5159
   59MOL    H7815274   2.468   0.850   5.821  0.8633 -0.2104  3.1996
   59MOL    H7915275   2.540   0.712   5.750 -1.4475 -0.2014 -0.2473
   59MOL    C8015276   2.633   0.909   5.717 -0.2122 -0.0470  1.5680
   59MOL    C8115277   2.574   0.932   5.586 -0.3672 -0.2483  0.9231
   59MOL    C8215278   2.602   1.026   5.496  0.2908  0.2495 -0.0987
   59MOL    C8315279   2.700   1.137   5.519  0.8471  0.8121  0.1645
   59MOL    C8415280   2.543   1.026   5.355  0.0270 -0.2004 -0.0068
   59MOL    H8515281   2.724   0.857   5.687 -0.8279  0.3642 -1.0935
   59MOL    H8615282   2.673   1.003   5.755 -0.0768  0.2288  0.7587
   59MOL    H8715283   2.508   0.851   5.559  2.2556 -2.2440  0.3207
   59MOL    H8815284   2.801   1.122   5.482  0.8418  0.7716  0.1674
   59MOL    H8915285   2.715   1.139   5.627 -0.9033  0.7595  0.4204
   59MOL    H9015286   2.663   1.235   5.488  1.8561  1.3619  0.6954
   59MOL    H9115287   2.499   1.125   5.348 -1.8887 -1.0931 -1.0301
   59MOL    H9215288   2.478   0.940   5.336 -0.1848  0.0276 -0.3180
   59MOL    C9315289   2.656   1.026   5.246 -0.4491 -0.7534  0.7960
   59MOL    C9415290   2.592   1.031   5.107 -0.1398 -0.1866 -0.9856
   59MOL    C9515291   2.623   1.114   5.007  0.1382 -0.3539  0.5453
   59MOL    C9615292   2.724   1.228   5.025 -0.2581 -0.0962  0.1671
   59MOL    C9715293   2.552   1.121   4.870  0.3415  0.2639  0.2141
   59MOL    H9815294   2.722   0.940   5.257 -1.7622 -1.6640  1.7630
   59MOL    H9915295   2.711   1.118   5.265 -0.2800 -0.7566  0.3270
   59MOL   H10015296   2.522   0.955   5.078 -0.6361  0.5027 -1.6279
   59MOL   H10115297   2.674   1.323   5.043 -0.2983  0.3643 -2.2538
   59MOL   H10215298   2.786   1.227   4.936  1.5758  0.2504  1.4030
   59MOL   H10315299   2.794   1.216   5.108  1.6412 -2.1971 -1.6717
   59MOL   H10415300   2.593   1.048   4.800 -0.9315 -1.0962  0.8623
   59MOL   H10515301   2.569   1.219   4.826 -1.1710  0.6307  0.4182
   59MOL   C10615302   2.400   1.107   4.882 -0.1164  0.0403 -0.2500
   59MOL   C10715303   2.333   1.231   4.938 -0.4768 -0.7270 -0.3033
   59MOL   C10815304   2.238   1.242   5.037 -0.2839  0.3373  0.2736
   59MOL   C10915305   2.175   1.133   5.121  0.4437 -0.0893 -0.3388
   59MOL   C11015306   2.184   1.383   5.071  0.1276  0.0263  0.1000
   59MOL   H11115307   2.373   1.019   4.941 -1.3901  0.3847 -0.2933
   59MOL   H11215308   2.378   1.094   4.776 -1.4706 -0.0955  0.0418
   59MOL   H11315309   2.359   1.321   4.886 -0.9589 -1.1542 -1.2904
   59MOL   H11415310   2.067   1.149   5.116  0.6798  1.2915 -1.2562
   59MOL   H11515311   2.204   1.149   5.225  0.5298 -0.4007 -0.3139
   59MOL   H11615312   2.204   1.038   5.076  0.6848  0.0448 -0.4673
   59MOL   H11715313   2.079   1.373   5.045  0.0889 -0.1268  0.3156
   59MOL   H11815314   2.217   1.462   5.003 -2.1351  1.2178  0.3288
   59MOL   C11915315   2.222   1.435   5.206 -0.5845  0.1915  0.5128
   59MOL   C12015316   2.143   1.556   5.251  0.5845 -1.1181  0.4573
   59MOL   C12115317   2.191   1.684   5.247  0.1322  0.4041 -0.1655
   59MOL   C12215318   2.332   1.723   5.199 -0.5058 -0.4012  0.4370
   59MOL   C12315319   2.116   1.805   5.288 -0.0335  0.3476 -0.3943
   59MOL   H12415320   2.330   1.446   5.205 -0.6274  0.6163 -1.9070
   59MOL   H12515321   2.192   1.369   5.287 -1.1423 -0.6533 -0.3740
   59MOL   H12615322   2.042   1.534   5.280  0.9036  0.1979  2.6887
   59MOL   H12715323   2.412   1.709   5.272  1.1388 -1.6724 -1.5405
   59MOL   H12815324   2.341   1.828   5.168  3.0258 -1.0555 -1.0321
   59MOL   H12915325   2.354   1.651   5.120  0.2667 -0.8341  1.0409
   59MOL   H13015326   2.112   1.889   5.219  0.5140 -0.6426 -1.6427
   59MOL   H13115327   2.168   1.837   5.378 -1.2024  1.5904 -0.1383
   59MOL   C13215328   1.970   1.779   5.324 -0.2980 -0.4525 -0.8286
   59MOL   C13315329   1.896   1.898   5.386  0.7404 -0.3675  0.6618
   59MOL   C13415330   1.766   1.931   5.357  0.3248 -0.6913  0.6237
   59MOL   C13515331   1.691   1.871   5.241  0.0707 -0.2661  0.0771
   59MOL   C13615332   1.705   2.041   5.434  0.2782 -0.0220  0.0012
   59MOL   H13715333   1.964   1.695   5.393 -0.8006  1.1750  1.1688
   59MOL   H13815334   1.913   1.754   5.234 -0.8726 -0.7184 -0.3961
   59MOL   H13915335   1.952   1.942   5.468  0.6353  2.1337 -0.5582
   59MOL   H14015336   1.668   1.765   5.257  1.2804 -0.3677  1.1189
   59MOL   H14115337   1.747   1.894   5.150 -1.1245 -0.1800 -0.6532
   59MOL   H14215338   1.598   1.926   5.225 -0.3744 -0.5556  1.6624
   59MOL   H14315339   1.750   2.057   5.532  1.5700 -0.4622 -0.5131
   59MOL   H14415340   1.605   2.001   5.456  0.0827  0.5297  0.1179
   59MOL   C14515341   1.703   2.171   5.352 -0.4023 -0.8264  0.5298
   59MOL   C14615342   1.657   2.284   5.440  0.0399 -0.1172  0.6314
   59MOL   C14715343   1.693   2.414   5.431  0.3250  0.0990 -0.2089
   59MOL   C14815344   1.778   2.471   5.324  0.2123  0.0691  0.1738
   59MOL   C14915345   1.642   2.515   5.531 -0.6575 -0.4617 -0.2687
   59MOL   H15015346   1.643   2.180   5.261  1.0514  0.4166 -0.3123
   59MOL   H15115347   1.805   2.185   5.319 -0.6290 -0.6107 -0.0833
   59MOL   H15215348   1.596   2.260   5.526  0.7466  0.3785  1.2824
   59MOL   H15315349   1.855   2.535   5.368  0.4592 -0.8231  1.0822
   59MOL   H15415350   1.711   2.532   5.265 -0.4654 -1.0714 -0.2512
   59MOL   H15515351   1.827   2.398   5.260  0.9529  0.0073  0.7962
   59MOL   H15615352   1.538   2.496   5.556 -0.5753  1.8006  1.8372
   59MOL   H15715353   1.641   2.613   5.484 -0.1935 -0.2382  0.1911
   59MOL   C15815354   1.730   2.507   5.654 -0.1331 -0.1628 -0.4929
   59MOL   C15915355   1.679   2.609   5.754 -0.0056  0.1359  0.4090
   59MOL   C16015356   1.624   2.593   5.876  0.4314  0.5628 -0.0509
   59MOL   C16115357   1.593   2.452   5.935 -0.4880 -0.7585 -0.1977
   59MOL   C16215358   1.585   2.711   5.967 -0.5116 -0.5267 -0.0939
   59MOL   H16315359   1.827   2.546   5.623 -0.4036 -0.0694 -1.2407
   59MOL   H16415360   1.741   2.405   5.692  0.9110  0.1818  0.1538
   59MOL   H16515361   1.688   2.714   5.730 -1.2514  0.2303  0.3108
   59MOL   H16615362   1.611   2.463   6.042  1.2682  0.0949 -0.5728
   59MOL   H16715363   1.646   2.365   5.897  1.1708  0.6374 -1.0935
   59MOL   H16815364   1.485   2.437   5.935 -0.4386 -1.4429  2.1546
   59MOL   H16915365   1.609   2.805   5.919 -0.7397 -1.6167 -2.3736
   59MOL   H17015366   1.645   2.704   6.058 -0.0969 -2.1471 -0.4866
   59MOL   C17115367   1.438   2.729   6.012 -0.6010 -0.0984  0.0055
   59MOL   C17215368   1.410   2.865   6.073  0.5635 -0.6786 -1.0311
   59MOL   C17315369   1.375   2.978   6.008 -0.2066  0.2312 -0.5421
   59MOL   C17415370   1.356   2.990   5.862  0.0531 -0.3814  0.5656
   59MOL   C17515371   1.356   3.105   6.093  0.3805  0.1855  0.6130
   59MOL   H17615372   1.425   2.653   6.089  0.6393 -0.6679 -0.3379
   59MOL   H17715373   1.367   2.713   5.931 -0.7359 -2.6454  0.5795
   59MOL   H17815374   1.430   2.861   6.179 -0.3473  0.3826 -0.8146
   59MOL   H17915375   1.400   2.914   5.798  0.6422  0.4817 -0.0765
   59MOL   H18015376   1.410   3.083   5.840 -1.2677  0.6749  1.6866
   59MOL   H18115377   1.252   2.999   5.831  0.0761 -1.2165  0.2434
   59MOL   H18215378   1.440   3.168   6.061  0.0910  0.9708  1.3763
   59MOL   H18315379   1.366   3.076   6.197 -0.1141  0.2537  0.6767
   59MOL   C18415380   1.218   3.165   6.063  0.1850  0.0007 -0.8691
   59MOL   C18515381   1.191   3.298   6.119  0.6015  0.1653 -0.3059
   59MOL   C18615382   1.100   3.335   6.213  0.1755  0.4550 -0.6119
   59MOL   C18715383   1.018   3.230   6.291 -0.2078  0.1394 -1.1410
   59MOL   C18815384   1.097   3.469   6.280 -0.0389  0.3416  0.2414
   59MOL   H18915385   1.141   3.094   6.092  0.4570 -0.6952 -1.8534
   59MOL   H19015386   1.213   3.185   5.956 -3.4866  2.0333 -0.4055
   59MOL   H19115387   1.239   3.385   6.076  0.9783 -0.0481 -0.3154
   59MOL   H19215388   1.046   3.126   6.281  0.3334  0.1979 -0.2410
   59MOL   H19315389   0.921   3.240   6.242  0.0121  3.4470 -1.0717
   59MOL   H19415390   1.006   3.262   6.395  1.5958 -0.5287 -0.7160
   59MOL   H19515391   1.191   3.519   6.254 -0.3384  0.3952 -0.7506
   59MOL   H19615392   1.102   3.470   6.389 -1.2456 -1.1351  0.3188
   59MOL   C19715393   0.970   3.545   6.252  0.2083  0.5504  0.1350
   59MOL   C19815394   0.947   3.578   6.109  0.6258 -0.2410 -0.2597
   59MOL   C19915395   0.903   3.694   6.058  0.3076 -0.1432 -0.4565
   59MOL   C20015396   0.883   3.824   6.139 -0.5246  0.6486 -0.0878
   59MOL   C20115397   0.892   3.713   5.903  0.2549  0.7678 -0.8155
   59MOL   H20215398   0.970   3.629   6.320  0.4351  1.0573 -0.4889
   59MOL   H20315399   0.880   3.490   6.280  0.4454 -0.0854 -0.3375
   59MOL   H20415400   0.966   3.494   6.044  2.9025 -0.7442  0.9971
   59MOL   H20515401   0.972   3.884   6.122  0.9072 -0.4968  2.9961
   59MOL   H20615402   0.871   3.800   6.244  0.7831  0.1469 -0.0454
   59MOL   H20715403   0.796   3.872   6.095  0.4522  2.4036 -0.1497
   59MOL   H20815404   0.815   3.790   5.898  0.6236  1.0546 -2.1147
   59MOL   H20915405   0.870   3.620   5.851  2.4696  0.2717 -0.9245
   59MOL   C21015406   1.031   3.765   5.852 -0.3189 -0.0269 -0.2681
   59MOL   C21115407   1.030   3.791   5.705  0.1470 -0.0142 -0.0046
   59MOL   C21215408   1.071   3.907   5.645  0.8959 -0.2767  0.3566
   59MOL   C21315409   1.132   4.026   5.726 -0.0430 -0.0191 -0.0093
   59MOL   C21415410   1.061   3.928   5.499  0.4237 -0.0669  0.2237
   59MOL   H21515411   1.100   3.688   5.887 -0.4578 -0.0495 -0.0449
   59MOL   H21615412   1.058   3.862   5.895  0.5156  0.6345 -2.2290
   59MOL   H21715413   0.990   3.710   5.646 -3.9978  0.9673  1.3338
   59MOL   H21815414   1.170   4.093   5.650  1.2798  1.0398  1.5658
   59MOL   H21915415   1.207   3.997   5.799  0.7952 -0.4370 -1.0202
   59MOL   H22015416   1.060   4.086   5.782 -0.7405 -2.3868  1.7275
   59MOL   H22115417   1.036   3.833   5.454  0.2164  0.3056 -0.4541
   59MOL   H22215418   1.160   3.964   5.469  0.1951 -0.0815 -0.5437
   59MOL   C22315419   0.948   4.025   5.464 -0.2119  0.9182 -0.3362
   59MOL   C22415420   0.918   4.050   5.320 -0.1894 -0.3450  0.3663
   59MOL   C22515421   0.796   4.057   5.270  0.4412 -0.7013 -0.3897
   59MOL   C22615422   0.664   4.029   5.340  0.0959 -0.6858 -0.2288
   59MOL   C22715423   0.776   4.110   5.130 -0.1009  0.3608  0.0696
   59MOL   H22815424   0.966   4.123   5.508  1.2356  0.8406 -0.7377
   59MOL   H22915425   0.857   3.997   5.518  0.3525  1.1117  0.7220
   59MOL   H23015426   1.008   4.065   5.262 -0.6469 -1.8272 -0.7600
   59MOL   H23115427   0.617   3.937   5.306 -2.9469  1.4058 -1.9924
   59MOL   H23215428   0.585   4.103   5.330 -1.0577 -1.5624  1.9485
   59MOL   H23315429   0.679   4.014   5.447 -0.7545 -0.0796 -0.0165
   59MOL   H23415430   0.874   4.142   5.096  0.5253 -0.2729  1.2570
   59MOL   H23515431   0.719   4.203   5.129 -1.1091 -0.2533 -0.4216
   59MOL   C23615432   0.720   3.997   5.039  0.2078  0.8031 -0.3184
   59MOL   C23715433   0.734   4.043   4.894  0.3556  0.3742 -0.1294
   59MOL   C23815434   0.803   3.986   4.789 -0.0693  0.0991  0.0948
   59MOL   C23915435   0.889   3.860   4.807 -0.4935 -0.2857  0.7289
   59MOL   C24015436   0.783   4.033   4.643 -0.0264 -0.1770  0.0614
   59MOL   H24115437   0.616   3.982   5.069  0.5858 -0.2769  0.5016
   59MOL   H24215438   0.782   3.913   5.073 -0.2540  1.5188  2.4623
   59MOL   H24315439   0.671   4.128   4.872  3.0146  2.1238 -1.2223
   59MOL   H24415440   0.903   3.811   4.710  2.0557 -0.9310  1.4013
   59MOL   H24515441   0.833   3.789   4.868 -0.5367 -0.6927  0.2189
   59MOL   H24615442   0.987   3.888   4.844 -0.3878 -0.8723  0.8878
   59MOL   H24715443   0.723   4.125   4.644 -1.5947 -1.1706  2.1566
   59MOL   H24815444   0.723   3.960   4.589  0.1540  0.4055 -0.9332
   59MOL   C24915445   0.918   4.074   4.569  0.4626  0.2691  0.0840
   59MOL   C25015446   0.894   4.136   4.440 -0.4776  0.3031  0.4971
   59MOL   C25115447   0.878   4.264   4.409 -0.6439  0.2683  0.2117
   59MOL   C25215448   0.885   4.378   4.508  0.4731 -0.1851 -0.7919
   59MOL   C25315449   0.838   4.303   4.266  0.2236 -0.1077  0.7062
   59MOL   H25415450   0.966   3.978   4.552 -1.9411 -1.5300  2.7993
   59MOL   H25515451   0.983   4.131   4.635 -1.8227  1.1518  1.6418
   59MOL   H25615452   0.887   4.067   4.357  1.9818  0.7391 -0.1115
   59MOL   H25715453   0.947   4.456   4.465  0.9753  0.3636  0.8788
   59MOL   H25815454   0.945   4.360   4.598  0.2709  0.9530 -0.4178
   59MOL   H25915455   0.784   4.413   4.528  1.5494  1.8534  1.3714
   59MOL   H26015456   0.830   4.212   4.208  2.6564 -0.7225  1.2763
   59MOL   H26115457   0.910   4.372   4.222  0.3718 -0.8288 -0.1962
   59MOL   H26215458   0.741   4.353   4.259 -0.8034 -2.1911 -0.4340
   60MOL     C115459   3.595   3.035   1.319  0.4796 -0.0426  0.6596
   60MOL     C215460   3.732   2.985   1.274 -0.4260 -0.6147 -0.0442
   60MOL     C315461   3.806   2.892   1.335  0.8494 -0.5937  0.3857
   60MOL     C415462   3.763   2.808   1.457  0.3569  0.0065  0.5584
   60MOL     C515463   3.945   2.858   1.287  0.1777 -0.2768  0.3427
   60MOL     H615464   3.539   2.969   1.387  1.3996  0.0273  1.4933
   60MOL     H715465   3.591   3.133   1.365 -3.3262 -0.1136  0.6230
   60MOL     H815466   3.776   3.038   1.190 -1.0843  1.5894  0.9599
   60MOL     H915467   3.662   2.820   1.496  0.1739 -0.5496  0.2646
   60MOL    H1015468   3.826   2.825   1.544  0.1045  0.8091  0.5789
   60MOL    H1115469   3.768   2.701   1.434 -3.6142 -0.4540  1.5741
   60MOL    H1215470   4.008   2.870   1.375 -1.6965  0.7392  1.5855
   60MOL    H1315471   3.971   2.935   1.214  0.7601 -0.8472 -0.0499
   60MOL    H1415472   3.533   3.035   1.230 -1.7696  1.8951  2.1592
   60MOL    C1515473   3.972   2.719   1.223  0.1990  0.1536  0.0603
   60MOL    C1615474   4.112   2.712   1.177  0.2332  0.3389 -0.5333
   60MOL    C1715475   4.151   2.755   1.053 -0.0783  0.5478 -0.1436
   60MOL    C1815476   4.052   2.803   0.943 -0.4606 -0.8026  0.0725
   60MOL    C1915477   4.303   2.766   1.027  0.1756  0.5077 -0.1805
   60MOL    H2015478   3.901   2.706   1.141  0.7797  2.3358 -0.8260
   60MOL    H2115479   3.947   2.638   1.292 -1.4261 -0.2080 -0.9253
   60MOL    H2215480   4.186   2.687   1.251 -0.9947 -3.9792 -0.6669
   60MOL    H2315481   4.110   2.823   0.853  1.5624  0.3252  1.5854
   60MOL    H2415482   4.012   2.897   0.981  0.1317  0.1552 -1.6354
   60MOL    H2515483   3.973   2.729   0.929 -0.4466 -0.4899 -1.7016
   60MOL    H2615484   4.331   2.712   0.937 -1.1985 -0.9290  0.2354
   60MOL    H2715485   4.358   2.721   1.110  0.1976 -1.0244 -1.0082
   60MOL    C2815486   4.349   2.910   1.004 -0.4342  1.2274 -0.3494
   60MOL    C2915487   4.497   2.927   0.966 -0.4491  0.1321 -0.5675
   60MOL    C3015488   4.587   3.006   1.032 -0.1326  0.7587  0.0155
   60MOL    C3115489   4.559   3.078   1.164  0.0364 -0.5298 -0.1829
   60MOL    C3215490   4.735   3.024   0.982 -0.4873 -0.4356 -0.1217
   60MOL    H3315491   4.333   2.977   1.089  0.4017  1.0981 -0.0847
   60MOL    H3415492   4.292   2.949   0.920 -0.8484  0.5860 -0.3702
   60MOL    H3515493   4.521   2.871   0.876 -0.8896  0.4810 -0.9059
   60MOL    H3615494   4.610   3.174   1.156 -0.3281 -0.3923 -0.8761
   60MOL    H3715495   4.607   3.023   1.245 -0.1457 -1.4483 -0.6984
   60MOL    H3815496   4.454   3.096   1.187 -0.2753 -0.6202 -1.4770
   60MOL    H3915497   4.760   3.126   0.954 -1.5167 -0.2544 -0.4217
   60MOL    H4015498   4.747   2.966   0.890 -1.0026  0.8216 -0.9940
   60MOL    C4115499   4.842   2.995   1.093 -0.0053  0.8220  0.3863
   60MOL    C4215500   4.982   3.020   1.046  0.0702 -0.5810 -0.0649
   60MOL    C4315501   5.060   2.922   0.990 -1.0504 -0.5322 -0.6860
   60MOL    C4415502   5.024   2.781   0.955  0.0231 -0.5745  0.4523
   60MOL    C4515503   5.209   2.950   0.950 -0.6154 -0.9962  0.4485
   60MOL    H4615504   4.831   2.890   1.119  2.6223  0.9514  2.2169
   60MOL    H4715505   4.828   3.038   1.192 -2.4442  0.8850  0.0671
   60MOL    H4815506   5.022   3.116   1.075 -1.1146  0.6229 -2.2777
   60MOL    H4915507   5.088   2.713   1.011 -0.2877 -0.9694  0.3192
   60MOL    H5015508   5.037   2.766   0.848 -1.2562 -0.8262  0.3301
   60MOL    H5115509   4.925   2.742   0.974  0.5199 -1.5792  1.0042
   60MOL    H5215510   5.234   3.053   0.973 -1.8654 -0.3546 -0.9739
   60MOL    H5315511   5.209   2.942   0.841 -0.5594 -0.7097  0.4276
   60MOL    C5415512   5.316   2.857   1.015 -0.0521  0.3590 -0.2926
   60MOL    C5515513   5.450   2.927   1.011  0.0242  0.5034 -0.3618
   60MOL    C5615514   5.566   2.873   0.978 -0.3821 -0.3079 -0.1629
   60MOL    C5715515   5.579   2.736   0.928  0.0241 -0.7892 -0.0289
   60MOL    C5815516   5.699   2.953   0.985  0.6245 -0.6832  0.3381
   60MOL    H5915517   5.299   2.756   0.980 -0.3670  0.1782  0.3694
   60MOL    H6015518   5.292   2.852   1.122  0.6601 -1.8227 -0.2218
   60MOL    H6115519   5.448   3.031   1.040  2.7507  0.8386 -1.2423
   60MOL    H6215520   5.671   2.682   0.954 -0.4019 -0.2156  2.8186
   60MOL    H6315521   5.581   2.731   0.819  1.1862 -2.2840  0.0394
   60MOL    H6415522   5.496   2.673   0.959 -1.0955 -0.3752 -2.0835
   60MOL    H6515523   5.672   3.053   1.019 -0.9777 -0.7543 -0.6668
   60MOL    H6615524   5.748   2.963   0.888 -0.1202  1.6089  0.1707
   60MOL    C6715525   5.796   2.909   1.092 -0.0637  0.7555  0.1664
   60MOL    C6815526   5.877   3.021   1.163  0.0473 -0.1274  0.1412
   60MOL    C6915527   5.989   3.081   1.116 -0.0385  0.4650  0.3112
   60MOL    C7015528   6.037   3.060   0.967 -0.6671  1.0235 -0.7195
   60MOL    C7115529   6.082   3.156   1.203 -0.2884  0.2374 -0.0106
   60MOL    H7215530   5.863   2.829   1.061 -2.5305 -1.2559 -0.1826
   60MOL    H7315531   5.730   2.865   1.167  0.1893  1.6351  0.9040
   60MOL    H7415532   5.849   3.039   1.266  0.3832  0.0110  0.2077
   60MOL    H7515533   6.078   3.150   0.922  2.1854  0.3177  0.3889
   60MOL    H7615534   5.959   3.009   0.910 -0.8359 -0.8945  1.1259
   60MOL    H7715535   6.118   2.987   0.970 -1.6383 -0.0359  0.4207
   60MOL    H7815536   6.173   3.097   1.210 -2.0132 -2.4743  0.0770
   60MOL    H7915537   6.035   3.155   1.301 -2.2231  1.9608 -0.8861
   60MOL    C8015538   6.112   3.299   1.157 -0.0070  0.2819  0.9332
   60MOL    C8115539   6.176   3.385   1.256 -0.6946  0.1461 -0.2005
   60MOL    C8215540   6.109   3.460   1.347  0.2456  0.1880 -0.7896
   60MOL    C8315541   5.961   3.447   1.378  0.0640 -0.5947 -0.3795
   60MOL    C8415542   6.183   3.560   1.439 -0.0864 -0.1512 -0.4230
   60MOL    H8515543   6.012   3.339   1.136 -0.6992 -1.6140  0.5043
   60MOL    H8615544   6.177   3.311   1.070  1.6277  2.7195  2.4407
   60MOL    H8715545   6.284   3.389   1.262 -0.6120 -1.4967 -0.4349
   60MOL    H8815546   5.943   3.360   1.441 -0.3033 -0.8848 -0.8801
   60MOL    H8915547   5.900   3.455   1.287  1.2550  1.6888 -1.0260
   60MOL    H9015548   5.933   3.536   1.434  0.7102 -0.2299 -0.6324
   60MOL    H9115549   6.119   3.648   1.447 -0.1692 -0.3515  1.4083
   60MOL    H9215550   6.282   3.575   1.396 -0.4496 -2.5688 -2.2254
   60MOL    C9315551   6.204   3.501   1.577 -0.2399  0.2805 -0.7988
   60MOL    C9415552   6.263   3.603   1.682 -0.6816 -0.6953  0.1364
   60MOL    C9515553   6.325   3.570   1.804  0.0687  0.1105  0.4480
   60MOL    C9615554   6.342   3.426   1.856  0.6130  0.5029  0.2373
   60MOL    C9715555   6.387   3.674   1.896  0.4760  0.5200  0.2542
   60MOL    H9815556   6.271   3.416   1.573  1.9452  1.8066  1.6606
   60MOL    H9915557   6.110   3.460   1.612 -0.1250  0.8955  0.2508
   60MOL   H10015558   6.259   3.708   1.658  2.7905 -0.6001 -0.3968
   60MOL   H10115559   6.261   3.395   1.922 -0.5206 -0.8686 -1.7212
   60MOL   H10215560   6.431   3.411   1.918  0.5931  1.0491  0.4001
   60MOL   H10315561   6.341   3.349   1.778  0.8907  0.0209  0.7037
   60MOL   H10415562   6.350   3.660   1.998  0.4140  0.6315  0.2478
   60MOL   H10515563   6.352   3.774   1.869  0.7086  0.4903 -0.1662
   60MOL   C10615564   6.544   3.681   1.907  0.0672  0.9808  0.4433
   60MOL   C10715565   6.593   3.731   1.774  0.6332 -0.7995 -0.3093
   60MOL   C10815566   6.669   3.840   1.758  0.2996  0.5498 -0.0889
   60MOL   C10915567   6.723   3.932   1.866 -0.1407  0.6530 -0.6674
   60MOL   C11015568   6.699   3.879   1.614  0.5961  0.4888 -0.0511
   60MOL   H11115569   6.587   3.584   1.927 -2.4893  0.0110  1.4691
   60MOL   H11215570   6.563   3.746   1.993  2.7731  1.0804 -0.1987
   60MOL   H11315571   6.544   3.686   1.689 -1.1404  0.9146 -0.2267
   60MOL   H11415572   6.648   4.010   1.878 -0.1598  0.4261  0.7641
   60MOL   H11515573   6.808   3.988   1.826  0.6026  0.3233  0.4207
   60MOL   H11615574   6.760   3.891   1.961 -2.3792  0.0093 -0.0481
   60MOL   H11715575   6.714   3.790   1.552  2.7906 -0.0537  1.2006
   60MOL   H11815576   6.797   3.926   1.607  0.3644  0.9807 -0.0562
   60MOL   C11915577   6.610   3.989   1.557  0.0826  0.7747  0.2275
   60MOL   C12015578   6.628   3.985   1.408  0.3758  0.1331  0.0012
   60MOL   C12115579   6.688   4.062   1.319  0.0183 -0.2025 -0.3821
   60MOL   C12215580   6.758   4.195   1.362  0.7318 -1.1922  0.0824
   60MOL   C12315581   6.677   4.037   1.171  0.4886  0.6056  0.0480
   60MOL   H12415582   6.631   4.082   1.609 -0.6540  0.6734  0.7196
   60MOL   H12515583   6.506   3.961   1.577  0.3314 -0.1508  0.2475
   60MOL   H12615584   6.583   3.897   1.366  1.3339  0.7906 -2.4504
   60MOL   H12715585   6.857   4.201   1.317  1.4177  2.0201  1.8592
   60MOL   H12815586   6.779   4.202   1.469 -0.4230  0.2233  0.2322
   60MOL   H12915587   6.696   4.281   1.336  1.6607  0.0862  2.0065
   60MOL   H13015588   6.634   3.939   1.155  0.8813  0.6182 -1.1028
   60MOL   H13115589   6.774   4.055   1.124  0.0198  1.3045 -0.6599
   60MOL   C13215590   6.584   4.149   1.106 -0.0695  0.1433 -0.2814
   60MOL   C13315591   6.527   4.092   0.979 -0.0380 -0.4462 -0.1016
   60MOL   C13415592   6.415   4.130   0.916  0.4310  0.1286 -0.4851
   60MOL   C13515593   6.326   4.245   0.963  0.0941  0.2058  0.3150
   60MOL   C13615594   6.373   4.065   0.788 -0.2679  0.1168 -0.3784
   60MOL   H13715595   6.636   4.241   1.082  0.5097 -0.4130 -1.1531
   60MOL   H13815596   6.503   4.179   1.173 -0.1272  1.2382 -0.8347
   60MOL   H13915597   6.600   4.030   0.929  1.8459  1.3426  0.3761
   60MOL   H14015598   6.351   4.339   0.913  0.9253  0.7079  1.6473
   60MOL   H14115599   6.346   4.272   1.067  0.8774  0.5233  0.0904
   60MOL   H14215600   6.220   4.229   0.944  0.5485  0.0312 -2.2093
   60MOL   H14315601   6.269   4.036   0.800 -0.1953 -0.0456 -0.1330
   60MOL   H14415602   6.429   3.974   0.770  0.3526  0.4648 -0.2475
   60MOL   C14515603   6.381   4.163   0.666  0.2818 -0.2006 -0.0336
   60MOL   C14615604   6.532   4.195   0.633 -0.1750 -0.0706  0.0499
   60MOL   C14715605   6.590   4.320   0.641 -0.4783  0.7564 -0.4313
   60MOL   C14815606   6.518   4.451   0.671  0.4528  0.4609 -0.8195
   60MOL   C14915607   6.740   4.327   0.643  0.5800  0.5600 -0.4043
   60MOL   H15015608   6.327   4.254   0.690 -0.2803 -0.6254  0.3348
   60MOL   H15115609   6.317   4.112   0.594 -1.1493  0.1921  0.9297
   60MOL   H15215610   6.589   4.102   0.632  0.1440  0.1236  0.1023
   60MOL   H15315611   6.563   4.531   0.612  1.4810  0.9766  0.6418
   60MOL   H15415612   6.529   4.482   0.775  0.7013  0.4494 -0.8400
   60MOL   H15515613   6.412   4.452   0.647  0.6310  0.2795 -1.6539
   60MOL   H15615614   6.783   4.378   0.557 -2.3088  3.8466 -0.0496
   60MOL   H15715615   6.778   4.225   0.640 -1.6998 -0.3212 -0.4492
   60MOL   C15815616   6.795   4.395   0.770  0.2233 -0.2040 -0.1279
   60MOL   C15915617   6.942   4.371   0.780 -1.1091  0.5514  0.2776
   60MOL   C16015618   7.003   4.322   0.891  0.3638 -0.1825 -0.0596
   60MOL   C16115619   6.922   4.287   1.015 -0.3353  0.1173  0.3979
   60MOL   C16215620   7.157   4.302   0.900 -0.0430  0.1665  0.1992
   60MOL   H16315621   6.734   4.348   0.848 -0.5727  1.3534  0.1990
   60MOL   H16415622   6.772   4.501   0.782  0.5566 -0.0541 -0.8280
   60MOL   H16515623   6.998   4.393   0.691  0.9935 -1.1404  1.1282
   60MOL   H16615624   6.859   4.204   0.983  0.7818 -0.5858 -0.0164
   60MOL   H16715625   6.851   4.360   1.055 -0.4077  0.5373 -0.4872
   60MOL   H16815626   6.976   4.240   1.098  0.9459  0.2864 -0.3185
   60MOL   H16915627   7.190   4.369   0.980  0.5826 -1.1257  1.0425
   60MOL   H17015628   7.197   4.334   0.804 -0.0356  0.7586  0.3955
   60MOL   C17115629   7.206   4.153   0.925 -0.1488 -0.0428  0.2231
   60MOL   C17215630   7.181   4.075   0.792 -0.5885  1.0756 -0.3443
   60MOL   C17315631   7.114   3.957   0.782  0.1960  0.0780  0.0638
   60MOL   C17415632   7.049   3.885   0.902 -0.3081  0.6705  0.1722
   60MOL   C17515633   7.086   3.897   0.648  0.2886  0.6871  0.1256
   60MOL   H17615634   7.155   4.126   1.018 -0.7517 -0.7693 -0.3159
   60MOL   H17715635   7.313   4.151   0.943 -0.1474 -0.4805  0.1719
   60MOL   H17815636   7.224   4.121   0.704  0.8485 -2.8314 -1.7695
   60MOL   H17915637   6.941   3.884   0.889 -0.1797  1.2640 -1.0533
   60MOL   H18015638   7.071   3.926   1.001 -1.9538 -1.9773  1.6678
   60MOL   H18115639   7.080   3.781   0.897  0.6770  0.9844 -0.6151
   60MOL   H18215640   7.119   3.970   0.574  0.0915  0.1477 -0.5041
   60MOL   H18315641   6.978   3.897   0.635  0.0351  1.5822  2.0563
   60MOL   C18415642   7.147   3.766   0.623 -0.3613 -1.1048 -0.6117
   60MOL   C18515643   7.136   3.743   0.473 -0.3831 -0.0571 -0.3753
   60MOL   C18615644   7.230   3.744   0.386  0.0361  0.3582 -0.5988
   60MOL   C18715645   7.380   3.750   0.423  0.4437 -0.4731 -0.2112
   60MOL   C18815646   7.199   3.725   0.239  0.1012  0.2853  0.6468
   60MOL   H18915647   7.089   3.691   0.677 -2.5059  1.9562  1.4798
   60MOL   H19015648   7.251   3.752   0.652 -1.1545  0.0535  2.9689
   60MOL   H19115649   7.041   3.742   0.422  0.9507 -4.3930 -3.0858
   60MOL   H19215650   7.435   3.766   0.330 -1.3130  1.7056 -0.9233
   60MOL   H19315651   7.426   3.665   0.473  2.5635  1.7215  1.6442
   60MOL   H19415652   7.394   3.844   0.476  1.0626 -0.8719  0.3278
   60MOL   H19515653   7.108   3.667   0.227  1.4925 -1.5246 -1.6343
   60MOL   H19615654   7.277   3.664   0.193 -1.7092 -0.6361 -1.2930
   60MOL   C19715655   7.200   3.857   0.161 -0.8105  0.1087  0.0428
   60MOL   C19815656   7.102   3.962   0.211 -0.1845  0.1186  0.3506
   60MOL   C19915657   7.058   4.065   0.134 -0.1434  0.0760 -0.6022
   60MOL   C20015658   7.078   4.072   7.865 -0.2099 -0.1325 -0.3982
   60MOL   C20115659   6.989   4.188   0.192 -0.6162  0.2311  0.4964
   60MOL   H20215660   7.172   3.833   0.059  3.1483 -0.8284 -0.9147
   60MOL   H20315661   7.294   3.912   0.157 -0.1946 -1.0211 -1.3726
   60MOL   H20415662   7.095   3.957   0.319  0.5012  0.6671  0.4196
   60MOL   H20515663   7.181   4.100   7.843  0.1112 -1.9469 -1.3046
   60MOL   H20615664   7.004   4.139   7.821 -0.6984  0.7236  1.6738
   60MOL   H20715665   7.066   3.976   7.814  2.2908 -1.2712  1.0621
   60MOL   H20815666   6.952   4.181   0.295 -0.2823  2.8552  0.8316
   60MOL   H20915667   6.903   4.210   0.129 -0.1001  1.1443  0.1055
   60MOL   C21015668   7.087   4.299   0.212  0.0724 -0.5337  1.0075
   60MOL   C21115669   7.028   4.431   0.257  0.1097 -0.7761  0.7364
   60MOL   C21215670   7.060   4.505   0.364 -0.3687 -0.5303  0.7294
   60MOL   C21315671   7.171   4.468   0.456 -0.3846 -0.1121  0.4497
   60MOL   C21415672   7.000   4.642   0.397  0.5723  0.0076  0.6299
   60MOL   H21515673   7.144   4.327   0.124 -2.7612  1.9519 -0.1007
   60MOL   H21615674   7.166   4.267   0.280  1.8145  0.7158 -0.3837
   60MOL   H21715675   6.946   4.460   0.193 -0.4137 -1.7949  0.9420
   60MOL   H21815676   7.139   4.397   0.532 -0.9541 -1.2839 -0.8666
   60MOL   H21915677   7.210   4.559   0.500  1.5752 -0.4160 -0.5861
   60MOL   H22015678   7.256   4.439   0.394 -1.3429 -0.7988 -0.5524
   60MOL   H22115679   6.927   4.670   0.322 -1.0442 -1.2247  1.7232
   60MOL   H22215680   7.086   4.702   0.368 -0.1615 -0.3211 -2.3897
   60MOL   C22315681   6.942   4.670   0.538  0.4533  0.1766 -0.1711
   60MOL   C22415682   6.869   4.805   0.545 -0.3192 -0.0608 -0.5497
   60MOL   C22515683   6.863   4.884   0.654 -0.0505 -0.8561  0.5161
   60MOL   C22615684   6.934   4.847   0.777  0.1574  0.4552  0.2821
   60MOL   C22715685   6.784   5.018   0.653  0.1778 -0.4667 -0.5436
   60MOL   H22815686   7.026   4.672   0.607  1.3798  1.3413 -1.2934
   60MOL   H22915687   6.872   4.591   0.565 -1.0370  0.9694 -1.6287
   60MOL   H23015688   6.797   4.833   0.470  0.8367  0.5286 -1.4637
   60MOL   H23115689   6.949   4.936   0.839  1.3826  1.2661 -1.1220
   60MOL   H23215690   7.028   4.801   0.745  0.3655  2.0336 -1.5081
   60MOL   H23315691   6.874   4.775   0.832 -0.7218  0.8551 -0.1467
   60MOL   H23415692   6.784   5.047   0.758 -1.9829 -2.7400  0.1411
   60MOL   H23515693   6.680   4.992   0.635 -0.7369  1.2831  1.9777
   60MOL   C23615694   6.840   5.124   0.563  0.2788 -0.4819  0.4797
   60MOL   C23715695   6.987   5.148   0.597  0.8528 -0.1164 -0.2404
   60MOL   C23815696   7.041   5.253   0.661 -0.0102  0.7587 -0.1083
   60MOL   C23915697   6.962   5.365   0.723  0.0152  0.0619 -0.3817
   60MOL   C24015698   7.193   5.253   0.686 -0.1751  0.2612 -0.3489
   60MOL   H24115699   6.789   5.220   0.575  1.2821  0.0770  0.3278
   60MOL   H24215700   6.848   5.095   0.459 -0.6182 -1.4311  0.6701
   60MOL   H24315701   7.048   5.068   0.556  1.0349  1.4441 -3.1385
   60MOL   H24415702   6.980   5.354   0.830  0.5549  1.0920 -0.3649
   60MOL   H24515703   6.855   5.358   0.702 -0.3192 -1.1523  1.5512
   60MOL   H24615704   6.979   5.467   0.688 -1.8695  1.0105  1.3430
   60MOL   H24715705   7.219   5.341   0.627  0.2785 -0.7299 -1.6562
   60MOL   H24815706   7.231   5.160   0.642 -1.5271 -0.0098 -0.9859
   60MOL   C24915707   7.244   5.257   0.832 -0.7410 -0.3296  0.3679
   60MOL   C25015708   7.395   5.256   0.820 -0.2103 -0.2470 -0.1268
   60MOL   C25115709   7.478   5.367   0.807  0.6386 -0.0171 -0.1677
   60MOL   C25215710   7.425   5.506   0.806 -0.3667  0.8870  0.1892
   60MOL   C25315711   7.623   5.351   0.778  0.9074 -0.3144  0.0446
   60MOL   H25415712   7.194   5.175   0.883  2.2651 -2.4141  0.1024
   60MOL   H25515713   7.220   5.349   0.885  0.4367 -0.8694  1.8708
   60MOL   H25615714   7.435   5.160   0.793 -3.0752 -1.2561 -0.9192
   60MOL   H25715715   7.427   5.539   0.702  3.5519  0.5408  0.0682
   60MOL   H25815716   7.476   5.579   0.868 -1.4861  1.7245  0.1431
   60MOL   H25915717   7.322   5.515   0.840 -0.0311  0.5874  1.3119
   60MOL   H26015718   7.655   5.247   0.773  0.5170 -0.5638  2.2135
   60MOL   H26115719   7.688   5.404   0.848 -1.5883 -0.7403  2.7891
   60MOL   H26215720   7.644   5.400   0.683  1.0608  0.8820  0.6817
   61MOL     C115721   0.077   2.207   5.689 -0.4934 -0.5372  0.0064
   61MOL     C215722   7.833   2.276   5.742  0.5682 -0.3950  0.2820
   61MOL     C315723   7.739   2.350   5.669 -0.7718 -0.5903 -0.0359
   61MOL     C415724   7.757   2.393   5.527 -0.2652 -0.5405  0.0512
   61MOL     C515725   7.609   2.392   5.739 -0.2862  0.7926 -0.2754
   61MOL     H615726   0.090   2.219   5.582 -1.4487  0.8918  0.0343
   61MOL     H715727   0.170   2.240   5.736 -0.0465 -1.0080 -0.5320
   61MOL     H815728   7.805   2.252   5.844  0.2945 -1.1730  0.0203
   61MOL     H915729   7.731   2.499   5.521  0.1386 -0.5136 -1.5574
   61MOL    H1015730   7.685   2.353   5.456 -0.0690  1.5363 -1.3608
   61MOL    H1115731   7.860   2.395   5.491 -0.4342  3.0070 -0.3907
   61MOL    H1215732   7.602   2.322   5.822  1.2100  0.2637 -0.5650
   61MOL    H1315733   7.524   2.385   5.672  0.6117  1.4758 -1.4963
   61MOL    H1415734   0.065   2.101   5.714 -0.7802 -0.1550  1.5369
   61MOL    C1515735   7.613   2.538   5.781  0.0767  0.2270 -0.3412
   61MOL    C1615736   7.505   2.557   5.879  0.0297 -0.3084 -0.0185
   61MOL    C1715737   7.516   2.618   6.000  0.6288 -0.8608 -0.5928
   61MOL    C1815738   7.647   2.680   6.058 -0.3771 -0.0624 -0.2367
   61MOL    C1915739   7.389   2.664   6.075 -0.3833 -0.8605  0.0070
   61MOL    H2015740   7.601   2.600   5.693  0.5869  0.2427 -0.4004
   61MOL    H2115741   7.713   2.564   5.817 -0.1290  1.2586 -0.5043
   61MOL    H2215742   7.407   2.533   5.840 -0.1869  1.8024 -0.8229
   61MOL    H2315743   7.651   2.694   6.166 -2.4964 -0.9450 -0.0299
   61MOL    H2415744   7.640   2.783   6.025 -0.5730 -0.1185 -0.3721
   61MOL    H2515745   7.739   2.626   6.031 -0.9064 -0.7621 -0.6624
   61MOL    H2615746   7.392   2.661   6.184 -1.2105  0.8572  0.1018
   61MOL    H2715747   7.308   2.599   6.041 -0.7288 -1.1779  1.3987
   61MOL    C2815748   7.346   2.810   6.038  0.2073  0.6691  0.7047
   61MOL    C2915749   7.247   2.867   6.132 -0.2367  0.2966 -0.5614
   61MOL    C3015750   7.206   2.991   6.144 -0.1420 -0.1962 -0.2080
   61MOL    C3115751   7.273   3.105   6.065  0.0516 -0.6900 -0.1094
   61MOL    C3215752   7.085   3.027   6.231 -0.4908  0.3956 -0.0233
   61MOL    H3315753   7.306   2.807   5.937  3.1649  0.3467 -0.4938
   61MOL    H3415754   7.427   2.883   6.030  0.4832  0.1172 -1.9230
   61MOL    H3515755   7.202   2.798   6.201  2.3927 -0.8911  0.0118
   61MOL    H3615756   7.196   3.173   6.027  0.8272  0.9148  1.1064
   61MOL    H3715757   7.333   3.076   5.979 -2.7406 -0.2873 -2.3014
   61MOL    H3815758   7.338   3.162   6.131  0.0457 -0.2468 -0.4813
   61MOL    H3915759   7.030   2.938   6.261 -0.0759  1.1260  3.0932
   61MOL    H4015760   7.035   3.096   6.164  1.6428 -0.0864 -2.1544
   61MOL    C4115761   7.124   3.107   6.354 -0.5672  0.2375  0.1862
   61MOL    C4215762   7.222   3.026   6.431 -0.0101 -0.1323 -0.0962
   61MOL    C4315763   7.338   3.057   6.493 -0.2452 -0.5255 -0.2097
   61MOL    C4415764   7.404   3.193   6.486 -0.2172  0.0184  0.0603
   61MOL    C4515765   7.425   2.945   6.569  0.0911  0.8001  0.1515
   61MOL    H4615766   7.042   3.137   6.420 -0.4142  1.3984 -0.1446
   61MOL    H4715767   7.165   3.199   6.313 -0.5226 -0.3528 -1.1108
   61MOL    H4815768   7.191   2.923   6.431 -0.4028 -0.0130 -0.5337
   61MOL    H4915769   7.438   3.230   6.583  0.1730  0.5089 -0.2621
   61MOL    H5015770   7.320   3.257   6.459 -0.8310 -0.6191  0.4544
   61MOL    H5115771   7.481   3.204   6.410  0.3480 -1.1701  0.4456
   61MOL    H5215772   7.402   2.967   6.674 -0.4065  2.4606 -0.2957
   61MOL    H5315773   7.532   2.966   6.561  0.5720 -1.2820  0.7616
   61MOL    C5415774   7.403   2.798   6.528  0.1635 -0.9537  0.0794
   61MOL    C5515775   7.483   2.712   6.617  0.7366 -0.1509 -0.3584
   61MOL    C5615776   7.600   2.653   6.586  0.2031 -0.0479 -0.7754
   61MOL    C5715777   7.674   2.669   6.458 -0.9489 -0.1531 -0.6509
   61MOL    C5815778   7.656   2.558   6.691  0.1127  0.1110 -0.5880
   61MOL    H5915779   7.428   2.774   6.425 -0.6250 -0.1039 -0.3153
   61MOL    H6015780   7.297   2.772   6.535  0.4483 -1.9597  0.6979
   61MOL    H6115781   7.449   2.689   6.717  0.1621 -0.3317 -0.5959
   61MOL    H6215782   7.641   2.758   6.405 -0.4436 -0.8326 -2.1374
   61MOL    H6315783   7.668   2.573   6.407  0.3404 -1.4117  1.4660
   61MOL    H6415784   7.781   2.672   6.478 -0.7793  2.9079 -1.7639
   61MOL    H6515785   7.626   2.579   6.794 -0.5277 -0.2640 -0.6912
   61MOL    H6615786   7.764   2.574   6.687  0.2251 -0.6210 -0.6266
   61MOL    C6715787   7.622   2.413   6.666  0.3148  0.0573  0.1457
   61MOL    C6815788   7.675   2.318   6.778  0.8781  0.2112  0.3423
   61MOL    C6915789   7.750   2.207   6.756 -0.0092  0.6408 -0.3753
   61MOL    C7015790   7.797   2.173   6.615 -0.3057 -0.3483 -0.3327
   61MOL    C7115791   7.801   2.114   6.865 -0.3282  0.3779 -0.5895
   61MOL    H7215792   7.656   2.372   6.572  0.2632 -1.2799  0.7013
   61MOL    H7315793   7.515   2.412   6.685  0.2042  2.1072 -0.2183
   61MOL    H7415794   7.655   2.350   6.879 -0.2658 -0.2567  0.2666
   61MOL    H7515795   7.719   2.199   6.544 -1.6800  0.2129  1.3490
   61MOL    H7615796   7.828   2.070   6.597  2.3204  0.8226 -3.0073
   61MOL    H7715797   7.881   2.238   6.588 -1.6103  0.4633 -2.5358
   61MOL    H7815798   7.793   2.162   6.962  0.6321  1.3598 -0.9767
   61MOL    H7915799   0.027   2.108   6.864 -0.2301  1.5762  1.7587
   61MOL    C8015800   7.725   1.982   6.877  0.1046  0.8365 -0.2893
   61MOL    C8115801   7.577   2.011   6.879  0.4015 -0.2433 -0.1970
   61MOL    C8215802   7.480   1.969   6.790  0.1114  0.0992 -0.3665
   61MOL    C8315803   7.512   1.898   6.666  0.5963 -0.5112  0.1612
   61MOL    C8415804   7.330   1.967   6.831  0.2858  0.7452  0.2975
   61MOL    H8515805   7.756   1.923   6.963  1.3562  1.5521 -0.2414
   61MOL    H8615806   7.744   1.915   6.793  2.8802 -0.0379  0.9840
   61MOL    H8715807   7.545   2.050   6.975 -1.2745  0.3802 -0.9883
   61MOL    H8815808   7.512   1.790   6.685  1.0570 -0.7255 -1.0173
   61MOL    H8915809   7.608   1.932   6.629  0.8087 -0.1080  1.0651
   61MOL    H9015810   7.433   1.918   6.594 -0.6137 -2.3154  0.9280
   61MOL    H9115811   7.296   1.864   6.837 -0.0302  0.9777  2.7245
   61MOL    H9215812   7.266   2.011   6.754 -1.9139 -1.4805  0.7804
   61MOL    C9315813   7.292   2.020   6.970 -0.0762  0.1753  0.1528
   61MOL    C9415814   7.142   1.992   6.990  0.1880 -0.0516 -0.2815
   61MOL    C9515815   7.043   2.080   7.006  0.5391  0.9824  0.0662
   61MOL    C9615816   7.057   2.232   6.999  0.4546  0.4598  0.1178
   61MOL    C9715817   6.902   2.032   7.009  0.7387  0.0316 -0.1143
   61MOL    H9815818   7.317   2.126   6.964 -2.3030  0.6747 -0.7911
   61MOL    H9915819   7.345   1.975   7.054 -0.1801 -3.4362 -1.5840
   61MOL   H10015820   7.094   1.896   6.987  0.8332 -0.4079  0.6118
   61MOL   H10115821   7.159   2.260   6.975  0.2154 -0.4352 -2.0659
   61MOL   H10215822   7.026   2.259   7.100 -1.3963  1.5232 -0.7116
   61MOL   H10315823   6.988   2.276   6.928 -0.2480  0.5017  0.8201
   61MOL   H10415824   6.890   1.972   6.918  0.1358 -1.8316  1.1612
   61MOL   H10515825   6.835   2.114   6.984  1.7734  1.0350  0.3599
   61MOL   C10615826   6.876   1.953   7.137 -0.6385  0.4061 -0.3819
   61MOL   C10715827   6.729   1.921   7.139  0.2180 -0.0479 -0.0474
   61MOL   C10815828   6.648   1.891   7.243 -0.2129  0.5781 -0.2287
   61MOL   C10915829   6.705   1.863   7.383  0.2093 -0.2081  0.3517
   61MOL   C11015830   6.500   1.861   7.231 -0.0196 -0.2718  0.4748
   61MOL   H11115831   6.906   2.004   7.229  1.2935 -1.9973  0.3757
   61MOL   H11215832   6.938   1.864   7.133  0.7410  1.3343 -0.0293
   61MOL   H11315833   6.683   1.919   7.041  0.0150  1.2585  0.0174
   61MOL   H11415834   6.669   1.768   7.422 -3.0893  1.4440  1.5374
   61MOL   H11515835   6.667   1.943   7.447  0.7188  0.9155 -0.7354
   61MOL   H11615836   6.812   1.842   7.387 -0.0416 -2.3935 -2.7884
   61MOL   H11715837   6.482   1.767   7.283 -0.5068  0.4030  1.5411
   61MOL   H11815838   6.478   1.858   7.124 -1.4720  0.3758  0.7447
   61MOL   C11915839   6.406   1.976   7.287 -0.2354  0.5161  0.1483
   61MOL   C12015840   6.433   2.108   7.215 -0.5942  0.5335  0.2469
   61MOL   C12115841   6.463   2.218   7.283  0.0879 -0.0383 -0.0020
   61MOL   C12215842   6.458   2.237   7.436  0.7204 -0.3173  0.7524
   61MOL   C12315843   6.518   2.344   7.213 -0.1748 -0.3982  1.0286
   61MOL   H12415844   6.419   1.983   7.395  0.2189 -0.2378  0.1447
   61MOL   H12515845   6.301   1.949   7.282 -0.1075  0.1021 -0.3750
   61MOL   H12615846   6.439   2.103   7.107 -0.6209 -3.8949  0.3405
   61MOL   H12715847   6.389   2.164   7.479 -1.1353  0.9214 -0.0161
   61MOL   H12815848   6.432   2.337   7.472  0.6552 -0.6739  1.6884
   61MOL   H12915849   6.556   2.205   7.471  0.8890 -0.4694  0.1577
   61MOL   H13015850   6.458   2.429   7.246  0.4136 -0.9127  3.5616
   61MOL   H13115851   6.496   2.331   7.107  2.3161 -0.0849  0.4493
   61MOL   C13215852   6.663   2.373   7.245 -0.3612 -0.1566  0.2203
   61MOL   C13315853   6.692   2.438   7.378  0.9697 -0.4751 -0.0578
   61MOL   C13415854   6.662   2.565   7.411  0.3145 -0.5046 -0.4673
   61MOL   C13515855   6.583   2.666   7.326  0.9438 -0.6647  0.2050
   61MOL   C13615856   6.694   2.619   7.545  0.2943  0.2301  0.1727
   61MOL   H13715857   6.696   2.444   7.168  0.7893  0.8300  1.5931
   61MOL   H13815858   6.718   2.281   7.226  3.4086  1.7449  1.4417
   61MOL   H13915859   6.738   2.387   7.462  1.2138  1.7642  1.2006
   61MOL   H14015860   6.478   2.672   7.356  1.5718  0.4938  2.2531
   61MOL   H14115861   6.595   2.656   7.218  1.0859 -1.9973  0.3441
   61MOL   H14215862   6.624   2.766   7.344  2.0967 -1.0603 -0.1994
   61MOL   H14315863   6.757   2.707   7.531  1.3786 -0.6457 -0.6309
   61MOL   H14415864   6.762   2.551   7.598 -0.4509 -0.2089  0.5631
   61MOL   C14515865   6.564   2.650   7.624 -0.5976  0.0772 -0.0571
   61MOL   C14615866   6.586   2.712   7.757  0.3293  0.7830 -0.0616
   61MOL   C14715867   6.539   2.668   7.876 -1.3092 -0.3559 -0.0618
   61MOL   C14815868   6.447   2.549   0.008  0.1529  0.3562  0.6611
   61MOL   C14915869   6.575   2.728   0.132 -0.0964  0.1696 -0.5900
   61MOL   H15015870   6.505   2.559   7.636  0.7184 -0.8220 -0.2496
   61MOL   H15115871   6.511   2.733   7.578  0.9750  1.4461  0.5383
   61MOL   H15215872   6.660   2.791   7.763  0.1296  1.0708 -1.2730
   61MOL   H15315873   6.405   2.535   0.108 -2.6682  2.4501 -0.1930
   61MOL   H15415874   6.497   2.458   7.857 -0.7220  0.2021 -0.2406
   61MOL   H15515875   6.362   2.552   7.822 -1.7294  0.7408  2.9408
   61MOL   H15615876   6.642   2.812   0.116 -0.7744  1.0831  1.2121
   61MOL   H15715877   6.635   2.657   0.189  1.4181  0.0684 -2.2722
   61MOL   C15815878   6.464   2.783   0.222  0.8204 -0.8911 -0.1361
   61MOL   C15915879   6.435   2.932   0.196  0.4242 -0.3054 -0.3729
   61MOL   C16015880   6.480   3.037   0.270  0.0023 -0.4176 -0.1909
   61MOL   C16115881   6.558   3.017   0.397 -0.3218 -0.5307  0.0869
   61MOL   C16215882   6.462   3.186   0.228  0.9293 -0.0263 -0.1034
   61MOL   H16315883   6.493   2.758   0.324  2.0459  0.7613 -0.0609
   61MOL   H16415884   6.369   2.734   0.197  0.1051 -0.0758  0.9229
   61MOL   H16515885   6.376   2.939   0.105  0.5085 -1.3446 -0.5186
   61MOL   H16615886   6.559   3.110   0.454 -1.2144 -1.3025  1.3687
   61MOL   H16715887   6.663   2.991   0.379  0.7407  1.5835  2.8696
   61MOL   H16815888   6.504   2.939   0.451 -0.6450  0.8813  1.8402
   61MOL   H16915889   6.410   3.180   0.132  0.8583  1.2045 -0.1458
   61MOL   H17015890   6.556   3.240   0.220  0.0401  1.4791 -0.6340
   61MOL   C17115891   6.375   3.270   0.320 -0.7219 -0.0322  0.7098
   61MOL   C17215892   6.413   3.419   0.286  0.2795  0.2114 -0.3304
   61MOL   C17315893   6.332   3.511   0.240  0.2696 -0.3807  0.3849
   61MOL   C17415894   6.201   3.474   0.183 -0.0826 -0.0175 -1.3286
   61MOL   C17515895   6.374   3.654   0.228 -0.2188 -0.1405  0.1573
   61MOL   H17615896   6.405   3.255   0.424  0.5045 -0.2018  0.3455
   61MOL   H17715897   6.268   3.256   0.310 -0.7465  1.6269 -1.6075
   61MOL   H17815898   6.509   3.452   0.321  0.2444  1.4556 -1.3520
   61MOL   H17915899   6.136   3.432   0.260  0.5141  1.5603  0.0562
   61MOL   H18015900   6.201   3.412   0.093  0.9781 -0.8455 -0.7675
   61MOL   H18115901   6.146   3.564   0.155 -0.9430 -0.4521 -1.0762
   61MOL   H18215902   6.384   3.673   0.122  1.2901 -4.9821 -0.7075
   61MOL   H18315903   6.472   3.672   0.272 -1.2947  1.2842  2.0727
   61MOL   C18415904   6.274   3.752   0.285 -0.0350 -0.2252  0.5089
   61MOL   C18515905   6.325   3.893   0.283 -0.1582  0.7589  1.2161
   61MOL   C18615906   6.282   3.991   0.199 -0.3343 -1.0743 -0.4598
   61MOL   C18715907   6.174   3.979   0.098  0.1182 -0.0372  0.0015
   61MOL   C18815908   6.362   4.126   0.208  0.4417 -0.5034 -0.7244
   61MOL   H18915909   6.240   3.716   0.382 -1.7162  1.2708  0.4965
   61MOL   H19015910   6.183   3.742   0.226 -1.1862  1.4878  1.9237
   61MOL   H19115911   6.408   3.904   0.352  0.6492 -1.6658  0.6606
   61MOL   H19215912   6.214   3.968   7.879 -0.0385  2.2148 -0.3408
   61MOL   H19315913   6.128   4.078   0.095 -0.2354 -0.2165 -0.5893
   61MOL   H19415914   6.099   3.902   0.113 -2.2253  1.9258 -1.3633
   61MOL   H19515915   6.393   4.183   0.120 -0.1912  2.5986  1.0046
   61MOL   H19615916   6.456   4.101   0.256  0.4915 -1.8532 -1.4887
   61MOL   C19715917   6.268   4.218   0.298  0.2979  1.1799 -1.0405
   61MOL   C19815918   6.337   4.359   0.311 -0.0982  0.0668  0.1223
   61MOL   C19915919   6.305   4.474   0.242 -0.5855  0.4057 -0.5050
   61MOL   C20015920   6.210   4.474   0.127  0.0496  0.7525  0.1446
   61MOL   C20115921   6.351   4.610   0.278 -0.2755  0.0715  0.1893
   61MOL   H20215922   6.251   4.178   0.398 -2.9920  1.2012 -1.5082
   61MOL   H20315923   6.168   4.236   0.258 -0.9296 -0.3490  1.2665
   61MOL   H20415924   6.419   4.371   0.380 -1.7972  1.4691  1.9657
   61MOL   H20515925   6.125   4.538   0.144 -1.4692 -1.0776 -0.3449
   61MOL   H20615926   6.183   4.371   0.101  0.7905 -0.0590  2.4869
   61MOL   H20715927   6.257   4.518   0.038 -0.5593  0.9119 -0.0961
   61MOL   H20815928   6.367   4.684   0.200  0.1454 -0.1512  0.0659
   61MOL   H20915929   6.454   4.604   0.311  0.3336  3.8314 -0.8249
   61MOL   C21015930   6.257   4.669   0.383 -0.2836 -0.8564  0.1426
   61MOL   C21115931   6.301   4.812   0.418 -0.6186  0.0129  0.6918
   61MOL   C21215932   6.344   4.860   0.541  0.0710 -0.1807  0.1399
   61MOL   C21315933   6.366   4.770   0.660  0.5693 -0.6540  0.1908
   61MOL   C21415934   6.386   5.006   0.559  0.0327  0.5998 -0.9711
   61MOL   H21515935   6.275   4.596   0.462  0.2511  0.6636  1.4360
   61MOL   H21615936   6.151   4.666   0.358  0.0264  2.8906 -2.0522
   61MOL   H21715937   6.284   4.881   0.337 -1.2700  1.2844  1.8793
   61MOL   H21815938   6.340   4.822   0.752  1.5303  2.0988 -1.0425
   61MOL   H21915939   6.466   4.727   0.659  0.6446 -0.4977  0.7277
   61MOL   H22015940   6.308   4.678   0.668 -1.5889  0.7009  0.5151
   61MOL   H22115941   6.494   5.019   0.549  0.4694 -2.2585 -0.3823
   61MOL   H22215942   6.363   5.020   0.665 -0.6862  1.8079 -1.2785
   61MOL   C22315943   6.333   5.106   0.457 -0.1930  0.4074 -0.3385
   61MOL   C22415944   6.344   5.246   0.518  0.7933 -0.1843  0.1960
   61MOL   C22515945   6.401   5.354   0.454 -0.8588  0.3229  0.1430
   61MOL   C22615946   6.466   5.348   0.318  0.6424  0.1213  0.0967
   61MOL   C22715947   6.419   5.486   0.528 -0.4586 -0.9384 -0.1153
   61MOL   H22815948   6.229   5.076   0.445  0.5060 -2.5709  0.6293
   61MOL   H22915949   6.375   5.086   0.359  3.3340  0.2146  1.1478
   61MOL   H23015950   6.303   5.252   0.618  0.5222 -0.2938  0.0927
   61MOL   H23115951   6.436   5.431   0.255 -1.3234  0.6642  1.6823
   61MOL   H23215952   6.429   5.262   0.261 -2.5535  1.5376 -0.1069
   61MOL   H23315953   6.574   5.351   0.330  0.3525  1.3523  2.8288
   61MOL   H23415954   6.510   5.534   0.491 -1.0272  2.3225  2.4865
   61MOL   H23515955   6.439   5.475   0.635  0.1030 -1.7330 -0.2929
   61MOL   C23615956   6.299   5.583   0.517 -0.1816 -0.2711 -0.3609
   61MOL   C23715957   6.318   5.700   0.618 -0.5820 -0.2222  0.1452
   61MOL   C23815958   6.286   5.830   0.607  0.0696  0.0708 -0.2278
   61MOL   C23915959   6.225   5.883   0.476 -0.8245 -0.1998 -1.0116
   61MOL   C24015960   6.316   5.935   0.716 -0.1678  0.0335  0.5098
   61MOL   H24115961   6.209   5.525   0.539 -0.3513 -0.2785 -1.0382
   61MOL   H24215962   6.289   5.617   0.414  0.7961 -0.9341 -0.6862
   61MOL   H24315963   6.350   5.667   0.716  1.0653 -0.9692 -0.6131
   61MOL   H24415964   6.141   5.952   0.487  0.1437  0.7834  0.3311
   61MOL   H24515965   6.190   5.790   0.431  0.4718 -0.9770 -0.4470
   61MOL   H24615966   6.307   5.928   0.420 -3.7586  0.8074 -4.7015
   61MOL   H24715967   6.232   6.004   0.716 -1.6103 -1.6591 -1.8050
   61MOL   H24815968   6.399   5.990   0.671 -0.3129 -0.3665 -0.2530
   61MOL   C24915969   6.355   5.898   0.860 -0.9368  0.0642  0.4649
   61MOL   C25015970   6.376   6.012   0.959  0.3730 -0.1171  0.6262
   61MOL   C25115971   6.498   6.065   1.000 -0.1894  1.6958  0.2014
   61MOL   C25215972   6.636   6.010   0.964  0.6723 -0.6888 -0.3952
   61MOL   C25315973   6.486   6.183   1.089 -0.4388  0.0956  0.1294
   61MOL   H25415974   6.443   5.834   0.861 -2.8234 -2.6175 -0.8322
   61MOL   H25515975   6.267   5.847   0.901 -0.1340 -0.6558  1.3160
   61MOL   H25615976   6.288   6.064   0.995  1.5309  0.4341  2.7945
   61MOL   H25715977   6.676   5.933   1.030 -0.7665 -1.4512 -0.4041
   61MOL   H25815978   6.721   6.077   0.948 -0.2499  0.5700 -0.0742
   61MOL   H25915979   6.643   5.960   0.867  0.5209 -1.2527 -0.1144
   61MOL   H26015980   6.389   6.230   1.102 -1.3093 -0.8041 -2.7488
   61MOL   H26115981   6.551   6.259   1.046 -1.2390 -0.1974 -1.6346
   61MOL   H26215982   6.516   6.142   1.186 -1.1978 -2.8333 -0.8321
   62MOL     C115983   2.080   2.761   4.397  0.7303  0.4850  0.2313
   62MOL     C215984   2.092   2.617   4.428 -0.1222  0.2058 -0.6722
   62MOL     C315985   2.006   2.535   4.496  0.0703 -0.3476  0.5380
   62MOL     C415986   1.873   2.572   4.558 -0.4302 -0.1475 -0.1751
   62MOL     C515987   2.045   2.392   4.536 -0.4042 -0.6502  0.4040
   62MOL     H615988   2.036   2.779   4.299 -0.2560  0.7567  0.7132
   62MOL     H715989   2.012   2.806   4.470  0.4471  0.4069  0.0145
   62MOL     H815990   2.183   2.572   4.391  0.8440  0.9838  0.7232
   62MOL     H915991   1.847   2.678   4.558  1.3704  0.3303  1.2622
   62MOL    H1015992   1.877   2.535   4.660  0.2399 -1.4092 -0.6436
   62MOL    H1115993   1.796   2.513   4.507 -2.2454  0.8750  1.3512
   62MOL    H1215994   2.078   2.392   4.640 -1.6121 -1.6513  0.8021
   62MOL    H1315995   2.132   2.354   4.481  0.9861  2.4436  0.3764
   62MOL    H1415996   2.176   2.811   4.411 -0.1293  2.8920 -2.0065
   62MOL    C1515997   1.926   2.290   4.513 -0.1609  0.2492  0.0783
   62MOL    C1615998   1.978   2.146   4.539  0.1004 -0.7084  0.1664
   62MOL    C1715999   1.963   2.042   4.456 -0.0585 -0.8852 -0.0902
   62MOL    C1816000   1.860   2.044   4.343  0.1786 -0.3379 -0.2338
   62MOL    C1916001   2.038   1.911   4.468  0.1031  0.5017  0.5505
   62MOL    H2016002   1.878   2.306   4.416 -0.0017 -1.0401 -0.2274
   62MOL    H2116003   1.837   2.302   4.575  0.1277 -3.9549  1.4850
   62MOL    H2216004   2.042   2.133   4.626 -0.4875 -1.5072  0.4884
   62MOL    H2316005   1.929   2.039   4.259  1.0167 -0.6861  0.4775
   62MOL    H2416006   1.801   2.134   4.325  0.7119  0.2471  0.9594
   62MOL    H2516007   1.795   1.959   4.322  0.8564 -0.8751 -0.1549
   62MOL    H2616008   1.971   1.838   4.423  2.0695 -1.2459  0.4163
   62MOL    H2716009   2.048   1.893   4.575 -0.1673  0.4831  0.5721
   62MOL    C2816010   2.175   1.907   4.401  0.2949 -0.7688  0.1519
   62MOL    C2916011   2.227   1.765   4.389 -0.5702 -0.0394 -0.2789
   62MOL    C3016012   2.206   1.679   4.284 -0.1068 -0.0712 -0.0790
   62MOL    C3116013   2.120   1.712   4.169 -0.0063 -0.7290 -0.2919
   62MOL    C3216014   2.265   1.540   4.274  0.0848  0.0725  1.3423
   62MOL    H3316015   2.246   1.963   4.461  0.3932 -1.0235  0.2727
   62MOL    H3416016   2.163   1.955   4.303 -1.2398 -0.8536  0.2853
   62MOL    H3516017   2.281   1.735   4.478 -1.1809  1.3274  0.5661
   62MOL    H3616018   2.046   1.791   4.187 -1.1624 -2.0025  0.6497
   62MOL    H3716019   2.061   1.628   4.132  0.2173 -1.9498  2.0879
   62MOL    H3816020   2.188   1.745   4.091 -0.0499  0.7625  0.2818
   62MOL    H3916021   2.302   1.521   4.174  1.1785  2.5307  1.2507
   62MOL    H4016022   2.190   1.464   4.297 -0.4244 -0.1130 -0.8574
   62MOL    C4116023   2.375   1.499   4.375  0.6710 -0.1465  0.1671
   62MOL    C4216024   2.414   1.351   4.375 -0.8437  0.0438 -0.3762
   62MOL    C4316025   2.361   1.252   4.446  0.1267  0.4281 -0.5031
   62MOL    C4416026   2.265   1.279   4.566  0.1991  0.1138  0.1029
   62MOL    C4516027   2.380   1.102   4.416 -0.2283 -0.2881 -0.5361
   62MOL    H4616028   2.344   1.528   4.476  2.1931 -0.3540  0.7077
   62MOL    H4716029   2.456   1.572   4.367 -0.1154  0.6142 -0.9716
   62MOL    H4816030   2.482   1.325   4.295 -0.9663  1.8139 -1.0907
   62MOL    H4916031   2.199   1.193   4.564  0.7278 -0.3035  0.2711
   62MOL    H5016032   2.225   1.379   4.551  2.9311  1.5237  1.7046
   62MOL    H5116033   2.326   1.280   4.657 -0.9771 -0.2186  0.9001
   62MOL    H5216034   2.397   1.053   4.512  1.0096  0.4119 -0.3912
   62MOL    H5316035   2.469   1.088   4.355 -1.7013 -2.1634 -2.3548
   62MOL    C5416036   2.274   1.035   4.337  0.2167 -0.2601  0.0194
   62MOL    C5516037   2.280   1.083   4.194 -0.4992 -0.0107  0.5692
   62MOL    C5616038   2.178   1.141   4.133 -0.6479  0.2875  0.1967
   62MOL    C5716039   2.045   1.171   4.190  0.2242  0.3457  0.3165
   62MOL    C5816040   2.194   1.194   3.993 -0.1222 -0.3772 -0.7233
   62MOL    H5916041   2.178   1.055   4.385  0.3738  0.2497  0.1293
   62MOL    H6016042   2.292   0.929   4.325  1.0239  0.0134 -1.3032
   62MOL    H6116043   2.375   1.076   4.144  0.2135 -1.8620  2.0947
   62MOL    H6216044   2.000   1.255   4.138 -3.3089 -1.0603  0.9485
   62MOL    H6316045   2.047   1.194   4.296  1.6753 -1.4195  0.6882
   62MOL    H6416046   1.979   1.087   4.166 -1.7120  2.0606 -0.5325
   62MOL    H6516047   2.296   1.232   3.989  0.0462 -0.8399 -0.8977
   62MOL    H6616048   2.130   1.279   3.972 -0.5013 -0.7903 -1.2514
   62MOL    C6716049   2.190   1.089   3.883 -0.1320 -0.5582  0.0613
   62MOL    C6816050   2.228   1.156   3.748  0.0106  0.0059 -0.2176
   62MOL    C6916051   2.220   1.099   3.626  0.2266  0.0173 -1.0309
   62MOL    C7016052   2.184   0.953   3.600  0.3244  0.5118  0.2678
   62MOL    C7116053   2.259   1.171   3.498  0.6886  0.2704  0.4462
   62MOL    H7216054   2.087   1.058   3.867 -0.7603  0.5930  1.6715
   62MOL    H7316055   2.259   1.006   3.895  2.5729  1.5714 -0.2041
   62MOL    H7416056   2.253   1.261   3.752  0.7186 -0.1846  0.7163
   62MOL    H7516057   2.204   0.889   3.686 -2.2147  1.8307  1.8851
   62MOL    H7616058   2.243   0.899   3.525  0.3487  0.9161 -0.0053
   62MOL    H7716059   2.080   0.927   3.584  0.7002 -1.4787  0.9033
   62MOL    H7816060   2.338   1.122   3.440 -0.2379 -0.5688 -0.1250
   62MOL    H7916061   2.298   1.268   3.527 -0.3671  0.2299  2.0557
   62MOL    C8016062   2.130   1.177   3.403  0.1521  0.3882  0.3394
   62MOL    C8116063   2.026   1.264   3.466 -0.3717 -0.7130  0.0901
   62MOL    C8216064   1.906   1.228   3.520  0.5516 -0.2546  0.6768
   62MOL    C8316065   1.851   1.091   3.513  0.9062  0.0505 -0.0045
   62MOL    C8416066   1.814   1.330   3.578  0.0911 -0.0084  0.4340
   62MOL    H8516067   2.104   1.073   3.382  1.2966  0.1679 -0.0054
   62MOL    H8616068   2.153   1.225   3.308 -0.2727 -1.7524 -0.8960
   62MOL    H8716069   2.057   1.367   3.474  0.6920 -0.9804 -0.4842
   62MOL    H8816070   1.755   1.099   3.462 -0.3341  1.5260  2.4644
   62MOL    H8916071   1.824   1.051   3.611 -1.2889 -0.4099 -0.7587
   62MOL    H9016072   1.913   1.029   3.448  0.6985 -1.4833  1.2254
   62MOL    H9116073   1.726   1.333   3.514 -0.4951 -2.7384  1.0507
   62MOL    H9216074   1.849   1.432   3.563 -1.0376  0.2064 -0.7983
   62MOL    C9316075   1.786   1.321   3.730 -0.0801 -0.2907  0.4977
   62MOL    C9416076   1.694   1.435   3.776  0.1466 -0.4166  0.6013
   62MOL    C9516077   1.726   1.537   3.862  0.6059 -0.3774 -0.3060
   62MOL    C9616078   1.861   1.571   3.905 -0.1162 -0.6718 -0.2756
   62MOL    C9716079   1.624   1.634   3.913 -0.0618  0.0602  0.0826
   62MOL    H9816080   1.888   1.321   3.767  1.1569  2.0291 -2.7241
   62MOL    H9916081   1.747   1.222   3.756 -0.0676 -0.3302  0.3668
   62MOL   H10016082   1.591   1.421   3.746  0.4527 -2.3455  0.4221
   62MOL   H10116083   1.862   1.588   4.012 -0.0095  0.9186 -0.5181
   62MOL   H10216084   1.904   1.664   3.867 -1.5243  0.9940  2.1424
   62MOL   H10316085   1.934   1.491   3.892  0.4306  0.0135 -1.5692
   62MOL   H10416086   1.631   1.635   4.022  1.0364 -2.6862  0.0828
   62MOL   H10516087   1.530   1.600   3.871 -0.5270  1.2650  0.1435
   62MOL   C10616088   1.640   1.777   3.848 -0.1622 -0.3143  0.2774
   62MOL   C10716089   1.735   1.873   3.914  1.0841  0.4202  0.2393
   62MOL   C10816090   1.793   1.983   3.858  0.6950  0.2664 -0.2694
   62MOL   C10916091   1.784   2.029   3.712 -0.6296  0.0725 -0.1544
   62MOL   C11016092   1.889   2.061   3.942 -0.6937 -0.1318  1.1188
   62MOL   H11116093   1.546   1.825   3.875 -0.7967 -1.8177  0.7544
   62MOL   H11216094   1.634   1.772   3.739 -1.2483 -0.3686  0.3332
   62MOL   H11316095   1.743   1.861   4.021 -2.1191 -2.1151  0.2997
   62MOL   H11416096   1.869   1.985   3.660 -0.1542  0.5177  0.2473
   62MOL   H11516097   1.796   2.137   3.707  0.4013 -0.0236  0.1411
   62MOL   H11616098   1.686   2.007   3.669 -0.7377  0.4697 -0.1107
   62MOL   H11716099   1.857   2.051   4.046  2.0439 -0.4809  1.9787
   62MOL   H11816100   1.892   2.167   3.918  2.9631 -0.0356  1.6802
   62MOL   C11916101   2.036   2.016   3.923  0.7818  0.0303 -0.4291
   62MOL   C12016102   2.140   2.081   4.009 -0.5504 -0.4601 -0.0473
   62MOL   C12116103   2.237   2.161   3.963 -0.0109  0.0986 -0.2073
   62MOL   C12216104   2.269   2.178   3.813  0.1486 -0.8342 -0.1399
   62MOL   C12316105   2.336   2.233   4.052  0.4966 -0.6401 -0.3931
   62MOL   H12416106   2.057   2.021   3.816  1.1147 -1.4751 -0.4360
   62MOL   H12516107   2.042   1.911   3.948 -0.9778  0.1390  0.5710
   62MOL   H12616108   2.136   2.065   4.116  3.1103  0.9712  0.3918
   62MOL   H12716109   2.268   2.087   3.752  3.3713 -1.0490  0.0252
   62MOL   H12816110   2.377   2.191   3.814  0.2157 -0.9154 -2.3793
   62MOL   H12916111   2.225   2.267   3.769  0.3778 -1.0475 -0.8070
   62MOL   H13016112   2.338   2.337   4.017  0.0303 -1.0588 -1.6972
   62MOL   H13116113   2.437   2.198   4.035  0.4585  0.3291 -2.8789
   62MOL   C13216114   2.307   2.246   4.210  0.7888 -0.8267 -0.3411
   62MOL   C13316115   2.355   2.374   4.277  0.2627  0.0388  0.2237
   62MOL   C13416116   2.446   2.378   4.376 -1.1591 -0.1708  0.0845
   62MOL   C13516117   2.504   2.255   4.443 -0.2920  0.1452  0.3120
   62MOL   C13616118   2.501   2.516   4.427 -0.3295  0.4356  0.3352
   62MOL   H13716119   2.326   2.147   4.251 -0.2885 -2.1866 -3.0208
   62MOL   H13816120   2.201   2.262   4.226  1.2042  0.2810  1.4321
   62MOL   H13916121   2.313   2.463   4.233  0.8801  0.4840  0.5198
   62MOL   H14016122   2.479   2.243   4.549 -0.5462 -2.1049  0.0347
   62MOL   H14116123   2.613   2.261   4.439 -0.2854 -0.6694 -0.8594
   62MOL   H14216124   2.479   2.160   4.396 -0.8332 -0.1137  1.1062
   62MOL   H14316125   2.451   2.580   4.354  2.3361  0.0662 -1.9501
   62MOL   H14416126   2.609   2.525   4.412  0.1699 -1.1211  2.7644
   62MOL   C14516127   2.471   2.558   4.570 -0.3958 -0.0467  0.5643
   62MOL   C14616128   2.473   2.711   4.589 -0.1626  0.0168  0.1598
   62MOL   C14716129   2.579   2.795   4.592 -0.2250  0.5378 -0.5129
   62MOL   C14816130   2.723   2.759   4.569  0.6097 -0.6053  0.0926
   62MOL   C14916131   2.558   2.943   4.597 -0.1087 -0.7544  0.1272
   62MOL   H15016132   2.526   2.506   4.647 -1.2932 -0.7779  0.7211
   62MOL   H15116133   2.367   2.537   4.597 -1.0747  0.7680 -1.2456
   62MOL   H15216134   2.373   2.751   4.603 -0.7045 -1.2987  0.0631
   62MOL   H15316135   2.743   2.653   4.551 -0.0761 -0.9599  1.3630
   62MOL   H15416136   2.771   2.787   4.662 -0.7016 -0.7358  0.8163
   62MOL   H15516137   2.762   2.817   4.485 -0.8930  2.0204  1.1609
   62MOL   H15616138   2.459   2.976   4.565  0.1888 -1.6305 -1.7818
   62MOL   H15716139   2.620   2.988   4.519  0.8264 -0.7030  0.8994
   62MOL   C15816140   2.566   2.994   4.738  0.5607 -0.2694  0.2612
   62MOL   C15916141   2.549   3.142   4.754 -0.3605  0.4160  0.2811
   62MOL   C16016142   2.429   3.203   4.758 -0.8834 -0.0219  0.0890
   62MOL   C16116143   2.299   3.134   4.740 -0.3576  0.7528  0.5109
   62MOL   C16216144   2.429   3.357   4.772 -0.6183 -0.4984 -0.7679
   62MOL   H16316145   2.669   2.973   4.768  0.2690 -1.8751  0.2130
   62MOL   H16416146   2.501   2.934   4.801 -1.0092  1.0474 -0.0856
   62MOL   H16516147   2.638   3.202   4.771  0.1277  0.6461 -2.8165
   62MOL   H16616148   2.225   3.174   4.809  0.5590  2.0466  0.7785
   62MOL   H16716149   2.306   3.026   4.741 -1.7616  0.6554  1.2640
   62MOL   H16816150   2.265   3.158   4.639  0.1971  0.8660  0.3471
   62MOL   H16916151   2.522   3.405   4.739 -0.1316 -0.4039  0.6988
   62MOL   H17016152   2.407   3.391   4.874  0.9649 -0.1648 -0.5114
   62MOL   C17116153   2.312   3.424   4.688 -1.3466 -0.4591  0.0102
   62MOL   C17216154   2.313   3.575   4.710 -0.0201  0.6057 -0.1370
   62MOL   C17316155   2.336   3.677   4.623  0.4043 -0.5776 -0.3161
   62MOL   C17416156   2.380   3.649   4.482 -0.2585  0.6115 -0.1748
   62MOL   C17516157   2.291   3.817   4.656  0.3097 -0.6325  0.0264
   62MOL   H17616158   2.216   3.385   4.722 -1.7516 -0.1470 -0.7579
   62MOL   H17716159   2.324   3.393   4.584 -0.0695 -0.0236  0.0092
   62MOL   H17816160   2.284   3.603   4.810  4.9779  1.1151  1.3046
   62MOL   H17916161   2.446   3.562   4.482 -1.9350 -0.7341  1.4310
   62MOL   H18016162   2.430   3.741   4.455  0.6209 -0.2201 -1.4143
   62MOL   H18116163   2.291   3.638   4.420 -1.2561 -0.4822  1.3897
   62MOL   H18216164   2.373   3.881   4.624  0.6629 -0.7585  0.6717
   62MOL   H18316165   2.267   3.821   4.763  1.3508  1.5719  0.2133
   62MOL   C18416166   2.169   3.857   4.579 -0.1635  0.4987 -0.9091
   62MOL   C18516167   2.050   3.764   4.581 -0.2575  0.3427  0.6227
   62MOL   C18616168   1.969   3.721   4.482 -0.1974  0.3256 -0.2547
   62MOL   C18716169   1.978   3.768   4.335 -0.0186 -0.1132 -0.4722
   62MOL   C18816170   1.856   3.624   4.511  0.2972 -0.1423  0.5142
   62MOL   H18916171   2.201   3.871   4.476  1.4746  1.5124 -0.2752
   62MOL   H19016172   2.136   3.957   4.607 -0.5064  0.1597 -0.0755
   62MOL   H19116173   2.036   3.728   4.681 -2.2747  2.5985  1.2018
   62MOL   H19216174   1.971   3.679   4.272  1.2254 -0.6728  0.1636
   62MOL   H19316175   2.067   3.826   4.309  1.3234 -1.6419  0.5634
   62MOL   H19416176   1.898   3.841   4.324  0.6305  0.8338  0.8722
   62MOL   H19516177   1.785   3.633   4.428 -1.5058 -0.9937  1.9136
   62MOL   H19616178   1.802   3.651   4.602  1.4138  0.7629  0.9138
   62MOL   C19716179   1.917   3.482   4.510  0.3034 -0.4377 -0.1090
   62MOL   C19816180   1.804   3.380   4.511 -0.1829 -0.6155 -0.4806
   62MOL   C19916181   1.816   3.251   4.539 -0.1334  0.4502  0.0676
   62MOL   C20016182   1.944   3.194   4.594 -0.1655  0.6551  0.0546
   62MOL   C20116183   1.693   3.163   4.541  0.3573 -0.0766 -0.2929
   62MOL   H20216184   1.979   3.477   4.600  0.1421 -1.1241 -0.0333
   62MOL   H20316185   1.970   3.452   4.420 -1.3834  1.4267 -1.7654
   62MOL   H20416186   1.708   3.424   4.489  0.5855  1.8447  0.8869
   62MOL   H20516187   2.001   3.141   4.518 -0.5609  0.6743 -0.2541
   62MOL   H20616188   1.919   3.120   4.670 -1.9757  0.9784 -0.2059
   62MOL   H20716189   2.016   3.262   4.639  0.9680 -0.6945  0.3192
   62MOL   H20816190   1.608   3.219   4.501 -1.5405 -2.7471 -0.1549
   62MOL   H20916191   1.672   3.150   4.647 -0.3008 -1.1811 -0.5547
   62MOL   C21016192   1.711   3.024   4.477  0.4750  0.5512 -0.5143
   62MOL   C21116193   1.581   2.946   4.493 -0.2636 -0.3314  0.4149
   62MOL   C21216194   1.555   2.830   4.426 -0.8393 -0.6389 -0.2499
   62MOL   C21316195   1.648   2.766   4.329 -0.2676 -0.2664  0.1530
   62MOL   C21416196   1.428   2.757   4.450  0.0496  0.3837 -0.5490
   62MOL   H21516197   1.786   2.964   4.529 -1.3587 -1.0690  0.3137
   62MOL   H21616198   1.729   3.010   4.371  0.6550  0.3391 -0.4573
   62MOL   H21716199   1.504   2.989   4.554 -1.2492 -0.6727 -0.5681
   62MOL   H21816200   1.624   2.794   4.227  4.4066 -0.9827 -1.2986
   62MOL   H21916201   1.648   2.658   4.337  0.0824 -0.2865 -0.0758
   62MOL   H22016202   1.753   2.796   4.340 -0.6265  1.6978 -1.4706
   62MOL   H22116203   1.425   2.665   4.392 -1.3731  0.5080 -0.6906
   62MOL   H22216204   1.337   2.813   4.429 -0.4038 -0.4394 -0.8045
   62MOL   C22316205   1.413   2.706   4.600 -0.1362  0.1592 -0.9927
   62MOL   C22416206   1.297   2.608   4.624 -0.2269  0.2002  0.3189
   62MOL   C22516207   1.168   2.635   4.651  0.2607  0.0234 -0.0474
   62MOL   C22616208   1.114   2.777   4.674 -0.4559  0.1095 -0.2664
   62MOL   C22716209   1.060   2.521   4.657  0.6825 -0.1120 -0.6856
   62MOL   H22816210   1.407   2.796   4.660  1.9811 -1.9228  2.5510
   62MOL   H22916211   1.504   2.653   4.631  1.6029  2.9714 -1.0878
   62MOL   H23016212   1.321   2.506   4.596  1.4180  1.4318 -3.0620
   62MOL   H23116213   1.193   2.848   4.697  0.0371 -0.9666  1.4743
   62MOL   H23216214   1.047   2.786   4.760  3.4306 -0.1641  2.9338
   62MOL   H23316215   1.056   2.817   4.591 -0.3287  0.5374 -0.1501
   62MOL   H23416216   1.111   2.431   4.623  1.0445  0.3426 -1.3567
   62MOL   H23516217   0.981   2.543   4.585 -1.8309  0.0755  2.0056
   62MOL   C23616218   1.005   2.501   4.796 -0.2396  0.5894  0.2762
   62MOL   C23716219   0.907   2.389   4.791  0.1075 -0.6623 -0.0801
   62MOL   C23816220   0.944   2.264   4.776  0.0917 -0.1706  0.4510
   62MOL   C23916221   1.089   2.223   4.770  0.5396  0.0260  0.4784
   62MOL   C24016222   0.850   2.150   4.762  0.4068 -0.4716  0.0994
   62MOL   H24116223   0.952   2.590   4.829  0.7229  1.4632 -0.5245
   62MOL   H24216224   1.085   2.490   4.869  0.7757 -2.0595 -1.1632
   62MOL   H24316225   0.804   2.420   4.784 -0.5688 -2.6964  0.6401
   62MOL   H24416226   1.124   2.190   4.672  4.5745  0.6684  1.6087
   62MOL   H24516227   1.117   2.159   4.853 -1.5994 -0.1915  1.0579
   62MOL   H24616228   1.162   2.302   4.787 -1.3542  1.5121  1.8846
   62MOL   H24716229   0.887   2.096   4.675  0.4531  0.0768 -0.2168
   62MOL   H24816230   0.750   2.190   4.743 -0.6068 -2.4292  1.0270
   62MOL   C24916231   0.859   2.067   4.892  0.4028 -0.2090 -0.4474
   62MOL   C25016232   0.754   1.959   4.907  0.0941  0.4213  0.6900
   62MOL   C25116233   0.691   1.917   5.019  0.0545 -1.1323  0.3354
   62MOL   C25216234   0.718   1.985   5.151  0.1668 -0.3396  0.2402
   62MOL   C25316235   0.581   1.818   5.012  0.2868  0.1738 -0.0398
   62MOL   H25416236   0.848   2.133   4.977 -1.0236  1.4747 -1.9013
   62MOL   H25516237   0.951   2.009   4.899  0.9111  0.6200 -0.1580
   62MOL   H25616238   0.735   1.901   4.817 -0.2689 -0.1930  1.1576
   62MOL   H25716239   0.671   2.082   5.133 -1.3478 -1.1927 -0.4716
   62MOL   H25816240   0.822   2.018   5.152  0.5210 -1.4466  0.6202
   62MOL   H25916241   0.688   1.940   5.245  3.4115 -3.3722 -0.0997
   62MOL   H26016242   0.601   1.734   5.079 -0.7307 -1.2341 -1.4448
   62MOL   H26116243   0.552   1.768   4.919  0.1691 -1.1833  0.7080
   62MOL   H26216244   0.487   1.853   5.056 -0.4694 -0.5561 -1.0387
   63MOL     C116245   1.524   3.609   2.960 -0.1180 -0.0373  0.6309
   63MOL     C216246   1.641   3.577   2.872  0.5510  0.0742  0.3089
   63MOL     C316247   1.635   3.559   2.738  0.1658 -0.4381 -0.1161
   63MOL     C416248   1.506   3.556   2.658 -0.2012  0.6646 -0.7819
   63MOL     C516249   1.765   3.560   2.658  0.3552  0.2608 -0.4110
   63MOL     H616250   1.502   3.715   2.943 -1.0226 -0.4739 -1.0768
   63MOL     H716251   1.436   3.548   2.940  0.8656 -2.2848  2.9899
   63MOL     H816252   1.738   3.581   2.918  1.0678 -1.3309 -0.6049
   63MOL     H916253   1.425   3.610   2.708  0.0387  1.4468 -1.2272
   63MOL    H1016254   1.475   3.452   2.645  0.4610  0.0066  2.5277
   63MOL    H1116255   1.516   3.605   2.562  0.2847  1.6725 -0.2203
   63MOL    H1216256   1.749   3.475   2.592 -1.8721  0.3934 -0.0537
   63MOL    H1316257   1.840   3.541   2.735 -1.5256  0.3824  1.4724
   63MOL    H1416258   1.554   3.598   3.064  1.8246  0.7041  0.1717
   63MOL    C1516259   1.786   3.692   2.584  0.1284  0.5832  0.2927
   63MOL    C1616260   1.926   3.682   2.516 -0.6899 -0.6600  0.5194
   63MOL    C1716261   2.010   3.781   2.484  0.2342 -0.4663  0.4973
   63MOL    C1816262   1.977   3.926   2.515 -0.2394  0.3510 -0.1414
   63MOL    C1916263   2.148   3.751   2.418 -0.3461 -0.1180  0.8226
   63MOL    H2016264   1.774   3.773   2.657  1.4039 -0.4032  1.6211
   63MOL    H2116265   1.712   3.698   2.504  0.4123  0.9626  0.0548
   63MOL    H2216266   1.955   3.580   2.495  0.5021 -0.3415  0.5746
   63MOL    H2316267   1.979   3.980   2.420 -0.3581 -2.6777 -1.9298
   63MOL    H2416268   2.068   3.956   2.568  0.4146 -0.5305 -0.7372
   63MOL    H2516269   1.888   3.933   2.577  0.2489 -0.1798  0.6378
   63MOL    H2616270   2.156   3.645   2.392 -2.4236 -0.0833 -0.0948
   63MOL    H2716271   2.234   3.774   2.480  0.1853 -0.4160  0.2105
   63MOL    C2816272   2.183   3.821   2.283 -0.6497 -0.5992  0.8215
   63MOL    C2916273   2.313   3.787   2.212 -0.0912  0.2410  0.4801
   63MOL    C3016274   2.415   3.866   2.166 -0.5881 -0.0173 -0.1734
   63MOL    C3116275   2.420   4.013   2.186 -0.5592 -0.3966  0.1615
   63MOL    C3216276   2.535   3.797   2.099  0.1066 -0.1708  0.6425
   63MOL    H3316277   2.180   3.929   2.296  0.1063 -0.5089  0.3220
   63MOL    H3416278   2.100   3.803   2.215 -1.6329  2.1763  1.2315
   63MOL    H3516279   2.327   3.680   2.207  3.2711  0.6174  0.5709
   63MOL    H3616280   2.511   4.043   2.239 -0.1638  1.1330 -1.3737
   63MOL    H3716281   2.342   4.068   2.238 -0.3136  0.3516 -0.2657
   63MOL    H3816282   2.427   4.066   2.092  0.5707  0.6840  0.8354
   63MOL    H3916283   2.542   3.690   2.120  2.9851 -0.0365  0.5946
   63MOL    H4016284   2.615   3.839   2.160  3.1233 -0.3303 -3.0062
   63MOL    C4116285   2.555   3.834   1.951  0.8166 -0.1414 -0.2552
   63MOL    C4216286   2.693   3.811   1.890 -0.4940  0.0476  0.8989
   63MOL    C4316287   2.718   3.802   1.758  0.1834 -0.5956  0.6415
   63MOL    C4416288   2.620   3.829   1.642 -1.3120 -0.3251 -0.6286
   63MOL    C4516289   2.857   3.776   1.702  0.1807  0.2400  0.7269
   63MOL    H4616290   2.523   3.937   1.938 -1.3729 -0.8844 -1.1199
   63MOL    H4716291   2.485   3.772   1.896  0.4814 -1.2669  1.3875
   63MOL    H4816292   2.777   3.802   1.957  0.1497  2.6694  0.4734
   63MOL    H4916293   2.661   3.910   1.581  2.2988 -0.8065  1.0220
   63MOL    H5016294   2.523   3.864   1.676 -1.5973 -0.0050 -1.7542
   63MOL    H5116295   2.612   3.737   1.584 -1.9333 -1.5868  1.4304
   63MOL    H5216296   2.914   3.790   1.794 -1.1221 -2.1083  1.9265
   63MOL    H5316297   2.889   3.843   1.622 -1.1098 -1.4980 -1.2766
   63MOL    C5416298   2.877   3.627   1.659 -0.4807 -0.2325  0.0523
   63MOL    C5516299   3.018   3.581   1.677 -0.0001  0.4852  0.7489
   63MOL    C5616300   3.067   3.466   1.619 -0.2371  0.5295  0.1460
   63MOL    C5716301   2.970   3.362   1.559  0.0384  0.0882  0.0822
   63MOL    C5816302   3.207   3.421   1.658  0.1629 -0.3573  1.0320
   63MOL    H5916303   2.851   3.615   1.554 -0.4787  0.5135 -0.0352
   63MOL    H6016304   2.800   3.558   1.695 -1.6211  0.0242 -1.8304
   63MOL    H6116305   3.087   3.645   1.730 -0.2422  2.3960 -1.2185
   63MOL    H6216306   2.969   3.269   1.616 -0.4646 -0.4450 -0.7890
   63MOL    H6316307   2.983   3.336   1.454 -1.1469 -0.0988 -0.0281
   63MOL    H6416308   2.871   3.406   1.558  0.0341  0.2367  3.4761
   63MOL    H6516309   3.205   3.362   1.749  0.6720 -0.0969  1.2152
   63MOL    H6616310   3.273   3.504   1.682  0.2533  0.6951 -2.5155
   63MOL    C6716311   3.281   3.350   1.540 -0.1406 -0.7288  0.1176
   63MOL    C6816312   3.411   3.298   1.589 -0.5438  0.6869 -0.6769
   63MOL    C6916313   3.428   3.176   1.638 -0.5069  0.7304  0.5996
   63MOL    C7016314   3.319   3.070   1.653 -0.1475  0.7030 -0.3962
   63MOL    C7116315   3.563   3.122   1.693 -0.1298 -0.3107  0.0752
   63MOL    H7216316   3.306   3.426   1.466  0.4941  0.2897  1.3535
   63MOL    H7316317   3.218   3.279   1.487 -1.5033  0.7949 -0.3235
   63MOL    H7416318   3.491   3.369   1.576 -0.1764 -0.3928 -5.1830
   63MOL    H7516319   3.343   3.006   1.738 -0.7214 -0.1094 -0.8290
   63MOL    H7616320   3.317   3.011   1.561 -0.8547 -3.2807  2.0139
   63MOL    H7716321   3.217   3.109   1.661 -0.7647 -0.9832  0.3533
   63MOL    H7816322   3.641   3.157   1.624  1.2814 -1.8206  0.8647
   63MOL    H7916323   3.563   3.014   1.680 -2.7274 -0.4927  1.4255
   63MOL    C8016324   3.590   3.152   1.842 -0.0845  0.0582  0.1116
   63MOL    C8116325   3.743   3.178   1.859  0.4542 -0.2249 -0.2885
   63MOL    C8216326   3.802   3.289   1.922  0.3134 -0.2209  0.3327
   63MOL    C8316327   3.717   3.404   1.975  0.3455  0.3786  0.0999
   63MOL    C8416328   3.950   3.313   1.954  0.3037 -0.4208 -0.2418
   63MOL    H8516329   3.540   3.081   1.908  0.6432 -0.4535  0.1201
   63MOL    H8616330   3.525   3.236   1.867 -0.2963 -0.4865  1.4168
   63MOL    H8716331   3.801   3.092   1.828 -0.3631 -0.1435 -2.1219
   63MOL    H8816332   3.755   3.439   2.071 -1.0820 -0.7355  1.0936
   63MOL    H8916333   3.613   3.374   1.987 -0.5823  1.9188 -3.5018
   63MOL    H9016334   3.720   3.495   1.916  1.6385  1.3644  1.6267
   63MOL    H9116335   3.960   3.346   2.058 -0.6560 -1.5029  0.2059
   63MOL    H9216336   3.979   3.400   1.896 -1.2049  0.7757  0.7771
   63MOL    C9316337   4.046   3.197   1.918 -0.0511  0.4175  0.0459
   63MOL    C9416338   4.184   3.205   1.987  0.2839 -0.4107 -0.5346
   63MOL    C9516339   4.228   3.134   2.093  0.3911 -0.1235 -0.9219
   63MOL    C9616340   4.151   3.020   2.160 -0.6427  0.4301  0.5085
   63MOL    C9716341   4.355   3.162   2.168  0.1128  0.3021 -0.2379
   63MOL    H9816342   4.045   3.203   1.809 -1.1930  1.4908  0.1064
   63MOL    H9916343   4.000   3.099   1.927 -0.7223  0.5832 -1.4449
   63MOL   H10016344   4.253   3.277   1.948  1.9201 -1.2990  0.6708
   63MOL   H10116345   4.185   2.936   2.100 -0.1471  1.4414 -0.6341
   63MOL   H10216346   4.042   3.028   2.159 -0.5707  1.4190 -0.0057
   63MOL   H10316347   4.182   3.009   2.264  0.9604  2.1173  0.2274
   63MOL   H10416348   4.332   3.193   2.270  0.1921 -0.1462 -0.0831
   63MOL   H10516349   4.399   3.255   2.130 -1.8568  2.1987  1.9762
   63MOL   C10616350   4.474   3.056   2.172 -0.6706  0.4699  0.1293
   63MOL   C10716351   4.590   3.084   2.278 -0.4626 -0.0126 -0.0291
   63MOL   C10816352   4.715   3.133   2.263 -0.1793 -0.8089 -1.2176
   63MOL   C10916353   4.775   3.158   2.126  0.3950 -0.4266  0.0974
   63MOL   C11016354   4.808   3.169   2.379  0.4958 -0.0353  0.6231
   63MOL   H11116355   4.514   3.053   2.070 -0.0489  1.1185  0.3470
   63MOL   H11216356   4.428   2.958   2.184  0.3713  0.1528  1.6933
   63MOL   H11316357   4.561   3.071   2.381 -2.4261  1.4607 -0.3646
   63MOL   H11416358   4.735   3.257   2.102  2.5937  0.6642  0.7695
   63MOL   H11516359   4.743   3.085   2.052  1.8845 -1.2114  0.2168
   63MOL   H11616360   4.883   3.144   2.121  0.1175 -2.0396 -2.6373
   63MOL   H11716361   4.908   3.127   2.369  0.2752 -0.4191  0.0291
   63MOL   H11816362   4.767   3.126   2.471  1.7692  0.0780  1.2546
   63MOL   C11916363   4.818   3.319   2.391  0.5087  0.4439  0.0732
   63MOL   C12016364   4.952   3.360   2.455  0.2367 -0.5194  0.5435
   63MOL   C12116365   4.967   3.443   2.563 -0.3789 -0.6645 -0.1387
   63MOL   C12216366   4.856   3.515   2.641  0.3263  0.1697 -0.6168
   63MOL   C12316367   5.106   3.475   2.629 -0.4953 -0.0007  0.3351
   63MOL   H12416368   4.734   3.362   2.446 -0.5878 -1.1064 -0.3663
   63MOL   H12516369   4.806   3.368   2.295  0.3733  1.2580  0.4979
   63MOL   H12616370   5.037   3.315   2.406  0.7599  0.5628  0.4390
   63MOL   H12716371   4.840   3.472   2.739  0.8406  2.2441  0.3925
   63MOL   H12816372   4.767   3.512   2.578 -0.0269  0.7452 -0.1487
   63MOL   H12916373   4.885   3.619   2.653 -0.4408  0.4104 -0.8391
   63MOL   H13016374   5.124   3.438   2.730  0.1882  2.0064  0.9688
   63MOL   H13116375   5.105   3.582   2.646 -0.5301  0.3656 -1.8429
   63MOL   C13216376   5.224   3.429   2.544 -0.2013  0.6326 -0.5879
   63MOL   C13316377   5.249   3.276   2.546  0.5403 -1.1861 -0.0285
   63MOL   C13416378   5.371   3.215   2.537  0.2509 -0.1453  0.8648
   63MOL   C13516379   5.493   3.299   2.509 -0.1885  0.1531 -0.1974
   63MOL   C13616380   5.394   3.065   2.519 -0.1608 -0.4174  0.4024
   63MOL   H13716381   5.307   3.475   2.597  0.8824 -2.8840  0.9014
   63MOL   H13816382   5.223   3.457   2.439  3.7634  3.2109 -0.0304
   63MOL   H13916383   5.164   3.211   2.546  1.2175 -2.0837  0.1841
   63MOL   H14016384   5.580   3.234   2.525  2.0116  2.6099 -1.7364
   63MOL   H14116385   5.515   3.374   2.585 -2.8740  1.3578 -0.5558
   63MOL   H14216386   5.498   3.354   2.415  3.5275 -0.9226 -0.7441
   63MOL   H14316387   5.452   3.037   2.431  0.0577  1.0342  0.0850
   63MOL   H14416388   5.298   3.014   2.505 -0.8895  1.0534  0.0069
   63MOL   C14516389   5.458   3.003   2.644  0.6630  0.4252  0.2550
   63MOL   C14616390   5.560   2.887   2.620 -0.1306  0.1548 -0.0695
   63MOL   C14716391   5.524   2.760   2.604  0.4566  0.0525  0.3684
   63MOL   C14816392   5.384   2.706   2.611 -0.2974 -0.4773 -1.0372
   63MOL   C14916393   5.635   2.663   2.582  0.6064  0.4544 -0.1057
   63MOL   H15016394   5.381   2.966   2.711  1.1218  0.8125  0.9962
   63MOL   H15116395   5.515   3.083   2.692 -0.2310 -0.2838  2.5292
   63MOL   H15216396   5.663   2.910   2.597  0.0498 -1.7460 -1.2547
   63MOL   H15316397   5.362   2.632   2.533 -0.0494  0.9978 -2.5503
   63MOL   H15416398   5.318   2.792   2.602 -0.6521 -0.9145 -3.0903
   63MOL   H15516399   5.362   2.666   2.710  0.7269  0.7666 -0.3062
   63MOL   H15616400   5.723   2.713   2.543  0.9238 -1.6069 -2.1305
   63MOL   H15716401   5.602   2.596   2.502  2.0284 -2.2231  1.4717
   63MOL   C15816402   5.675   2.573   2.703 -0.7369  0.4350 -0.7794
   63MOL   C15916403   5.707   2.647   2.833 -0.2085 -0.0022 -0.2674
   63MOL   C16016404   5.823   2.652   2.902 -0.1570  0.1698  0.1507
   63MOL   C16116405   5.952   2.592   2.856  0.5980  0.0716  0.0267
   63MOL   C16216406   5.828   2.714   3.041  0.9320  0.5020  0.1539
   63MOL   H16316407   5.742   2.492   2.675 -0.7667 -0.5419  1.9017
   63MOL   H16416408   5.586   2.515   2.725 -0.9797  0.6045 -1.2998
   63MOL   H16516409   5.617   2.700   2.858  0.0794  1.6158 -2.4961
   63MOL   H16616410   6.033   2.650   2.900  0.1638 -0.8867  2.1367
   63MOL   H16716411   5.970   2.574   2.750  1.0396  1.4642 -0.1476
   63MOL   H16816412   5.967   2.502   2.915 -0.5262 -1.0601 -1.3720
   63MOL   H16916413   5.900   2.657   3.100 -0.7630  0.8431  2.6075
   63MOL   H17016414   5.742   2.692   3.104  2.0489  0.5411  1.7184
   63MOL   C17116415   5.850   2.864   3.050  0.3140  0.2259 -0.4652
   63MOL   C17216416   5.844   2.922   3.187 -0.0682 -0.8060 -0.5762
   63MOL   C17316417   5.742   2.985   3.254 -0.2841 -0.5306 -0.1212
   63MOL   C17416418   5.608   3.021   3.196  0.1800 -0.0528 -0.2261
   63MOL   C17516419   5.760   3.028   3.401 -0.2588  0.1449 -0.4994
   63MOL   H17616420   5.779   2.911   2.982 -0.4088  0.1555  0.2342
   63MOL   H17716421   5.952   2.871   3.014  0.3822  2.5853  0.0918
   63MOL   H17816422   5.931   2.893   3.244  0.7285  2.4949  0.0014
   63MOL   H17916423   5.583   3.123   3.227 -2.9303 -0.6031 -0.7731
   63MOL   H18016424   5.528   2.976   3.255  0.3717  0.7762  0.6801
   63MOL   H18116425   5.607   3.026   3.087  1.9401  1.7925 -0.1885
   63MOL   H18216426   5.726   3.128   3.427  2.4659  1.7771 -2.8852
   63MOL   H18316427   5.868   3.019   3.412 -0.2709  0.0709 -0.4429
   63MOL   C18416428   5.701   2.923   3.495 -0.1912 -0.0821 -0.7941
   63MOL   C18516429   5.717   2.942   3.647 -0.1133  0.0368  0.4007
   63MOL   C18616430   5.803   2.881   3.728 -0.5627 -0.3048 -0.6002
   63MOL   C18716431   5.918   2.779   3.683 -0.8212 -0.2879  0.1070
   63MOL   C18816432   5.801   2.919   3.880 -0.4523 -0.3812  0.0353
   63MOL   H18916433   5.733   2.820   3.481 -0.0703  0.0097 -1.2092
   63MOL   H19016434   5.594   2.907   3.482 -0.2092  0.4583 -1.3828
   63MOL   H19116435   5.648   3.020   3.677  0.3748  0.8279 -0.4920
   63MOL   H19216436   5.938   2.793   3.577 -1.5131  0.8687  0.1116
   63MOL   H19316437   5.899   2.672   3.692 -1.6317 -0.0273  1.6175
   63MOL   H19416438   5.996   2.809   3.752 -1.0661  2.3676 -0.6729
   63MOL   H19516439   5.803   2.826   3.938  1.6596 -0.0058  0.6012
   63MOL   H19616440   5.704   2.959   3.909 -0.9005 -0.4583 -1.3538
   63MOL   C19716441   5.912   3.012   3.915  0.0690 -0.4997  1.1911
   63MOL   C19816442   5.889   3.076   4.051  0.0244 -0.2340  0.6787
   63MOL   C19916443   5.948   3.190   4.094 -0.0662 -0.0964  0.1005
   63MOL   C20016444   6.050   3.267   4.007  0.2695  0.3586  0.5356
   63MOL   C20116445   5.902   3.259   4.220 -0.2481  0.0813 -0.5108
   63MOL   H20216446   5.931   3.083   3.835 -1.6132 -0.1863  1.0650
   63MOL   H20316447   6.004   2.953   3.920  0.0646 -0.7188 -1.1162
   63MOL   H20416448   5.805   3.039   4.108  0.3564 -1.9015  0.1235
   63MOL   H20516449   6.121   3.322   4.070 -0.6640  0.1162  1.8112
   63MOL   H20616450   6.001   3.350   3.958 -0.2735 -0.4579 -0.3128
   63MOL   H20716451   6.102   3.195   3.944 -0.3223 -0.7636  1.3202
   63MOL   H20816452   5.984   3.260   4.292  1.9433 -0.2641 -2.8880
   63MOL   H20916453   5.834   3.198   4.279  1.7487 -0.6876  1.0640
   63MOL   C21016454   5.830   3.388   4.194 -0.2891  0.2910 -0.3070
   63MOL   C21116455   5.774   3.443   4.324 -0.2974 -0.2540  0.2822
   63MOL   C21216456   5.646   3.477   4.344 -0.5509 -0.7102  0.1711
   63MOL   C21316457   5.529   3.446   4.244  0.4254 -0.3317  0.1780
   63MOL   C21416458   5.599   3.524   4.480  0.8890 -0.1090  0.1496
   63MOL   H21516459   5.758   3.370   4.115 -0.1980  0.0842 -0.3416
   63MOL   H21616460   5.906   3.457   4.157 -0.3719  0.9446  0.6920
   63MOL   H21716461   5.842   3.451   4.407 -0.4395  0.5841  0.3282
   63MOL   H21816462   5.565   3.437   4.142  0.2634 -1.4623  0.2197
   63MOL   H21916463   5.450   3.522   4.234 -0.4540 -1.4300 -1.4229
   63MOL   H22016464   5.482   3.353   4.274 -0.4569  0.3401  0.9166
   63MOL   H22116465   5.669   3.507   4.562 -2.9230  0.6811  3.6901
   63MOL   H22216466   5.506   3.478   4.511  0.7404  1.0328  1.4342
   63MOL   C22316467   5.572   3.672   4.484  0.1071 -0.3243  0.1531
   63MOL   C22416468   5.476   3.715   4.594  0.6891  0.5949  0.0630
   63MOL   C22516469   5.486   3.819   4.678 -0.1008  0.2204  0.4525
   63MOL   C22616470   5.609   3.907   4.686  0.0971 -0.8917  0.0928
   63MOL   C22716471   5.372   3.848   4.771 -0.4244 -0.2825 -0.3385
   63MOL   H22816472   5.518   3.707   4.397 -1.1208 -0.4194  0.8716
   63MOL   H22916473   5.668   3.725   4.486 -0.5314  0.8334  0.4083
   63MOL   H23016474   5.379   3.670   4.585  0.4179  0.2027  4.3123
   63MOL   H23116475   5.590   4.011   4.660 -2.3510 -0.9499  1.5176
   63MOL   H23216476   5.696   3.871   4.632  1.9918  0.7510  1.9166
   63MOL   H23316477   5.649   3.896   4.787 -0.5138  2.0362  0.7008
   63MOL   H23416478   5.286   3.785   4.750  0.0478 -1.4222  1.0984
   63MOL   H23516479   5.341   3.953   4.765 -1.3615 -0.5991 -1.0763
   63MOL   C23616480   5.414   3.823   4.920  0.0782 -0.0931  0.0790
   63MOL   C23716481   5.304   3.842   5.026 -0.4628 -0.0281  0.8187
   63MOL   C23816482   5.311   3.913   5.140  0.1260  0.3319  0.0342
   63MOL   C23916483   5.431   3.990   5.196 -0.3803  0.5809  0.3641
   63MOL   C24016484   5.191   3.917   5.233  0.2671  0.1963 -0.8184
   63MOL   H24116485   5.507   3.874   4.945  0.1157  0.3187 -0.8921
   63MOL   H24216486   5.443   3.719   4.923 -0.6497 -0.5050 -4.0094
   63MOL   H24316487   5.210   3.794   5.003 -1.0608  1.9133 -1.0008
   63MOL   H24416488   5.403   4.088   5.236 -1.3482  0.6938 -0.5442
   63MOL   H24516489   5.511   4.003   5.124  0.8247 -0.4395  1.5101
   63MOL   H24616490   5.474   3.936   5.280  0.0658  0.1761 -0.1237
   63MOL   H24716491   5.228   3.909   5.335 -1.7108 -0.6307 -0.1291
   63MOL   H24816492   5.127   3.828   5.225  0.6288 -0.0935 -0.4881
   63MOL   C24916493   5.112   4.048   5.212  0.0086  0.2859  0.3059
   63MOL   C25016494   4.993   4.051   5.302  0.1574 -0.9608 -0.3842
   63MOL   C25116495   4.988   4.109   5.422  0.7324  0.4496 -0.0271
   63MOL   C25216496   5.098   4.175   5.497 -0.6818 -0.3184 -0.7632
   63MOL   C25316497   4.860   4.097   5.500 -0.4182  0.2390 -0.1600
   63MOL   H25416498   5.060   4.059   5.117  3.4730 -0.2755 -1.7185
   63MOL   H25516499   5.175   4.136   5.222 -1.2892  1.0748  1.7762
   63MOL   H25616500   4.903   4.005   5.265 -1.3060 -0.4661  2.4093
   63MOL   H25716501   5.149   4.104   5.561 -0.7112 -0.7614 -1.2317
   63MOL   H25816502   5.061   4.250   5.568  0.9915 -0.8216  0.6877
   63MOL   H25916503   5.174   4.218   5.432 -0.0941 -0.8848 -0.4487
   63MOL   H26016504   4.869   4.032   5.587 -0.9794  0.5789  0.1633
   63MOL   H26116505   4.781   4.062   5.434  0.1913 -1.9919  0.2620
   63MOL   H26216506   4.815   4.192   5.531  2.6988  1.7782 -0.2108
   64MOL     C116507   1.004   7.444   1.704 -0.2920 -0.2889 -0.3157
   64MOL     C216508   1.085   7.515   1.810 -0.4393 -0.0746  0.5513
   64MOL     C316509   1.034   7.598   1.900 -0.8110 -0.3843  0.8477
   64MOL     C416510   0.888   7.635   1.924 -0.4597 -0.4819  0.3208
   64MOL     C516511   1.128   7.684   1.975 -0.0738  0.2351 -0.0525
   64MOL     H616512   0.897   7.465   1.699 -0.2070  0.5026  1.1375
   64MOL     H716513   1.053   7.470   1.610  1.4069 -0.8772  0.3857
   64MOL     H816514   1.192   7.506   1.804 -0.3706  0.4650  0.8730
   64MOL     H916515   0.870   7.734   1.882  2.0003 -0.4852 -0.7918
   64MOL    H1016516   0.856   7.638   2.028 -1.0415 -1.4723  0.1768
   64MOL    H1116517   0.825   7.555   1.884 -0.3820  0.0827 -0.9696
   64MOL    H1216518   1.090   7.786   1.975  0.6667  0.5154  0.7272
   64MOL    H1316519   1.226   7.684   1.928 -0.9658  0.3446 -1.9508
   64MOL    H1416520   1.011   7.336   1.712  0.6163 -0.3678 -1.8572
   64MOL    C1516521   1.129   7.642   2.121 -0.2330 -0.3029  0.2471
   64MOL    C1616522   1.190   7.752   2.203  0.2990 -0.2565  1.1556
   64MOL    C1716523   1.321   7.773   2.229  0.5194 -0.5880  0.5833
   64MOL    C1816524   1.427   7.679   2.170 -0.6148  0.2782  0.9810
   64MOL    C1916525   1.376   0.011   2.303 -0.0798  0.1492  0.0177
   64MOL    H2016526   1.183   7.549   2.140  3.1513  1.6675  0.5381
   64MOL    H2116527   1.028   7.634   2.163  0.2962  2.2743  2.1140
   64MOL    H2216528   1.115   7.820   2.240 -0.1157  0.9380 -1.7334
   64MOL    H2316529   1.504   7.746   2.132 -1.7185  0.7942 -0.3949
   64MOL    H2416530   1.393   7.622   2.083 -0.6291  2.4492 -0.4625
   64MOL    H2516531   1.466   7.602   2.237  2.3607 -0.7581 -1.8320
   64MOL    H2616532   1.295   0.076   2.336  1.2158  1.4843  0.6076
   64MOL    H2716533   1.445   0.070   2.242 -0.4304 -0.2757 -0.8096
   64MOL    C2816534   1.450   7.844   2.423 -0.2509  0.0132 -0.0362
   64MOL    C2916535   1.535   0.072   2.478 -0.2556 -0.7480 -0.4745
   64MOL    C3016536   1.532   0.126   2.602  0.3898 -0.1681  0.1034
   64MOL    C3116537   1.442   0.075   2.713 -0.0034  1.1080 -0.6576
   64MOL    C3216538   1.626   0.238   2.644 -0.0242  0.1187  0.3439
   64MOL    H3316539   1.517   7.767   2.383  0.5104  1.3562 -1.3672
   64MOL    H3416540   1.388   7.785   2.491  0.1088 -0.4403 -0.0915
   64MOL    H3516541   1.612   0.105   2.409 -0.8541  2.6054  0.3829
   64MOL    H3616542   1.393   0.154   2.770 -0.8726 -0.2640  0.5272
   64MOL    H3716543   1.503   0.019   2.784 -1.8494 -0.8924 -0.6026
   64MOL    H3816544   1.376   7.872   2.700 -0.4465  1.2374  0.6596
   64MOL    H3916545   1.698   0.249   2.563 -1.3441  0.5681 -0.7878
   64MOL    H4016546   1.679   0.194   2.729  0.7564 -0.6594 -0.5330
   64MOL    C4116547   1.545   0.371   2.650  0.4914 -0.4110  0.5471
   64MOL    C4216548   1.497   0.422   2.515  0.2593  0.3977 -0.1041
   64MOL    C4316549   1.376   0.422   2.454  0.8106 -0.2251  0.0438
   64MOL    C4416550   1.248   0.360   2.515  0.1636  0.4616 -0.2141
   64MOL    C4516551   1.353   0.459   2.305  0.1091 -0.0955  0.2958
   64MOL    H4616552   1.609   0.444   2.700  0.1043 -0.5078  1.1877
   64MOL    H4716553   1.456   0.365   2.713  0.4595 -1.7768  0.3850
   64MOL    H4816554   1.567   0.466   2.446  0.9593  1.0445  1.0051
   64MOL    H4916555   1.201   0.292   2.444  0.0217  0.1724  0.1572
   64MOL    H5016556   1.184   0.445   2.537  1.3014  1.4720 -0.7501
   64MOL    H5116557   1.276   0.305   2.604 -0.6012 -1.9528 -1.4120
   64MOL    H5216558   1.246   0.475   2.293  0.2788  1.5843  0.8649
   64MOL    H5316559   1.375   0.382   2.231 -0.9043 -0.2770  0.1767
   64MOL    C5416560   1.420   0.583   2.253  0.2143  0.6768  0.8987
   64MOL    C5516561   1.412   0.706   2.337 -0.2586  0.0708  0.0841
   64MOL    C5616562   1.398   0.835   2.301 -0.3721  0.5935 -0.8893
   64MOL    C5716563   1.389   0.876   2.158 -0.3106  0.3172 -0.3443
   64MOL    C5816564   1.419   0.941   2.405  0.2392  0.1243  0.5981
   64MOL    H5916565   1.390   0.612   2.152 -0.7693  0.4367  1.1235
   64MOL    H6016566   1.526   0.571   2.227 -0.8867  0.1662 -3.7867
   64MOL    H6116567   1.426   0.693   2.443  1.5450  0.9045 -0.0350
   64MOL    H6216568   1.331   0.968   2.165  1.2052  1.1047  2.7389
   64MOL    H6316569   1.342   0.800   2.096  1.7713 -1.2341 -0.0858
   64MOL    H6416570   1.484   0.907   2.114 -1.9303  0.6111 -3.7478
   64MOL    H6516571   1.419   0.910   2.510 -1.7652 -3.3285 -0.3309
   64MOL    H6616572   1.340   1.013   2.387  2.6587  2.2612 -2.0716
   64MOL    C6716573   1.550   1.027   2.391 -0.4859  0.0973  0.0445
   64MOL    C6816574   1.552   1.141   2.492  0.5075  0.6677 -0.3122
   64MOL    C6916575   1.628   1.151   2.605  0.2251  1.0240 -0.1166
   64MOL    C7016576   1.705   1.028   2.654 -0.0998  0.7599 -0.4274
   64MOL    C7116577   1.617   1.265   2.705 -0.2695  0.1099 -0.0483
   64MOL    H7216578   1.553   1.066   2.289 -0.0204  1.9744  0.7489
   64MOL    H7316579   1.631   0.955   2.390  0.7760  1.4646  1.1850
   64MOL    H7416580   1.492   1.229   2.474 -1.4258 -0.7305 -0.7430
   64MOL    H7516581   1.705   0.949   2.579  1.4208 -0.7225  1.0952
   64MOL    H7616582   1.661   0.989   2.746 -1.0617  0.9783 -0.7884
   64MOL    H7716583   1.804   1.052   2.694 -0.7782  1.4600  0.8532
   64MOL    H7816584   1.589   1.348   2.639  2.4662  1.3303  0.2746
   64MOL    H7916585   1.715   1.292   2.744 -0.0645  0.4492 -0.7892
   64MOL    C8016586   1.517   1.234   2.819  0.1970  0.8244  0.2337
   64MOL    C8116587   1.480   1.352   2.898  0.3746  0.5556 -0.0790
   64MOL    C8216588   1.496   1.359   3.033  0.4698 -0.1034 -0.2406
   64MOL    C8316589   1.549   1.245   3.120 -0.6967  0.4465  0.2517
   64MOL    C8416590   1.470   1.491   3.106 -0.0287  0.7763  0.1697
   64MOL    H8516591   1.565   1.167   2.890 -0.7830  0.3531  0.4603
   64MOL    H8616592   1.427   1.186   2.779 -0.4390  0.8833  1.5722
   64MOL    H8716593   1.448   1.442   2.847  1.0864 -0.2437 -1.9926
   64MOL    H8816594   1.657   1.243   3.125 -0.6179  2.7538  0.2128
   64MOL    H8916595   1.513   1.146   3.092 -0.0153  0.5057 -0.8637
   64MOL    H9016596   1.506   1.261   3.219 -0.3993  0.6131  0.3534
   64MOL    H9116597   1.395   1.481   3.185  0.1586  0.6157  0.3296
   64MOL    H9216598   1.440   1.574   3.043 -0.5821  0.3520 -0.1289
   64MOL    C9316599   1.601   1.547   3.159  0.4239  0.5006 -0.3211
   64MOL    C9416600   1.578   1.682   3.217 -0.8442  0.2267  0.6261
   64MOL    C9516601   1.592   1.714   3.349  0.2013  0.0112 -0.4324
   64MOL    C9616602   1.601   1.609   3.456  0.2454  0.3715 -0.7561
   64MOL    C9716603   1.579   1.860   3.403 -0.0073 -0.0085  0.1550
   64MOL    H9816604   1.668   1.565   3.076 -1.3529 -0.5101 -2.0403
   64MOL    H9916605   1.642   1.466   3.220  0.3859 -0.0952 -1.0745
   64MOL   H10016606   1.557   1.764   3.151 -2.5608  0.1089  1.0123
   64MOL   H10116607   1.524   1.626   3.531 -0.5562  0.6385 -1.6219
   64MOL   H10216608   1.696   1.607   3.510 -0.6516 -1.4579  0.8118
   64MOL   H10316609   1.586   1.509   3.416  0.9156  1.1122 -2.9255
   64MOL   H10416610   1.603   1.844   3.508 -1.1937  1.7515  0.7046
   64MOL   H10516611   1.482   1.907   3.417 -1.6662 -3.3412  0.5359
   64MOL   C10616612   1.667   1.964   3.337 -0.7591  0.1789  0.1257
   64MOL   C10716613   1.618   2.008   3.204  1.0910  0.9192  0.2874
   64MOL   C10816614   1.695   2.007   3.094 -0.6646  0.2082  0.5838
   64MOL   C10916615   1.840   1.960   3.081 -0.8784 -0.6645 -0.0677
   64MOL   C11016616   1.641   2.059   2.963 -0.3380 -0.0129 -0.0541
   64MOL   H11116617   1.760   1.908   3.335 -0.4405  0.7083 -0.2891
   64MOL   H11216618   1.679   2.048   3.405  0.6377 -0.8174  1.1137
   64MOL   H11316619   1.518   2.048   3.192 -0.1660 -1.9939  0.5634
   64MOL   H11416620   1.909   2.025   3.134  0.5396 -1.4517 -0.9297
   64MOL   H11516621   1.873   1.946   2.978 -2.8957  0.4419 -0.8999
   64MOL   H11616622   1.862   1.863   3.125  1.2644 -0.0632  0.2311
   64MOL   H11716623   1.715   2.116   2.907  0.6559 -2.3791 -1.2528
   64MOL   H11816624   1.557   2.128   2.960 -0.2464  0.1663  1.3539
   64MOL   C11916625   1.602   1.942   2.869 -0.7220 -0.2942 -0.0321
   64MOL   C12016626   1.522   2.001   2.763  0.4096 -0.1729  0.2726
   64MOL   C12116627   1.406   1.953   2.721 -0.0303 -0.2329 -0.0183
   64MOL   C12216628   1.323   1.844   2.781 -0.0286  1.3270 -0.0017
   64MOL   C12316629   1.333   2.031   2.610 -0.2505  0.2641 -0.3984
   64MOL   H12416630   1.558   1.862   2.927 -1.1227 -0.9573 -1.2313
   64MOL   H12516631   1.685   1.905   2.808  0.1441 -1.1263  1.6265
   64MOL   H12616632   1.567   2.084   2.711 -1.2096  0.5751  0.0340
   64MOL   H12716633   1.223   1.875   2.811 -0.8388  0.5373 -1.8149
   64MOL   H12816634   1.373   1.807   2.871  0.6900 -3.0175 -2.0677
   64MOL   H12916635   1.314   1.758   2.714  1.7180  0.1198  1.2505
   64MOL   H13016636   1.412   2.100   2.579 -0.1306  0.5229  0.4863
   64MOL   H13116637   1.259   2.097   2.655 -1.0626  0.1914 -1.6146
   64MOL   C13216638   1.293   1.961   2.480 -0.2732  0.2283 -0.0163
   64MOL   C13316639   1.239   2.055   2.378 -0.1299 -0.0495 -0.8046
   64MOL   C13416640   1.247   2.054   2.244 -0.5621  0.6810 -0.0622
   64MOL   C13516641   1.314   1.947   2.162  0.6384 -0.6253  0.2440
   64MOL   C13616642   1.195   2.171   2.151 -0.2904  0.5170 -0.4587
   64MOL   H13716643   1.220   1.884   2.507  0.3191 -0.5465 -0.6254
   64MOL   H13816644   1.383   1.915   2.440 -0.6558  1.6584 -2.5717
   64MOL   H13916645   1.185   2.140   2.417  0.1889  0.5737 -1.7201
   64MOL   H14016646   1.418   1.978   2.153  0.3667 -0.1487 -1.4125
   64MOL   H14116647   1.262   1.949   2.066  1.3653  2.1617 -0.1354
   64MOL   H14216648   1.323   1.846   2.202 -0.5564 -1.2374 -0.9701
   64MOL   H14316649   1.277   2.209   2.091  1.7748 -1.0470  1.2834
   64MOL   H14416650   1.175   2.242   2.231 -1.4247  0.5010 -0.7134
   64MOL   C14516651   1.076   2.133   2.067  0.1432  0.0529  0.1372
   64MOL   C14616652   1.033   2.263   1.999  0.3125  0.0507  0.7996
   64MOL   C14716653   1.042   2.300   1.867 -0.0496 -0.2340  0.3193
   64MOL   C14816654   1.101   2.215   1.763 -0.7752  0.2306 -0.4972
   64MOL   C14916655   1.009   2.446   1.824 -0.5220  0.2601 -0.3731
   64MOL   H15016656   0.984   2.098   2.113 -0.1742  0.5528 -0.1172
   64MOL   H15116657   1.092   2.062   1.986 -2.7504 -1.6190  0.9654
   64MOL   H15216658   0.996   2.335   2.071  2.2009  0.8663  1.0035
   64MOL   H15316659   1.060   2.232   1.663  0.4861 -1.2448 -1.2786
   64MOL   H15416660   1.082   2.109   1.784  0.1557 -0.0899 -1.2423
   64MOL   H15516661   1.208   2.231   1.751 -0.7185 -0.6645 -1.3335
   64MOL   H15616662   0.951   2.501   1.899  2.2738  2.6658  0.1040
   64MOL   H15716663   0.940   2.430   1.741 -0.4664  1.7184 -0.7177
   64MOL   C15816664   1.137   2.521   1.773  0.0694 -1.1451  0.1090
   64MOL   C15916665   1.111   2.664   1.764  0.3369 -0.0577 -0.1197
   64MOL   C16016666   1.153   2.759   1.846  0.2958  0.7436 -0.2378
   64MOL   C16116667   1.230   2.729   1.968  0.2654 -0.0619 -0.3426
   64MOL   C16216668   1.130   2.903   1.808 -0.4304  0.0500  0.1221
   64MOL   H16316669   1.176   2.471   1.684  1.5313 -1.9900  1.1821
   64MOL   H16416670   1.215   2.497   1.846  0.1729 -2.7834 -0.5088
   64MOL   H16516671   1.049   2.695   1.681 -2.8461  1.3254  2.6250
   64MOL   H16616672   1.253   2.628   2.003  1.5529 -0.4532 -2.2705
   64MOL   H16716673   1.177   2.776   2.051  0.2450 -0.4090 -0.1599
   64MOL   H16816674   1.326   2.781   1.958  0.5291 -0.2903  0.9196
   64MOL   H16916675   1.107   2.964   1.896  0.4607  0.2570  0.2074
   64MOL   H17016676   1.059   2.908   1.726 -0.2662 -1.2374 -0.1109
   64MOL   C17116677   1.256   2.966   1.750  0.1743 -0.2158 -0.4196
   64MOL   C17216678   1.278   2.926   1.604 -0.4357 -0.3226 -0.2706
   64MOL   C17316679   1.375   2.858   1.556 -0.9951  0.9251 -0.3518
   64MOL   C17416680   1.490   2.792   1.633  0.0146 -0.1591 -0.3789
   64MOL   C17516681   1.379   2.836   1.405 -0.0718  0.3543  0.1483
   64MOL   H17616682   1.344   2.936   1.808  0.9096 -1.8327 -2.2912
   64MOL   H17716683   1.243   3.074   1.749  1.0300 -0.1082 -2.1594
   64MOL   H17816684   1.206   2.970   1.537 -1.5964 -1.6897  0.0568
   64MOL   H17916685   1.471   2.686   1.618 -1.4238  0.2142 -1.3274
   64MOL   H18016686   1.483   2.807   1.741 -1.1494 -1.5058 -0.2632
   64MOL   H18116687   1.589   2.818   1.594  1.1830 -2.0294  1.2253
   64MOL   H18216688   1.283   2.862   1.360  0.8803  0.1310 -2.0832
   64MOL   H18316689   1.377   2.728   1.388  0.3103  0.5109 -0.9088
   64MOL   C18416690   1.480   2.928   1.342 -0.4902  0.0063  0.4257
   64MOL   C18516691   1.479   2.913   1.190 -0.3525  0.3250 -0.2595
   64MOL   C18616692   1.487   3.011   1.091  0.1625  0.4980  0.9657
   64MOL   C18716693   1.503   3.157   1.114 -0.1341  0.2703 -0.2723
   64MOL   C18816694   1.478   2.966   0.946  0.7273 -0.5148  0.3235
   64MOL   H18916695   1.580   2.900   1.377 -0.7556 -0.9273  0.4582
   64MOL   H19016696   1.474   3.028   1.384  0.1098  1.1126 -2.0188
   64MOL   H19116697   1.460   2.812   1.158  2.4080 -0.1382 -0.5736
   64MOL   H19216698   1.596   3.202   1.079  0.0321  0.4962  0.4426
   64MOL   H19316699   1.490   3.186   1.219 -1.6718  1.0193 -0.6611
   64MOL   H19416700   1.421   3.220   1.080 -0.8263  0.2861  1.3764
   64MOL   H19516701   1.395   3.027   0.911  0.1069 -1.4861  0.0815
   64MOL   H19616702   1.449   2.862   0.930  1.1324 -0.4510 -0.8534
   64MOL   C19716703   1.607   3.003   0.864 -0.4659 -0.1290 -0.8231
   64MOL   C19816704   1.613   2.954   0.721  0.2070 -0.8409  0.2312
   64MOL   C19916705   1.557   3.020   0.615 -0.4675  0.3580 -0.0241
   64MOL   C20016706   1.473   3.145   0.618  0.6965  0.1348 -0.4288
   64MOL   C20116707   1.586   2.965   0.477 -0.4070 -0.0130 -0.6873
   64MOL   H20216708   1.693   2.966   0.920  1.2849  0.3287 -3.1531
   64MOL   H20316709   1.628   3.110   0.872  3.2657 -1.0502  4.8123
   64MOL   H20416710   1.679   2.870   0.704  2.0183  0.9141 -1.7364
   64MOL   H20516711   1.431   3.170   0.716  0.3811 -0.1892 -0.4835
   64MOL   H20616712   1.383   3.141   0.557  0.1808  1.2698  0.2426
   64MOL   H20716713   1.532   3.232   0.588  1.4536  0.3432  1.5750
   64MOL   H20816714   1.658   2.883   0.485 -2.6824 -1.8700  2.0614
   64MOL   H20916715   1.625   3.033   0.402  0.9007  1.4875  1.2906
   64MOL   C21016716   1.452   2.901   0.425  0.3684  0.2157 -0.2968
   64MOL   C21116717   1.479   2.810   0.306 -0.0036 -0.6449  0.3109
   64MOL   C21216718   1.407   2.702   0.277  1.0391  0.7378 -0.7990
   64MOL   C21316719   1.300   2.636   0.367 -0.0088  0.4729 -0.3369
   64MOL   C21416720   1.451   2.624   0.157 -0.1789  0.1451  0.5758
   64MOL   H21516721   1.391   2.980   0.381 -0.8183 -2.3374 -3.3959
   64MOL   H21616722   1.400   2.851   0.507 -0.5254  2.2156  0.4141
   64MOL   H21716723   1.543   2.852   0.230 -3.4969 -1.5314 -3.3178
   64MOL   H21816724   1.212   2.611   0.307  2.9647 -1.2594 -4.1969
   64MOL   H21916725   1.270   2.690   0.456  1.7175  0.3389  0.3312
   64MOL   H22016726   1.349   2.550   0.411 -0.2675  0.1337 -0.7068
   64MOL   H22116727   1.559   2.619   0.138  0.0113  4.3747  0.0507
   64MOL   H22216728   1.409   2.683   0.075 -0.2712 -0.0146  0.5091
   64MOL   C22316729   1.402   2.478   0.148 -0.5628  0.0730  0.2003
   64MOL   C22416730   1.425   2.415   0.012  0.5528  0.0050 -0.1364
   64MOL   C22516731   1.515   2.324   7.860  0.5919  0.5917 -0.6188
   64MOL   C22616732   1.596   2.263   0.083  0.2732  0.0742 -0.7053
   64MOL   C22716733   1.544   2.279   7.719 -0.3450  0.0957  0.5729
   64MOL   H22816734   1.295   2.466   0.164 -1.1241  0.0071 -3.1764
   64MOL   H22916735   1.448   2.427   0.233 -2.2460  2.5498  2.6879
   64MOL   H23016736   1.370   2.457   7.811 -0.0729 -0.4812  0.0275
   64MOL   H23116737   1.673   2.195   0.045  1.9524  0.9148  1.1491
   64MOL   H23216738   1.530   2.213   0.154 -0.7088 -0.5659 -2.0403
   64MOL   H23316739   1.645   2.336   0.147  1.6871 -2.1148  0.7989
   64MOL   H23416740   1.543   2.170   7.714  1.9301  0.0958 -0.7206
   64MOL   H23516741   1.649   2.307   7.707 -0.5410  0.4827 -0.2720
   64MOL   C23616742   1.459   2.345   7.602  0.4561  0.2634  0.2108
   64MOL   C23716743   1.501   2.318   7.472 -0.0097 -0.1796 -0.3755
   64MOL   C23816744   1.539   2.401   7.377  0.4767  0.2847  0.3030
   64MOL   C23916745   1.547   2.551   7.378 -0.0146  0.7042  0.3325
   64MOL   C24016746   1.592   2.339   7.249 -0.1152 -0.4353 -0.2214
   64MOL   H24116747   1.463   2.453   7.621  0.6350  0.2309  0.3578
   64MOL   H24216748   1.350   2.333   7.604  0.2637  1.8243  0.2989
   64MOL   H24316749   1.502   2.211   7.452  0.1471 -0.6464  2.0447
   64MOL   H24416750   1.505   2.603   7.464 -1.0197 -1.1279  0.9936
   64MOL   H24516751   1.471   2.581   7.306  1.2297  1.7829 -0.5510
   64MOL   H24616752   1.647   2.589   7.357 -0.3424  1.7883  0.6999
   64MOL   H24716753   1.598   2.231   7.258  1.9750 -0.5049 -2.1648
   64MOL   H24816754   1.689   2.384   7.227 -0.9727  1.4757 -0.2491
   64MOL   C24916755   1.505   2.377   7.125 -0.2186 -0.0542  0.6525
   64MOL   C25016756   1.359   2.342   7.154 -0.6540  0.5956 -0.4395
   64MOL   C25116757   1.247   2.383   7.089  0.1703  0.3182  0.1074
   64MOL   C25216758   1.251   2.477   6.974 -0.1073 -0.1351 -0.3506
   64MOL   C25316759   1.113   2.341   7.138 -0.0087 -0.0888 -0.5227
   64MOL   H25416760   1.550   2.336   7.035  1.6254  4.3212 -0.5167
   64MOL   H25516761   1.512   2.485   7.114 -3.2292 -0.1856 -3.4784
   64MOL   H25616762   1.356   2.267   7.232  1.1110  0.3915 -0.5542
   64MOL   H25716763   1.249   2.584   6.999 -3.9495 -0.2368  0.0595
   64MOL   H25816764   1.164   2.460   6.912 -0.0186 -1.6808 -0.0575
   64MOL   H25916765   1.331   2.447   6.907  1.1808  0.9031  0.6895
   64MOL   H26016766   1.059   2.292   7.057  1.3115 -2.0864 -0.2004
   64MOL   H26116767   1.062   2.437   7.153  0.2935 -0.0847  0.5010
   64MOL   H26216768   1.120   2.285   7.231 -0.1917 -0.8215 -0.9447
   65MOL     C116769   1.030   0.511   1.456 -0.0827  0.7005  0.7422
   65MOL     C216770   1.065   0.364   1.420  0.7015  0.3454  0.2292
   65MOL     C316771   1.169   0.315   1.353 -0.6304  0.1938 -0.0428
   65MOL     C416772   1.274   0.402   1.284 -0.2106 -0.6694  0.0553
   65MOL     C516773   1.184   0.159   1.331 -0.2719  0.3153 -0.1692
   65MOL     H616774   1.032   0.510   1.565  0.1118 -0.6106  0.7387
   65MOL     H716775   1.098   0.587   1.420 -0.4474  1.9806  2.7037
   65MOL     H816776   0.988   0.290   1.441  0.4424 -0.1198 -2.1871
   65MOL     H916777   1.370   0.395   1.336 -0.4567  0.5937  0.6964
   65MOL    H1016778   1.247   0.507   1.287  0.6328 -0.4329 -0.4336
   65MOL    H1116779   1.274   0.365   1.182 -0.6706 -4.0680  1.2042
   65MOL    H1216780   1.168   0.157   1.223  1.1157  2.4448 -0.4354
   65MOL    H1316781   1.103   0.097   1.369  0.0269  1.0207  1.6835
   65MOL    H1416782   0.931   0.524   1.411 -0.2794 -0.0744  0.9367
   65MOL    C1516783   1.319   0.099   1.352 -0.6681 -0.4947 -0.3324
   65MOL    C1616784   1.369   0.105   1.493 -0.5459  0.6397 -0.5456
   65MOL    C1716785   1.395   0.001   1.576 -0.8252 -0.7027  0.1768
   65MOL    C1816786   1.384   7.739   1.541  0.2145  0.0662 -0.2237
   65MOL    C1916787   1.446   0.039   1.716 -0.4840  0.0756  0.4811
   65MOL    H2016788   1.383   0.172   1.302  0.4687 -1.9204 -0.9878
   65MOL    H2116789   1.343   0.008   1.298  0.5268 -0.9355  0.9150
   65MOL    H2216790   1.390   0.206   1.525  1.2868 -0.1837  0.9852
   65MOL    H2316791   1.475   7.681   1.556  0.5170  0.3869 -0.7673
   65MOL    H2416792   1.339   7.719   1.444 -1.9270 -0.3976  0.8532
   65MOL    H2516793   1.311   7.691   1.606  1.7603 -2.0688 -0.0052
   65MOL    H2616794   1.377   7.875   1.785 -0.7650 -0.6866 -0.3097
   65MOL    H2716795   1.436   0.146   1.736 -1.2587 -0.1156  1.1144
   65MOL    C2816796   1.593   7.880   1.748  0.6171 -0.4487 -0.6659
   65MOL    C2916797   1.640   0.061   1.881 -0.2433  0.1735 -1.0337
   65MOL    C3016798   1.736   0.156   1.900 -0.6303 -0.1460  0.0973
   65MOL    C3116799   1.806   0.227   1.786  0.2067 -0.4999  0.1176
   65MOL    C3216800   1.761   0.206   2.039  0.4419  0.1058 -0.4812
   65MOL    H3316801   1.668   0.016   1.671 -0.3113  0.0953 -1.4384
   65MOL    H3416802   1.599   7.772   1.758 -3.4995 -0.5341  1.9859
   65MOL    H3516803   1.590   0.008   1.960 -0.9620  2.3054 -0.0407
   65MOL    H3616804   1.767   0.329   1.787  1.3082 -0.0675  1.9909
   65MOL    H3716805   1.787   0.195   1.683  0.2931  2.3618 -0.8501
   65MOL    H3816806   1.914   0.229   1.796  0.2164 -0.2364 -0.0192
   65MOL    H3916807   1.705   0.144   2.109  1.6669 -1.7253 -1.0737
   65MOL    H4016808   1.721   0.307   2.043 -0.5637 -0.3240  0.5816
   65MOL    C4116809   1.912   0.220   2.084  0.5750  0.1104  0.1976
   65MOL    C4216810   1.919   0.239   2.234  0.0063 -0.2924  0.4413
   65MOL    C4316811   2.011   0.307   2.303 -0.3659 -0.2111  0.3378
   65MOL    C4416812   2.136   0.378   2.250 -0.0224  0.6863 -0.1624
   65MOL    C4516813   1.994   0.324   2.457  0.3917  0.1440 -0.8564
   65MOL    H4616814   1.967   0.299   2.033  1.1177  0.7126  1.6992
   65MOL    H4716815   1.965   0.125   2.072 -1.5858 -0.8195 -2.5629
   65MOL    H4816816   1.837   0.183   2.277 -0.5396 -2.3860 -3.1212
   65MOL    H4916817   2.113   0.471   2.198  0.7806  0.9890  0.0141
   65MOL    H5016818   2.172   0.313   2.170 -3.3036 -0.8167 -0.5187
   65MOL    H5116819   2.222   0.379   2.317  1.3091 -0.2484 -1.8162
   65MOL    H5216820   1.900   0.277   2.486  0.5989 -0.2948 -0.8938
   65MOL    H5316821   1.986   0.431   2.473  0.9704  0.1478 -0.6051
   65MOL    C5416822   2.117   0.270   2.534  0.4122 -0.4896 -0.1097
   65MOL    C5516823   2.102   0.287   2.681 -0.3576 -0.2212  0.5797
   65MOL    C5616824   2.063   0.198   2.772 -0.9483  0.0231  0.4428
   65MOL    C5716825   2.004   0.064   2.725  0.1734 -0.0719  0.0133
   65MOL    C5816826   2.080   0.233   2.920 -0.3667 -0.6038 -0.2467
   65MOL    H5916827   2.205   0.324   2.501 -0.8927  0.4089 -2.1930
   65MOL    H6016828   2.128   0.165   2.508  0.8808 -0.7128  0.9630
   65MOL    H6116829   2.135   0.386   2.706  0.9773 -0.5789  0.2727
   65MOL    H6216830   1.896   0.075   2.737 -0.0036 -2.9196  1.3545
   65MOL    H6316831   2.043   7.865   2.784  0.2897  0.3087  0.4662
   65MOL    H6416832   2.023   0.025   2.625  0.7916 -1.1440  0.5477
   65MOL    H6516833   1.988   0.267   2.967  1.0228 -1.8457  3.5070
   65MOL    H6616834   2.159   0.307   2.933  1.4883 -2.7062  0.7756
   65MOL    C6716835   2.124   0.104   3.003 -0.1426 -0.0996 -0.5023
   65MOL    C6816836   2.172   0.144   3.138 -0.5745 -0.2268 -0.2432
   65MOL    C6916837   2.299   0.132   3.179 -0.1347 -0.0503 -0.5684
   65MOL    C7016838   2.409   0.064   3.102 -0.6209  0.1043  0.5735
   65MOL    C7116839   2.344   0.189   3.312 -0.6086 -0.0874  0.0988
   65MOL    H7216840   2.202   0.058   2.942  2.7446  2.4558  1.1289
   65MOL    H7316841   2.053   0.021   3.009  0.6627 -0.8460 -1.0218
   65MOL    H7416842   2.098   0.188   3.203  0.5239  0.3841  0.6132
   65MOL    H7516843   2.458   0.150   3.056  0.2389 -0.6794  0.0034
   65MOL    H7616844   2.376   7.882   3.020  1.7811 -0.0121 -0.3395
   65MOL    H7716845   2.489   0.013   3.156  0.2067  2.0639  1.2112
   65MOL    H7816846   2.383   0.111   3.377 -1.7101  1.4681  2.7333
   65MOL    H7916847   2.266   0.224   3.380  1.0954  3.0061  0.5326
   65MOL    C8016848   2.440   0.308   3.305  0.7856 -0.0955  0.1036
   65MOL    C8116849   2.357   0.426   3.247  0.7658 -0.2790  0.0819
   65MOL    C8216850   2.328   0.542   3.312  0.3081 -0.0017  0.4946
   65MOL    C8316851   2.382   0.569   3.456 -0.8287  0.2163  0.2845
   65MOL    C8416852   2.259   0.657   3.246  0.3461  0.6917  0.2655
   65MOL    H8516853   2.524   0.295   3.238  1.2175  1.1448  0.3940
   65MOL    H8616854   2.471   0.324   3.409 -2.4015  0.0039  1.0949
   65MOL    H8716855   2.320   0.417   3.146 -1.4027  0.2539  0.8165
   65MOL    H8816856   2.489   0.589   3.451 -0.2641 -2.8191 -0.5886
   65MOL    H8916857   2.369   0.490   3.529 -1.4378  0.0810  0.0290
   65MOL    H9016858   2.332   0.658   3.495 -1.9360  1.1409 -3.0646
   65MOL    H9116859   2.251   0.658   3.137 -0.7062  3.1263  0.3463
   65MOL    H9216860   2.321   0.741   3.276  0.1015  0.2986  1.9128
   65MOL    C9316861   2.118   0.678   3.305  0.0351  0.1519  0.5128
   65MOL    C9416862   2.048   0.799   3.247 -0.0316  0.2426 -0.2444
   65MOL    C9516863   1.919   0.833   3.262  0.1676  0.0198 -0.7792
   65MOL    C9616864   1.826   0.745   3.347  0.2757  0.2300 -0.5979
   65MOL    C9716865   1.862   0.953   3.194 -0.0068  0.2655 -0.7818
   65MOL    H9816866   2.123   0.671   3.414  0.8386  4.3854  0.8139
   65MOL    H9916867   2.060   0.591   3.273  1.4604 -1.5969  2.5725
   65MOL   H10016868   2.106   0.860   3.179 -0.3610 -0.0778 -0.8186
   65MOL   H10116869   1.766   0.800   3.420  0.7570 -0.9871  0.7385
   65MOL   H10216870   1.886   0.670   3.398  0.4188  0.8531  0.1456
   65MOL   H10316871   1.759   0.693   3.278 -1.6116  1.8551 -0.0296
   65MOL   H10416872   1.948   1.021   3.191  0.9917 -0.8350  1.2856
   65MOL   H10516873   1.802   1.019   3.257  0.3816  3.0906 -3.2589
   65MOL   C10616874   1.800   0.920   3.061 -0.3601 -0.6461  0.4275
   65MOL   C10716875   1.906   0.924   2.946 -0.2376  0.7238 -0.1612
   65MOL   C10816876   1.926   0.836   2.849  0.3110  0.3433 -0.3617
   65MOL   C10916877   1.845   0.710   2.831  0.6970 -0.3883 -0.2771
   65MOL   C11016878   2.019   0.860   2.738 -0.5653 -0.3278 -0.0224
   65MOL   H11116879   1.734   1.003   3.034 -0.0892 -0.2857  0.8798
   65MOL   H11216880   1.738   0.831   3.069  0.1373 -1.1039 -0.7138
   65MOL   H11316881   1.964   1.015   2.945  2.7148 -1.0923 -0.0698
   65MOL   H11416882   1.899   0.625   2.873  0.6328 -0.7169 -0.8537
   65MOL   H11516883   1.832   0.696   2.724  1.0017  1.2017 -0.5395
   65MOL   H11616884   1.748   0.742   2.867  0.4453 -3.4728  1.9798
   65MOL   H11716885   2.042   0.967   2.740  0.5862 -0.5771  0.3346
   65MOL   H11816886   1.985   0.844   2.635 -1.0579 -0.0132  0.0898
   65MOL   C11916887   2.159   0.791   2.760  0.3816  0.3768  0.4193
   65MOL   C12016888   2.227   0.848   2.885  0.0916  0.3864 -0.0322
   65MOL   C12116889   2.338   0.916   2.895 -0.7683  0.0704 -0.4789
   65MOL   C12216890   2.429   0.959   2.782  0.2496  0.2116  0.0004
   65MOL   C12316891   2.385   0.962   3.027 -0.6032  0.6079  0.5439
   65MOL   H12416892   2.224   0.782   2.673  1.0173 -0.2996  0.9482
   65MOL   H12516893   2.139   0.690   2.795  0.3223  0.1578 -0.2440
   65MOL   H12616894   2.165   0.830   2.972 -2.3681 -0.5837 -1.9347
   65MOL   H12716895   2.513   0.891   2.766  3.2756  3.4050  1.5892
   65MOL   H12816896   2.454   1.064   2.801  1.0000  0.4660 -2.2831
   65MOL   H12916897   2.372   0.965   2.689 -0.1390  0.2958  0.2424
   65MOL   H13016898   2.493   0.955   3.036 -0.7677 -1.1047  1.2799
   65MOL   H13116899   2.355   0.906   3.116 -1.2740  3.3045  2.0757
   65MOL   C13216900   2.329   1.103   3.049 -0.5474  0.4428  0.0445
   65MOL   C13316901   2.397   1.167   3.170 -0.1362 -0.0064 -0.6700
   65MOL   C13416902   2.404   1.305   3.194 -0.1444 -0.0336  0.4141
   65MOL   C13516903   2.321   1.399   3.104  0.0891 -0.4811  0.8043
   65MOL   C13616904   2.471   1.372   3.315  0.5063  0.3633 -0.4318
   65MOL   H13716905   2.222   1.092   3.063 -0.5293 -1.2906 -1.0892
   65MOL   H13816906   2.318   1.161   2.957 -4.1028 -2.2027 -1.2757
   65MOL   H13916907   2.459   1.110   3.237 -0.6143 -0.0900 -0.3009
   65MOL   H14016908   2.239   1.350   3.053 -0.5955 -0.1740  1.6019
   65MOL   H14116909   2.389   1.440   3.029  2.1443 -0.7715  2.4635
   65MOL   H14216910   2.275   1.473   3.170  0.0190  1.0055 -0.8837
   65MOL   H14316911   2.508   1.296   3.383 -0.5939 -0.5940 -0.8946
   65MOL   H14416912   2.401   1.430   3.374  0.4216  0.5527 -0.7147
   65MOL   C14516913   2.593   1.462   3.291 -0.5287 -0.1103 -0.4950
   65MOL   C14616914   2.641   1.527   3.421 -0.1919  0.0365 -0.0051
   65MOL   C14716915   2.670   1.658   3.442 -0.0458  0.4346 -0.2442
   65MOL   C14816916   2.667   1.772   3.341  0.1329 -0.2473 -0.0171
   65MOL   C14916917   2.716   1.698   3.580 -0.1563 -0.3920  0.1576
   65MOL   H15016918   2.570   1.540   3.219  0.0988  0.8260  0.2887
   65MOL   H15116919   2.675   1.409   3.241  0.2225  1.3700 -0.8671
   65MOL   H15216920   2.638   1.453   3.499  2.5679 -0.4733 -0.3136
   65MOL   H15316921   2.729   1.742   3.256  3.0102  2.3052  1.0969
   65MOL   H15416922   2.710   1.860   3.388  1.1236 -0.6229 -0.1998
   65MOL   H15516923   2.569   1.798   3.301 -0.3803 -0.5553  1.0266
   65MOL   H15616924   2.694   1.629   3.662 -2.5750  2.5895  2.1316
   65MOL   H15716925   2.663   1.789   3.607 -0.5929 -0.1328 -1.5273
   65MOL   C15816926   2.869   1.715   3.582 -0.3402  0.4487 -0.0335
   65MOL   C15916927   2.915   1.773   3.714 -0.0581 -0.4527  0.5450
   65MOL   C16016928   3.010   1.870   3.726  0.0033 -0.8840  0.2867
   65MOL   C16116929   3.095   1.921   3.604 -0.1308  0.1864  0.8998
   65MOL   C16216930   3.041   1.935   3.858  0.2765 -1.0744  0.5239
   65MOL   H16316931   2.903   1.766   3.493  1.7988  0.2804  0.6492
   65MOL   H16416932   2.917   1.617   3.588  0.4359  0.7055 -1.8280
   65MOL   H16516933   2.855   1.735   3.795 -1.0383  0.0635  0.0717
   65MOL   H16616934   3.197   1.942   3.636 -0.5529 -0.9345  3.1019
   65MOL   H16716935   3.056   2.016   3.567  0.3720  0.4539  1.0516
   65MOL   H16816936   3.098   1.860   3.514 -1.1069  0.0314  0.9741
   65MOL   H16916937   3.022   2.042   3.863 -0.7866 -1.3086  1.9344
   65MOL   H17016938   3.145   1.914   3.882  0.2860 -1.5754  0.0544
   65MOL   C17116939   2.977   1.860   3.977 -0.3555  0.1569 -0.2207
   65MOL   C17216940   2.826   1.894   3.991 -0.5904 -0.2916 -0.0136
   65MOL   C17316941   2.733   1.825   4.059  0.2651 -0.5711 -0.2677
   65MOL   C17416942   2.770   1.722   4.157 -0.8656  0.0261 -0.6270
   65MOL   C17516943   2.584   1.879   4.072  0.3847  0.8967  1.0996
   65MOL   H17616944   3.022   1.893   4.071  1.2316 -1.0957 -0.5360
   65MOL   H17716945   2.995   1.755   3.956  0.8514  0.5660 -1.2557
   65MOL   H17816946   2.786   1.974   3.930 -2.3703 -0.9354  0.2833
   65MOL   H17916947   2.873   1.737   4.189 -0.5990  0.0934 -1.5186
   65MOL   H18016948   2.768   1.627   4.103  0.4667 -1.0504  1.1415
   65MOL   H18116949   2.712   1.701   4.247  0.4265 -1.5488 -0.1311
   65MOL   H18216950   2.575   1.971   4.014 -0.5311 -0.3475 -0.8026
   65MOL   H18316951   2.590   1.924   4.170  0.5184  1.4297  0.8475
   65MOL   C18416952   2.475   1.782   4.048  0.0886  0.6181 -0.0483
   65MOL   C18516953   2.438   1.778   3.904  0.5526 -0.5216 -0.0800
   65MOL   C18616954   2.420   1.670   3.829 -0.1726  0.1609  0.1095
   65MOL   C18716955   2.465   1.530   3.875 -0.8217 -0.2084 -0.7933
   65MOL   C18816956   2.361   1.689   3.693 -0.4041 -0.0806  0.4196
   65MOL   H18916957   2.388   1.819   4.101 -0.3843 -1.0049  0.3277
   65MOL   H19016958   2.498   1.685   4.092  0.4204  0.5371 -0.3878
   65MOL   H19116959   2.402   1.874   3.869 -2.3989 -1.3862  0.4106
   65MOL   H19216960   2.392   1.480   3.938  0.2956  1.2875  1.7794
   65MOL   H19316961   2.550   1.549   3.941 -0.4899  0.1082 -1.3113
   65MOL   H19416962   2.499   1.471   3.791  0.6519 -1.8226  0.8996
   65MOL   H19516963   2.441   1.662   3.623 -0.1194 -0.7904  1.0003
   65MOL   H19616964   2.349   1.796   3.677 -1.7642 -0.4576 -1.2324
   65MOL   C19716965   2.235   1.607   3.672 -0.0159  0.1045 -0.5774
   65MOL   C19816966   2.202   1.608   3.524 -0.0842  0.0665 -0.2257
   65MOL   C19916967   2.101   1.668   3.460  0.3816 -0.8298  0.0495
   65MOL   C20016968   1.992   1.743   3.538  0.2264  0.0940  0.1699
   65MOL   C20116969   2.088   1.662   3.309  0.7938  0.2291  0.5549
   65MOL   H20216970   2.139   1.604   3.722  0.0414 -1.6942 -0.5287
   65MOL   H20316971   2.273   1.505   3.686 -0.5579 -0.4210 -2.6975
   65MOL   H20416972   2.278   1.560   3.464  0.8383  2.1538 -0.7839
   65MOL   H20516973   1.903   1.681   3.538  0.3155 -0.0373  0.8768
   65MOL   H20616974   1.969   1.832   3.479 -1.4469  0.4687  1.3493
   65MOL   H20716975   1.996   1.769   3.643  4.4556  0.6159 -0.0366
   65MOL   H20816976   2.180   1.627   3.261  0.6484 -1.6953  1.6199
   65MOL   H20916977   2.099   1.760   3.263  0.6119  0.3366  0.7425
   65MOL   C21016978   1.968   1.587   3.259 -0.0939  0.0167  0.3571
   65MOL   C21116979   1.966   1.582   3.111 -0.9028  0.2368  0.2290
   65MOL   C21216980   1.953   1.466   3.034 -0.0173  0.0537  0.0688
   65MOL   C21316981   1.937   1.324   3.092  0.2379  0.2399 -0.3202
   65MOL   C21416982   1.987   1.468   2.885 -0.4312 -0.3086 -0.2738
   65MOL   H21516983   1.881   1.648   3.285 -0.8045  1.1457 -4.1515
   65MOL   H21616984   1.962   1.489   3.306 -2.3738  0.0362  0.1952
   65MOL   H21716985   1.980   1.674   3.056 -2.0520 -0.5259 -1.3722
   65MOL   H21816986   1.885   1.327   3.187  0.1425 -1.1195 -0.3262
   65MOL   H21916987   2.035   1.278   3.100  0.0605  0.1731  1.5772
   65MOL   H22016988   1.878   1.260   3.027  0.9907 -0.2646 -0.5190
   65MOL   H22116989   1.922   1.396   2.837 -2.1664  0.5815  0.7086
   65MOL   H22216990   2.092   1.444   2.867  0.1485  0.0960  2.3475
   65MOL   C22316991   1.944   1.592   2.810  0.5243 -0.2229 -0.5590
   65MOL   C22416992   1.962   1.581   2.664  0.8878  0.5444  0.9070
   65MOL   C22516993   1.861   1.600   2.578  0.2484  0.7753  0.8419
   65MOL   C22616994   1.719   1.643   2.608  0.1917  0.0796  0.0888
   65MOL   C22716995   1.888   1.594   2.430  0.6310  0.0747  0.2268
   65MOL   H22816996   1.997   1.677   2.852 -0.9417  0.1546  0.6018
   65MOL   H22916997   1.840   1.597   2.844 -0.1897 -3.7800 -1.9903
   65MOL   H23016998   2.066   1.571   2.636  0.1727 -0.3162 -1.5637
   65MOL   H23116999   1.675   1.699   2.525 -0.4633  0.8584  0.9457
   65MOL   H23217000   1.720   1.715   2.689  1.4942 -0.9901  1.0335
   65MOL   H23317001   1.651   1.561   2.628 -1.0376  1.4999  1.9282
   65MOL   H23417002   1.995   1.582   2.410  1.0104  1.1778  1.5044
   65MOL   H23517003   1.859   1.682   2.372 -0.5744 -1.0078 -0.8529
   65MOL   C23617004   1.824   1.472   2.357 -0.6277  0.2732  1.0317
   65MOL   C23717005   1.889   1.444   2.231  0.3868  0.7414  0.7750
   65MOL   C23817006   1.879   1.335   2.160  0.1640  1.1680  1.1050
   65MOL   C23917007   1.792   1.211   2.188 -0.3056 -0.2215  0.6157
   65MOL   C24017008   1.954   1.322   2.029 -0.1129 -0.1535 -0.0093
   65MOL   H24117009   1.721   1.496   2.328  0.3216  1.2980 -1.6221
   65MOL   H24217010   1.825   1.387   2.425  0.8578 -0.5063  0.0472
   65MOL   H24317011   1.942   1.525   2.183  3.7392 -1.8674 -0.0774
   65MOL   H24417012   1.737   1.215   2.282  0.3175  0.2597  0.9587
   65MOL   H24517013   1.863   1.129   2.184 -1.7304 -1.4596  0.3658
   65MOL   H24617014   1.719   1.193   2.109  0.4396  0.2165 -0.1846
   65MOL   H24717015   1.992   1.221   2.015 -2.0719 -0.6854 -1.6274
   65MOL   H24817016   2.039   1.390   2.030  1.6159 -2.1778 -2.2838
   65MOL   C24917017   1.871   1.349   1.908  0.3510 -0.4084  0.4136
   65MOL   C25017018   1.946   1.316   1.781  0.1524  0.2875  0.2067
   65MOL   C25117019   1.931   1.206   1.705 -0.4590  0.2971  0.3868
   65MOL   C25217020   1.828   1.092   1.738 -0.4317 -0.7913 -0.0309
   65MOL   C25317021   2.007   1.191   1.574 -0.0510  0.6424 -0.3465
   65MOL   H25417022   1.843   1.453   1.923  1.7027  0.0332 -0.0578
   65MOL   H25517023   1.779   1.291   1.905  0.4821 -0.6184  0.4271
   65MOL   H25617024   2.015   1.387   1.738  2.3537 -1.7478  0.2689
   65MOL   H25717025   1.727   1.125   1.714  0.6107  2.0475 -0.6353
   65MOL   H25817026   1.825   1.077   1.846 -1.1716 -3.1009 -0.3301
   65MOL   H25917027   1.846   1.001   1.681  1.6847  0.2055 -1.0240
   65MOL   H26017028   1.936   1.175   1.493 -1.5276  0.5078  0.9576
   65MOL   H26117029   2.069   1.102   1.583 -1.2595 -0.0719  1.1825
   65MOL   H26217030   2.069   1.280   1.562  0.5454 -0.0834 -2.9621
   66MOL     C117031   4.204   6.904   0.832  0.2003  0.0406  0.4154
   66MOL     C217032   4.113   7.028   0.838  0.4574  0.1509 -0.0652
   66MOL     C317033   4.108   7.124   0.743  0.6845 -0.1782  0.2271
   66MOL     C417034   4.189   7.125   0.613 -0.0408 -0.5960 -0.3185
   66MOL     C517035   4.015   7.246   0.763 -0.7357  0.6491  0.0904
   66MOL     H617036   4.271   6.899   0.917 -1.5465  0.1169  1.8283
   66MOL     H717037   4.149   6.812   0.845 -1.0259  0.6265 -0.4745
   66MOL     H817038   4.053   7.049   0.925 -0.6584  0.4714 -0.9078
   66MOL     H917039   4.245   7.033   0.601 -1.0628 -1.4901  1.5288
   66MOL    H1017040   4.262   7.206   0.615 -0.5108 -0.1088 -2.0121
   66MOL    H1117041   4.124   7.143   0.527  0.8019  1.0411 -0.6321
   66MOL    H1217042   4.065   7.338   0.734 -1.7690  1.9409  2.2933
   66MOL    H1317043   3.993   7.250   0.870 -0.9820  0.2942  0.0549
   66MOL    H1417044   4.267   6.886   0.744  0.7196  1.4424  0.4806
   66MOL    C1517045   3.878   7.246   0.698  0.2805 -0.1919  0.3142
   66MOL    C1617046   3.797   7.363   0.739  0.6792 -0.0848  1.1699
   66MOL    C1717047   3.749   7.459   0.660  0.6210  0.3703 -0.5677
   66MOL    C1817048   3.774   7.465   0.508  0.3128 -0.4789 -0.0524
   66MOL    C1917049   3.654   7.561   0.715  0.4140  0.5273 -0.2530
   66MOL    H2017050   3.835   7.148   0.714 -0.4035  0.2226  1.0358
   66MOL    H2117051   3.884   7.252   0.589 -2.5505 -1.0214  0.0813
   66MOL    H2217052   3.762   7.368   0.841 -0.4675  1.3578  0.7295
   66MOL    H2317053   3.870   7.420   0.481  0.2884 -0.7121  0.2457
   66MOL    H2417054   3.784   7.567   0.471  0.3413  0.2184  1.8412
   66MOL    H2517055   3.695   7.410   0.455 -0.9500  3.1412 -2.0814
   66MOL    H2617056   3.618   7.521   0.810 -0.7686  3.0540  0.4046
   66MOL    H2717057   3.566   7.567   0.650 -0.4693 -2.5321  0.5701
   66MOL    C2817058   3.713   7.704   0.726 -0.4513 -0.3140  0.3738
   66MOL    C2917059   3.845   7.707   0.795  0.2963 -0.5219  0.0101
   66MOL    C3017060   3.964   7.751   0.743 -0.0374  0.3034  0.1382
   66MOL    C3117061   3.970   7.803   0.595  0.3255  0.8418 -0.1083
   66MOL    C3217062   4.092   7.756   0.818  0.1705  0.3614  0.5848
   66MOL    H3317063   3.643   7.773   0.773  1.3179  0.8199  1.4098
   66MOL    H3417064   3.717   7.751   0.628  1.9965 -1.5144 -0.1429
   66MOL    H3517065   3.841   7.670   0.896 -0.3013  0.9228  0.5316
   66MOL    H3617066   3.885   7.763   0.539  0.3097 -3.9771  3.0467
   66MOL    H3717067   4.064   7.774   0.547  0.5220 -0.0743  0.8159
   66MOL    H3817068   3.970   0.028   0.611 -2.7216  0.8543  0.1214
   66MOL    H3917069   4.172   7.708   0.761 -0.4915 -2.7903  2.1836
   66MOL    H4017070   4.062   7.699   0.906 -1.0123 -1.5722 -1.0056
   66MOL    C4117071   4.130   0.015   0.843 -1.0353 -1.1193  0.0181
   66MOL    C4217072   4.238   0.036   0.954 -0.2589 -0.0046 -0.6880
   66MOL    C4317073   4.240   0.133   1.045  0.1820  0.1917 -0.0727
   66MOL    C4417074   4.140   0.250   1.051 -0.4784  0.0165  0.4056
   66MOL    C4517075   4.361   0.140   1.136 -0.3044 -0.0342  0.1572
   66MOL    H4617076   4.035   0.055   0.878 -0.6102  1.3271 -1.5360
   66MOL    H4717077   4.153   0.068   0.751  1.5305 -1.9383  0.1406
   66MOL    H4817078   4.321   7.855   0.929 -0.6132 -0.6953 -0.1123
   66MOL    H4917079   4.204   0.337   1.037 -1.8385  0.9394 -0.2020
   66MOL    H5017080   4.102   0.251   1.153  0.2623 -1.1387  0.6975
   66MOL    H5117081   4.058   0.249   0.979 -1.2646  0.8153  1.2756
   66MOL    H5217082   4.439   0.198   1.087 -2.1340  0.7878 -1.8498
   66MOL    H5317083   4.394   0.037   1.129  2.0098  0.6405  0.6513
   66MOL    C5417084   4.328   0.195   1.279 -0.6493 -0.1688  0.3297
   66MOL    C5517085   4.463   0.221   1.339 -1.0974  0.5053 -0.0342
   66MOL    C5617086   4.530   0.336   1.359 -0.3107 -0.1557 -0.2108
   66MOL    C5717087   4.477   0.471   1.321  0.0247  0.2846  0.5476
   66MOL    C5817088   4.672   0.339   1.409 -0.4057  0.0612 -0.1144
   66MOL    H5917089   4.288   0.115   1.340 -0.3777 -1.7524 -1.5392
   66MOL    H6017090   4.269   0.287   1.281  3.1771  2.4395 -1.2306
   66MOL    H6117091   4.520   0.132   1.360 -0.3379  0.4693 -2.2040
   66MOL    H6217092   4.381   0.496   1.367 -0.5303  1.2570 -1.0930
   66MOL    H6317093   4.447   0.461   1.217  0.3661 -1.3244  0.5835
   66MOL    H6417094   4.539   0.560   1.329 -1.2303  1.2258  0.0073
   66MOL    H6517095   4.730   0.408   1.348 -0.0104  1.1338  1.4804
   66MOL    H6617096   4.716   0.242   1.385 -0.1087  0.2550 -0.3526
   66MOL    C6717097   4.674   0.377   1.556 -0.5568  0.1062  0.4106
   66MOL    C6817098   4.664   0.526   1.582 -0.4837 -0.2945  0.3048
   66MOL    C6917099   4.643   0.584   1.699 -0.0462  0.7692 -0.4047
   66MOL    C7017100   4.617   0.511   1.824 -0.2504 -0.4162 -0.1812
   66MOL    C7117101   4.614   0.739   1.701  0.1286 -0.4203 -0.4801
   66MOL    H7217102   4.780   0.350   1.565 -0.7979 -0.8076  0.5604
   66MOL    H7317103   4.625   0.315   1.631 -0.7862 -0.4978 -0.2368
   66MOL    H7417104   4.688   0.598   1.507  2.4507 -0.0881  1.3890
   66MOL    H7517105   4.510   0.506   1.845 -0.3398 -0.0989 -0.5505
   66MOL    H7617106   4.656   0.572   1.906 -0.1556  1.8007 -1.8119
   66MOL    H7717107   4.651   0.408   1.834 -2.0411 -0.8817  1.2013
   66MOL    H7817108   4.637   0.788   1.606 -1.7866 -0.5085 -1.0212
   66MOL    H7917109   4.675   0.792   1.774  0.1134 -1.8288  0.5794
   66MOL    C8017110   4.467   0.761   1.733  0.4802  1.0294 -0.0243
   66MOL    C8117111   4.368   0.715   1.622  0.1216  0.7927 -0.2475
   66MOL    C8217112   4.295   0.793   1.539 -0.4415  0.8600 -0.3094
   66MOL    C8317113   4.302   0.943   1.524  0.8143  0.0605  0.8498
   66MOL    C8417114   4.199   0.730   1.444  0.0579 -0.7498 -0.0401
   66MOL    H8517115   4.466   0.868   1.754  1.0498  1.0629 -0.1639
   66MOL    H8617116   4.434   0.713   1.825 -2.6789  2.9758 -0.0525
   66MOL    H8717117   4.365   0.607   1.609  1.7499  1.0178 -2.7180
   66MOL    H8817118   4.356   0.983   1.610  0.0601 -2.7074  2.6874
   66MOL    H8917119   4.202   0.986   1.534  0.3893 -1.0062  1.3504
   66MOL    H9017120   4.344   0.983   1.433 -2.9043 -0.7041 -1.3092
   66MOL    H9117121   4.097   0.764   1.459  0.6465  1.9834 -1.7522
   66MOL    H9217122   4.190   0.626   1.476 -0.5110 -1.2420 -1.7644
   66MOL    C9317123   4.228   0.757   1.293 -0.3963  0.2520 -0.1574
   66MOL    C9417124   4.158   0.665   1.193 -0.3407  0.0901 -1.0344
   66MOL    C9517125   4.036   0.694   1.135 -0.3830 -0.6147 -0.4278
   66MOL    C9617126   3.962   0.812   1.179 -0.4337  0.3243 -0.6694
   66MOL    C9717127   3.963   0.594   1.048 -0.5599 -0.8702 -0.8047
   66MOL    H9817128   4.335   0.750   1.273 -0.5392  1.8271 -1.5853
   66MOL    H9917129   4.213   0.861   1.265 -0.6546 -0.0113 -0.9846
   66MOL   H10017130   4.222   0.578   1.184  0.9925  0.9855 -0.4640
   66MOL   H10117131   3.924   0.792   1.279  0.9137  1.9127  0.1860
   66MOL   H10217132   3.887   0.846   1.108  1.8545  0.5023 -3.0537
   66MOL   H10317133   4.029   0.898   1.188  2.1151 -1.7961  1.4532
   66MOL   H10417134   3.862   0.568   1.082 -0.6643  0.1141 -0.3445
   66MOL   H10517135   4.020   0.501   1.055  3.1974  1.5119  1.5953
   66MOL   C10617136   3.959   0.636   0.900 -0.1396 -0.1105  0.1432
   66MOL   C10717137   3.892   0.544   0.805  0.2154  0.3772  0.4497
   66MOL   C10817138   3.946   0.450   0.731  0.4910  0.4902 -0.2229
   66MOL   C10917139   4.095   0.408   0.736 -0.3553 -0.4664  0.7070
   66MOL   C11017140   3.870   0.364   0.640  0.4127 -0.5854 -0.0068
   66MOL   H11117141   4.066   0.655   0.887  0.4014 -0.8858  3.0079
   66MOL   H11217142   3.905   0.730   0.891 -0.4521 -0.1984  1.0398
   66MOL   H11317143   3.787   0.566   0.789  0.1274 -1.3311 -1.4122
   66MOL   H11417144   4.138   0.443   0.829  2.8208 -1.8143 -0.1868
   66MOL   H11517145   4.156   0.441   0.652  0.7417 -2.6522  0.6086
   66MOL   H11617146   4.109   0.300   0.744 -1.0929 -0.7869 -1.7816
   66MOL   H11717147   3.768   0.373   0.679  0.6046  0.9890  0.1564
   66MOL   H11817148   3.900   0.260   0.651  1.9151  0.1510  3.2681
   66MOL   C11917149   3.896   0.413   0.490 -0.2205 -0.1001  0.3088
   66MOL   C12017150   3.809   0.316   0.403  0.1584 -0.8184  0.1766
   66MOL   C12117151   3.848   0.209   0.333 -0.0402 -0.1546  0.0983
   66MOL   C12217152   3.993   0.165   0.333 -0.2985  0.3381 -0.3972
   66MOL   C12317153   3.764   0.126   0.238  0.3289 -0.4995 -0.3360
   66MOL   H12417154   4.000   0.419   0.458 -0.2013  1.2125  0.5777
   66MOL   H12517155   3.855   0.513   0.472 -0.1239 -0.2094 -0.5499
   66MOL   H12617156   3.708   0.348   0.382  0.7978  0.0763 -1.6432
   66MOL   H12717157   4.035   0.153   0.433  0.1789 -2.6381 -0.9178
   66MOL   H12817158   4.068   0.228   0.284 -0.4996 -0.2302 -1.4535
   66MOL   H12917159   4.004   0.063   0.295  0.4141 -0.4637  1.8714
   66MOL   H13017160   3.721   0.043   0.294  0.2047  0.6115  1.2428
   66MOL   H13117161   3.832   0.072   0.172  0.4109 -0.5273 -0.2296
   66MOL   C13217162   3.652   0.203   0.159  0.4695  0.2338  0.6419
   66MOL   C13317163   3.570   0.105   0.071  0.0593  0.1583  0.4191
   66MOL   C13417164   3.566   0.099   7.821  0.2239 -0.6949  0.4248
   66MOL   C13517165   3.631   0.193   7.723  0.0616 -0.5376  0.5796
   66MOL   C13617166   3.508   7.860   7.744  0.1108  0.0606 -0.5741
   66MOL   H13717167   3.701   0.280   0.100  0.0997  0.1118  0.1648
   66MOL   H13817168   3.587   0.263   0.223  1.8141  0.5816  1.6928
   66MOL   H13917169   3.518   0.027   0.124  0.5359 -2.1439 -2.3911
   66MOL   H14017170   3.561   0.215   7.642  2.3080  1.8129 -0.8039
   66MOL   H14117171   3.717   0.150   7.672  1.8235  1.9086  1.3763
   66MOL   H14217172   3.660   0.288   7.768  0.9704 -0.1707 -0.7459
   66MOL   H14317173   3.540   7.859   7.640 -0.1988  0.1612 -0.6694
   66MOL   H14417174   3.402   7.882   7.742  0.2775  0.8850 -0.4428
   66MOL   C14517175   3.540   7.721   7.805  0.5090 -0.9589  0.4415
   66MOL   C14617176   3.692   7.702   7.836 -0.0692 -0.0050  0.2814
   66MOL   C14717177   3.750   7.675   0.071  0.2035 -0.9443 -0.2012
   66MOL   C14817178   3.675   7.641   0.203 -0.7356  0.0284  0.0301
   66MOL   C14917179   3.901   7.643   0.079 -0.4619 -0.5602 -0.4922
   66MOL   H15017180   3.506   7.651   7.728 -0.2084 -0.1270 -0.0145
   66MOL   H15117181   3.476   7.718   0.010  1.6401  1.3453  1.3773
   66MOL   H15217182   3.750   7.710   7.745  0.8246  0.9189  0.9262
   66MOL   H15317183   3.706   7.709   0.282 -0.0317 -0.0549 -0.1708
   66MOL   H15417184   3.690   7.538   0.236  0.6431  0.2631  0.1571
   66MOL   H15517185   3.572   7.661   0.174 -0.1995  1.5295 -0.8935
   66MOL   H15617186   3.911   7.534   0.077 -0.2653 -0.5504  0.0906
   66MOL   H15717187   3.934   7.682   0.174 -0.6426 -1.9717  0.1662
   66MOL   C15817188   3.994   7.707   7.857  0.1533  0.5311 -0.0165
   66MOL   C15917189   3.982   7.864   7.853  0.0450 -0.0403 -0.2478
   66MOL   C16017190   4.079   0.071   7.870  0.0148  0.7952 -0.3304
   66MOL   C16117191   4.218   0.029   0.028  0.3145 -0.1971 -0.0406
   66MOL   C16217192   4.052   0.215   7.850 -0.7838  0.5348 -0.9138
   66MOL   H16317193   3.949   7.673   7.764 -0.6580  0.1302  0.5195
   66MOL   H16417194   4.094   7.664   7.855 -0.2331 -0.4422  0.8411
   66MOL   H16517195   3.886   0.012   7.814  0.2470  0.1663 -0.5868
   66MOL   H16617196   4.279   0.045   7.822 -0.9768 -3.3900 -1.5716
   66MOL   H16717197   4.239   7.807   0.050 -3.2445 -1.2410 -1.1484
   66MOL   H16817198   4.259   0.077   0.118 -1.7226 -0.3248  0.9910
   66MOL   H16917199   4.117   0.272   0.034  0.2747 -0.9403 -0.6892
   66MOL   H17017200   3.949   0.238   7.881 -0.4682  0.5786  0.1244
   66MOL   C17117201   4.072   0.249   7.701  0.5836 -0.0187  0.1999
   66MOL   C17217202   4.074   0.394   7.667  0.3778  1.0943  0.2849
   66MOL   C17317203   3.985   0.458   7.592  0.2430 -0.0490 -1.2055
   66MOL   C17417204   3.872   0.391   7.515 -0.1330 -0.1931  0.4701
   66MOL   C17517205   4.010   0.606   7.559  0.3727  0.5620 -0.1561
   66MOL   H17617206   3.993   0.202   7.642  0.1128  0.1709  0.6741
   66MOL   H17717207   4.172   0.220   7.667  0.5659 -1.1191  1.0820
   66MOL   H17817208   4.159   0.442   7.714  1.2736  0.3137 -0.5088
   66MOL   H17917209   3.921   0.323   7.446 -1.3219 -1.4997  0.8675
   66MOL   H18017210   3.811   0.457   7.455  1.9302  0.6873 -0.6911
   66MOL   H18117211   3.811   0.330   7.583  0.4642 -1.2300  0.0959
   66MOL   H18217212   4.067   0.654   7.639  0.2837  0.5668 -0.0951
   66MOL   H18317213   3.912   0.654   7.551  0.2688  0.2275 -0.9466
   66MOL   C18417214   4.079   0.628   7.424  0.4315 -0.2880 -0.1853
   66MOL   C18517215   4.124   0.769   7.405 -0.1933 -0.6296 -0.1795
   66MOL   C18617216   4.144   0.824   7.282  0.1235 -0.6891 -0.3819
   66MOL   C18717217   4.120   0.767   7.146 -0.6031 -0.0276 -0.4330
   66MOL   C18817218   4.200   0.966   7.277 -0.3024  0.4035 -0.4029
   66MOL   H18917219   4.002   0.596   7.354 -1.5064  1.2074  1.2149
   66MOL   H19017220   4.173   0.572   7.428  1.5255  1.1696 -3.9927
   66MOL   H19117221   4.146   0.820   7.498 -0.7913  1.6613 -1.2567
   66MOL   H19217222   4.210   0.785   7.087  1.4993 -2.6956  1.8003
   66MOL   H19317223   4.039   0.816   7.092  0.3469  2.6556  0.4971
   66MOL   H19417224   4.113   0.658   7.147  1.7330 -0.2593 -3.0905
   66MOL   H19517225   4.273   0.963   7.196 -0.7034 -0.3825 -0.7395
   66MOL   H19617226   4.252   0.982   7.372  0.7862 -3.5945 -0.2295
   66MOL   C19717227   4.107   1.083   7.245 -0.4019 -0.5818  0.2293
   66MOL   C19817228   4.182   1.215   7.238 -0.2698 -0.7197 -0.1698
   66MOL   C19917229   4.127   1.336   7.243  0.1469 -1.0059  0.4977
   66MOL   C20017230   3.974   1.360   7.248 -0.1767  1.4471  0.5082
   66MOL   C20117231   4.217   1.461   7.254  0.1869 -0.3096 -0.6498
   66MOL   H20217232   4.027   1.086   7.319 -0.7064 -2.5400 -0.0004
   66MOL   H20317233   4.054   1.073   7.150 -0.9240 -0.3789  0.5010
   66MOL   H20417234   4.290   1.202   7.234 -0.1171  0.7951 -1.3484
   66MOL   H20517235   3.946   1.465   7.234  0.7012  1.8356  1.5965
   66MOL   H20617236   3.921   1.324   7.337 -2.5450 -1.1434 -1.8551
   66MOL   H20717237   3.922   1.308   7.168  1.0918 -0.5012  0.9215
   66MOL   H20817238   4.174   1.515   7.338 -2.3071 -1.1857 -1.2895
   66MOL   H20917239   4.203   1.518   7.162 -1.7231  0.3098  0.0006
   66MOL   C21017240   4.367   1.431   7.258 -0.1207 -0.9843 -0.4078
   66MOL   C21117241   4.443   1.563   7.271  0.1377 -0.0220  0.0763
   66MOL   C21217242   4.560   1.601   7.209  0.1837 -0.1242 -0.9032
   66MOL   C21317243   4.630   1.518   7.112  0.2054 -0.1566  0.1208
   66MOL   C21417244   4.622   1.739   7.231  0.0163 -0.1416  0.0204
   66MOL   H21517245   4.383   1.388   7.159  0.7803 -0.0272 -0.6846
   66MOL   H21617246   4.394   1.362   7.338 -0.5932  0.6859  1.2288
   66MOL   H21717247   4.389   1.626   7.341  0.7799  0.0859  0.4734
   66MOL   H21817248   4.734   1.504   7.140  0.2531 -0.0694 -0.0139
   66MOL   H21917249   4.618   1.545   7.007 -0.3312 -0.9586 -0.0366
   66MOL   H22017250   4.586   1.418   7.104  1.6914 -0.7431 -0.8896
   66MOL   H22117251   4.612   1.799   7.141  1.5088  1.5255  0.9151
   66MOL   H22217252   4.731   1.734   7.221 -0.0561 -1.1994 -0.2324
   66MOL   C22317253   4.573   1.832   7.352  0.5234 -0.0258  0.2712
   66MOL   C22417254   4.669   1.949   7.367  0.1973  0.5365  0.4375
   66MOL   C22517255   4.680   2.025   7.476  0.6448  0.4460  0.3531
   66MOL   C22617256   4.589   2.007   7.598 -0.5739  0.4928  1.0681
   66MOL   C22717257   4.777   2.140   7.486 -0.3282 -0.3962  0.3042
   66MOL   H22817258   4.561   1.761   7.434 -0.2746  0.6927  0.7795
   66MOL   H22917259   4.474   1.877   7.343 -0.4768 -2.4327 -1.5277
   66MOL   H23017260   4.727   1.974   7.279 -0.4078 -0.5195 -0.2747
   66MOL   H23117261   4.510   1.934   7.584 -0.5556  0.8006 -0.7043
   66MOL   H23217262   4.535   2.101   7.612 -0.9783  0.3903  0.2028
   66MOL   H23317263   4.652   1.971   7.680 -0.9794 -3.0152 -0.1060
   66MOL   H23417264   4.713   2.223   7.515  0.9845  0.7543 -0.0246
   66MOL   H23517265   4.801   2.168   7.384 -3.1386 -3.4224 -1.2888
   66MOL   C23617266   4.897   2.117   7.588 -0.4584 -0.8444 -1.0438
   66MOL   C23717267   5.001   2.228   7.584  0.0757  0.1405  0.8375
   66MOL   C23817268   4.982   2.349   7.648  0.7743 -0.0675 -0.1577
   66MOL   C23917269   4.860   2.373   7.730  0.6993  0.0328 -0.3177
   66MOL   C24017270   5.083   2.455   7.656  0.2997 -0.0086 -0.1964
   66MOL   H24117271   4.946   2.022   7.565  2.1531  0.5984 -1.6240
   66MOL   H24217272   4.864   2.119   7.692 -0.0267 -1.7587 -0.8785
   66MOL   H24317273   5.097   2.205   7.541 -0.5516 -0.5275 -0.2035
   66MOL   H24417274   4.833   2.478   7.742  1.3523  0.3907 -1.8912
   66MOL   H24517275   4.863   2.305   7.815 -0.7637 -0.1747 -0.4138
   66MOL   H24617276   4.771   2.327   7.686 -0.6776 -1.2568  3.5746
   66MOL   H24717277   5.108   2.476   7.760  1.2486  1.7505 -0.7528
   66MOL   H24817278   5.033   2.545   7.619  0.4956 -0.4511 -1.5396
   66MOL   C24917279   5.212   2.429   7.581  0.0113 -0.3974  0.4351
   66MOL   C25017280   5.310   2.547   7.598 -0.3482 -0.5546 -0.2260
   66MOL   C25117281   5.406   2.550   7.690 -1.1982  0.2196 -0.2379
   66MOL   C25217282   5.431   2.432   7.779  0.3867  0.2291 -0.4646
   66MOL   C25317283   5.492   2.671   7.713  0.2425  0.1781 -0.2042
   66MOL   H25417284   5.179   2.400   7.481  0.0230  0.7475  0.1005
   66MOL   H25517285   5.253   2.338   7.626  1.0945  0.3152  0.8908
   66MOL   H25617286   5.281   2.637   7.546 -1.8807 -1.2410 -0.5709
   66MOL   H25717287   5.499   2.461   7.859 -0.2459  1.3413 -0.3216
   66MOL   H25817288   5.466   2.342   7.729 -0.0509  1.1218 -2.4023
   66MOL   H25917289   5.337   2.394   7.820  0.0672  0.6178 -0.8323
   66MOL   H26017290   5.476   2.751   7.641  2.1042  1.9202  1.2472
   66MOL   H26117291   5.599   2.655   7.702 -0.1553 -2.8839 -0.0610
   66MOL   H26217292   5.475   2.702   7.816 -0.0911 -1.5958  0.2975
   67MOL     C117293   3.173   0.903   3.298 -0.9280 -0.4496  0.1975
   67MOL     C217294   3.278   0.960   3.390 -0.2438  0.0982  0.5346
   67MOL     C317295   3.345   0.902   3.491  0.0617 -0.5683 -0.1774
   67MOL     C417296   3.335   0.755   3.533 -0.1902 -0.4730  0.0631
   67MOL     C517297   3.455   0.980   3.558  0.3242  0.2979  0.2021
   67MOL     H617298   3.156   0.801   3.334 -0.2192 -1.0817 -1.2159
   67MOL     H717299   3.079   0.959   3.304 -1.0763 -0.5708 -0.9158
   67MOL     H817300   3.284   1.064   3.362  1.1075 -0.5718 -1.7707
   67MOL     H917301   3.336   0.691   3.446  2.1217  0.6473 -0.7911
   67MOL    H1017302   3.263   0.726   3.609 -1.1454 -0.9841 -1.0370
   67MOL    H1117303   3.438   0.739   3.566  0.2203  0.7068 -0.5943
   67MOL    H1217304   3.454   1.077   3.508  0.1252 -0.5537 -1.4978
   67MOL    H1317305   3.554   0.945   3.528 -0.7187 -0.6789 -2.2164
   67MOL    H1417306   3.196   0.881   3.194 -2.8193  1.8701 -0.7660
   67MOL    C1517307   3.431   0.985   3.716 -0.1189  0.3547 -0.1578
   67MOL    C1617308   3.517   1.087   3.784 -0.9293 -0.1840 -0.6497
   67MOL    C1717309   3.613   1.063   3.881  0.2664  0.5825  0.5876
   67MOL    C1817310   3.645   0.928   3.938 -0.7104  0.8406  0.2538
   67MOL    C1917311   3.701   1.172   3.932 -0.3073  0.2535 -0.2445
   67MOL    H2017312   3.427   0.882   3.753 -0.9962  0.3965 -0.1194
   67MOL    H2117313   3.335   1.032   3.735 -1.4626 -1.9519 -1.1270
   67MOL    H2217314   3.503   1.188   3.749  1.6472  1.1102  1.8175
   67MOL    H2317315   3.720   0.939   4.016  1.5371  0.6509 -1.8143
   67MOL    H2417316   3.693   0.863   3.864  0.1395  1.2124  0.4762
   67MOL    H2517317   3.552   0.897   3.987 -1.4060  2.1859 -0.2070
   67MOL    H2617318   3.719   1.165   4.039  3.1394 -1.3329 -0.8585
   67MOL    H2717319   3.639   1.261   3.929 -0.4868  0.1277 -0.2108
   67MOL    C2817320   3.835   1.178   3.860 -0.2017 -0.2774  0.3395
   67MOL    C2917321   3.938   1.266   3.924  0.1977 -0.1738  0.2601
   67MOL    C3017322   3.956   1.398   3.897 -0.4815  0.3176  0.2479
   67MOL    C3117323   3.876   1.475   3.796 -0.0652  0.2668 -0.4173
   67MOL    C3217324   4.049   1.480   3.981  0.6581 -0.7004 -0.1399
   67MOL    H3317325   3.828   1.221   3.760  1.6586 -1.7763 -0.4810
   67MOL    H3417326   3.883   1.084   3.833  1.7201  0.1357  2.1398
   67MOL    H3517327   3.998   1.217   4.000 -1.3443 -2.0054  0.3362
   67MOL    H3617328   3.812   1.526   3.868 -0.9414 -0.6817 -0.5097
   67MOL    H3717329   3.808   1.433   3.721 -0.6255 -0.4329  0.4728
   67MOL    H3817330   3.953   1.536   3.749  1.7300 -1.6538 -0.0639
   67MOL    H3917331   4.097   1.416   4.055 -0.2563 -0.2521  0.8535
   67MOL    H4017332   3.994   1.557   4.035 -0.1250 -0.2234 -1.5683
   67MOL    C4117333   4.151   1.562   3.903  0.1734  0.5105 -0.0982
   67MOL    C4217334   4.283   1.582   3.963  0.4016 -0.1527 -0.1411
   67MOL    C4317335   4.331   1.692   4.024 -0.0330 -0.1412  0.6951
   67MOL    C4417336   4.245   1.819   4.034 -0.4702 -0.0208  0.3413
   67MOL    C4517337   4.467   1.694   4.084 -0.7097  0.0417 -0.8552
   67MOL    H4617338   4.115   1.658   3.867  0.8049  0.2504 -1.4225
   67MOL    H4717339   4.171   1.499   3.817  0.5599 -1.2067  1.2178
   67MOL    H4817340   4.350   1.498   3.969  0.8247  0.1611 -0.4061
   67MOL    H4917341   4.277   1.895   3.963 -0.5774  0.0582  0.3780
   67MOL    H5017342   4.266   1.849   4.137 -2.0078 -1.3525  1.0714
   67MOL    H5117343   4.137   1.804   4.044 -0.1954 -1.5914  1.2924
   67MOL    H5217344   4.498   1.590   4.099  0.0033  0.1833 -1.2999
   67MOL    H5317345   4.475   1.755   4.174 -0.6594  0.1179 -0.9105
   67MOL    C5417346   4.565   1.758   3.980 -0.1114  1.0011  0.4569
   67MOL    C5517347   4.706   1.729   4.023  0.6506 -0.1581  0.5154
   67MOL    C5617348   4.809   1.805   3.987  0.1487  0.0885  0.0465
   67MOL    C5717349   4.797   1.932   3.908  0.4108 -0.9538  0.4911
   67MOL    C5817350   4.943   1.777   4.054  0.4263  0.3576 -0.4187
   67MOL    H5917351   4.538   1.863   3.970  1.7428  1.6073  1.3923
   67MOL    H6017352   4.561   1.708   3.884  0.0042 -0.4176  1.1723
   67MOL    H6117353   4.707   1.641   4.087  0.5431 -0.1479  0.5324
   67MOL    H6217354   4.892   1.957   3.861  0.1374 -0.0373  0.4237
   67MOL    H6317355   4.765   2.011   3.975 -0.1022 -0.1876 -0.6377
   67MOL    H6417356   4.717   1.925   3.835  0.8401 -0.1330 -0.0642
   67MOL    H6517357   5.015   1.748   3.978 -0.1716 -0.0073 -0.8487
   67MOL    H6617358   4.936   1.686   4.114  1.4190  1.3998  1.3201
   67MOL    C6717359   4.993   1.897   4.145 -0.1558  1.1112 -0.1948
   67MOL    C6817360   4.900   1.938   4.256  0.1087 -0.1173  0.5204
   67MOL    C6917361   4.859   2.062   4.288  0.0748  0.0828  0.4043
   67MOL    C7017362   4.915   2.186   4.221  0.3408  0.0286  0.1431
   67MOL    C7117363   4.756   2.086   4.397 -0.3195  0.2709  0.1247
   67MOL    H7217364   5.027   1.978   4.079  2.8183  1.2936  1.4739
   67MOL    H7317365   5.083   1.862   4.195 -0.1530  2.4137  0.7523
   67MOL    H7417366   4.847   1.852   4.295 -1.7649 -1.2399 -4.0750
   67MOL    H7517367   4.965   2.156   4.130 -0.8226  0.6015 -0.6930
   67MOL    H7617368   4.991   2.228   4.287  1.7806 -1.0100 -0.8381
   67MOL    H7717369   4.828   2.246   4.196 -1.0964 -1.3724  1.6525
   67MOL    H7817370   4.664   2.133   4.364 -0.1827 -0.1544 -0.8948
   67MOL    H7917371   4.816   2.153   4.460 -0.9896  1.9905 -1.0300
   67MOL    C8017372   4.726   1.958   4.484  0.1334  0.1601  0.2291
   67MOL    C8117373   4.646   2.005   4.607 -0.1731  0.7657 -0.0185
   67MOL    C8217374   4.533   1.952   4.657  0.2410 -0.7582  0.0423
   67MOL    C8317375   4.461   1.827   4.604  0.8544  1.0043  0.7094
   67MOL    C8417376   4.465   1.994   4.786 -0.1094 -0.2433  0.3232
   67MOL    H8517377   4.820   1.921   4.525 -0.8379 -1.4950  0.9937
   67MOL    H8617378   4.668   1.885   4.429 -1.8073  1.2290  0.7913
   67MOL    H8717379   4.682   2.095   4.654 -0.6792  0.6913  0.5165
   67MOL    H8817380   4.352   1.837   4.611  0.5126  0.2105 -2.6393
   67MOL    H8917381   4.493   1.741   4.662 -0.6169  0.9089  1.4150
   67MOL    H9017382   4.489   1.813   4.499  1.8353  0.7181  1.0073
   67MOL    H9117383   4.480   1.916   4.860  0.3367 -1.7195 -1.2822
   67MOL    H9217384   4.359   2.000   4.761  0.1163  0.6735 -0.4539
   67MOL    C9317385   4.512   2.128   4.849  0.0024 -0.4055 -0.4632
   67MOL    C9417386   4.428   2.149   4.973  0.1041 -0.2848  0.1687
   67MOL    C9517387   4.398   2.269   5.036 -0.0382  0.3982  0.1620
   67MOL    C9617388   4.439   2.408   4.975  0.3424  0.4569  0.0730
   67MOL    C9717389   4.294   2.278   5.148 -0.1065  0.2510 -0.4412
   67MOL    H9817390   4.490   2.209   4.778  1.6871  0.9560  0.5324
   67MOL    H9917391   4.620   2.136   4.865  0.0075 -0.0006 -0.6775
   67MOL   H10017392   4.372   2.066   5.015  0.6723 -1.4775 -1.3666
   67MOL   H10117393   4.351   2.467   4.948 -0.2912  1.0998  3.3530
   67MOL   H10217394   4.497   2.394   4.883  0.0998 -1.4196  0.1782
   67MOL   H10317395   4.503   2.466   5.040  0.7000 -0.9233  0.9692
   67MOL   H10417396   4.293   2.174   5.178  1.6633  0.1854 -0.5917
   67MOL   H10517397   4.188   2.294   5.124  0.0870  1.1139 -0.7462
   67MOL   C10617398   4.346   2.363   5.272  0.3992  0.2966 -0.0524
   67MOL   C10717399   4.227   2.421   5.343 -0.7074  0.5777  0.5553
   67MOL   C10817400   4.179   2.394   5.465  0.2069 -0.0566 -0.3436
   67MOL   C10917401   4.234   2.285   5.556 -0.7502  0.3595 -0.3676
   67MOL   C11017402   4.067   2.482   5.528 -0.6119 -0.0125  0.5703
   67MOL   H11117403   4.406   2.447   5.237 -2.4334  1.5210 -2.1654
   67MOL   H11217404   4.412   2.307   5.338  1.4105 -0.7241 -1.8757
   67MOL   H11317405   4.170   2.492   5.285 -0.8896  0.4926  0.6276
   67MOL   H11417406   4.152   2.220   5.586 -3.1342  3.9445  1.2796
   67MOL   H11517407   4.271   2.323   5.651 -0.6695  0.1654 -0.3212
   67MOL   H11617408   4.309   2.219   5.511  0.5764 -0.1794  2.5101
   67MOL   H11717409   3.979   2.420   5.544 -1.5114  0.9003 -0.7051
   67MOL   H11817410   4.028   2.550   5.453 -0.7970 -0.2975  0.4092
   67MOL   C11917411   4.120   2.568   5.635 -0.2854  0.1973 -0.3254
   67MOL   C12017412   4.030   2.689   5.659 -0.7224 -0.4640 -0.1014
   67MOL   C12117413   3.927   2.704   5.741 -0.1093 -0.7693  0.4395
   67MOL   C12217414   3.868   2.592   5.829 -0.5796  0.0731  0.1369
   67MOL   C12317415   3.859   2.842   5.753  0.7858 -0.7892  0.7823
   67MOL   H12417416   4.214   2.614   5.605  0.8408 -2.1400 -0.4899
   67MOL   H12517417   4.150   2.515   5.725 -0.6231  2.8470  1.4000
   67MOL   H12617418   4.070   2.766   5.596 -0.4050  0.5008  1.2518
   67MOL   H12717419   3.878   2.608   5.936 -0.7227  0.1686  0.1364
   67MOL   H12817420   3.927   2.502   5.812 -0.2466  0.2032  0.6128
   67MOL   H12917421   3.764   2.577   5.798 -0.6162 -1.5812  0.9752
   67MOL   H13017422   3.918   2.909   5.690  0.6089 -1.0174  0.3695
   67MOL   H13117423   3.873   2.871   5.857  3.4366 -0.6523  0.4246
   67MOL   C13217424   3.713   2.841   5.702  0.0786  0.3327  0.6646
   67MOL   C13317425   3.648   2.973   5.683  0.0964 -0.8524 -0.4182
   67MOL   C13417426   3.522   3.010   5.645  0.1560 -0.0864 -0.5050
   67MOL   C13517427   3.419   2.914   5.601  0.4791  0.1072  0.1460
   67MOL   C13617428   3.472   3.152   5.631  0.2689 -0.7766 -0.2768
   67MOL   H13717429   3.658   2.786   5.778 -0.9479  0.3824 -0.0295
   67MOL   H13817430   3.707   2.774   5.616 -1.5239 -0.0917  1.0798
   67MOL   H13917431   3.711   3.056   5.713 -1.9740 -0.0077  1.8270
   67MOL   H14017432   3.389   2.930   5.497  2.6617  3.4532 -0.0628
   67MOL   H14117433   3.330   2.928   5.661 -1.8245 -2.6447 -2.4616
   67MOL   H14217434   3.445   2.809   5.606 -2.9051 -0.7661  0.1362
   67MOL   H14317435   3.409   3.165   5.543  0.1845 -2.6177 -0.5041
   67MOL   H14417436   3.557   3.216   5.608  0.4164 -0.8854 -0.0414
   67MOL   C14517437   3.388   3.187   5.752 -0.8522 -0.2603  0.5869
   67MOL   C14617438   3.362   3.335   5.753  0.1912  0.0075 -0.6810
   67MOL   C14717439   3.415   3.429   5.833  0.5349  0.6770 -0.1407
   67MOL   C14817440   3.516   3.386   5.943 -0.4619  0.2249  0.1701
   67MOL   C14917441   3.358   3.567   5.849 -0.1643 -0.3624  0.6953
   67MOL   H15017442   3.446   3.160   5.840  1.0486  2.3757  0.1971
   67MOL   H15117443   3.300   3.122   5.757  0.7205 -2.3839  1.5251
   67MOL   H15217444   3.285   3.366   5.684 -0.3021  0.5897  0.1226
   67MOL   H15317445   3.578   3.302   5.914  0.2837  1.0328 -0.5945
   67MOL   H15417446   3.459   3.364   6.034  0.8760 -0.2950  0.8921
   67MOL   H15517447   3.573   3.474   5.973  1.1717 -0.2476 -1.5014
   67MOL   H15617448   3.337   3.619   5.755  0.1380 -2.9197 -0.8646
   67MOL   H15717449   3.440   3.633   5.875  1.0663 -1.7029  0.2888
   67MOL   C15817450   3.245   3.574   5.957  0.3489 -0.5621  0.4355
   67MOL   C15917451   3.192   3.719   5.974  0.0356  0.7677  0.2877
   67MOL   C16017452   3.124   3.759   6.082  1.0065  0.1103  0.1933
   67MOL   C16117453   3.065   3.668   6.191 -0.1298  0.1115 -0.1034
   67MOL   C16217454   3.089   3.906   6.096  0.0495 -0.4230 -0.4372
   67MOL   H16317455   3.281   3.536   6.052  0.6134 -0.8247  0.2311
   67MOL   H16417456   3.161   3.512   5.925 -0.6589  0.6958  0.6120
   67MOL   H16517457   3.210   3.792   5.897  1.2000 -1.1830 -1.3450
   67MOL   H16617458   3.122   3.696   6.280 -0.6120  3.7893 -0.8567
   67MOL   H16717459   3.077   3.567   6.153 -1.4394 -0.0406 -0.1274
   67MOL   H16817460   2.958   3.688   6.200  0.4004  2.6384  0.9581
   67MOL   H16917461   3.156   3.970   6.038 -0.6919  0.2697 -0.5350
   67MOL   H17017462   3.110   3.923   6.202  3.0774 -0.1974 -1.0331
   67MOL   C17117463   2.938   3.941   6.067  0.0513 -0.1194  0.3043
   67MOL   C17217464   2.910   4.072   6.114  0.5184  0.0120 -0.0161
   67MOL   C17317465   2.898   4.185   6.040  0.3998 -0.0288 -0.0254
   67MOL   C17417466   2.911   4.195   5.885  0.2889 -0.7741 -0.2475
   67MOL   C17517467   2.873   4.320   6.109 -0.3786  0.3113 -0.8337
   67MOL   H17617468   2.866   3.873   6.112  0.0344  0.3312  0.9640
   67MOL   H17717469   2.911   3.929   5.962  0.0942 -0.4247  0.3293
   67MOL   H17817470   2.906   4.082   6.222  0.2067  0.3196 -0.0551
   67MOL   H17917471   2.955   4.104   5.844 -1.3789 -0.7685 -2.1057
   67MOL   H18017472   2.972   4.281   5.861 -0.1719 -0.4017 -0.0844
   67MOL   H18117473   2.813   4.222   5.848  0.1279  2.0664  2.0510
   67MOL   H18217474   2.966   4.374   6.091 -0.8332  0.8759 -1.5154
   67MOL   H18317475   2.867   4.314   6.218 -2.4812  0.0495 -0.9589
   67MOL   C18417476   2.764   4.401   6.052 -0.4027 -0.0764 -0.4916
   67MOL   C18517477   2.745   4.526   6.142  0.5994  0.6724 -0.0727
   67MOL   C18617478   2.765   4.654   6.112 -0.5106 -0.4542 -0.2574
   67MOL   C18717479   2.805   4.710   5.973  0.4183  0.1717  0.3614
   67MOL   C18817480   2.748   4.758   6.230 -0.5903 -0.0420 -0.0929
   67MOL   H18917481   2.670   4.345   6.054  0.2675 -1.2381 -0.7527
   67MOL   H19017482   2.784   4.426   5.947  1.2762  1.6155  0.2043
   67MOL   H19117483   2.713   4.494   6.240 -0.1670 -1.1672 -0.9005
   67MOL   H19217484   2.842   4.625   5.915  1.3253  0.8806 -0.1107
   67MOL   H19317485   2.893   4.773   5.990  0.9806 -0.5681  0.2273
   67MOL   H19417486   2.720   4.759   5.926 -0.8273 -2.3102 -0.0605
   67MOL   H19517487   2.846   4.806   6.228 -1.4416  1.7614  0.2395
   67MOL   H19617488   2.735   4.704   6.323  1.2002 -0.2312  0.0590
   67MOL   C19717489   2.637   4.865   6.217 -0.2024 -0.3804 -0.6321
   67MOL   C19817490   2.626   4.959   6.335 -0.2196  0.4049 -0.9618
   67MOL   C19917491   2.512   5.016   6.383  0.0283  0.0495 -0.3592
   67MOL   C20017492   2.382   5.021   6.299  0.2372 -0.4764 -0.5091
   67MOL   C20117493   2.499   5.082   6.514  0.1172 -0.8232  0.3448
   67MOL   H20217494   2.549   4.802   6.206  0.2717 -1.1862  0.0934
   67MOL   H20317495   2.648   4.936   6.135 -1.6367 -0.4832 -0.9167
   67MOL   H20417496   2.719   4.957   6.391 -0.2325 -0.6394 -0.9667
   67MOL   H20517497   2.295   4.969   6.339  1.4824 -2.5627 -0.4331
   67MOL   H20617498   2.390   4.979   6.199  0.3202 -0.2935 -0.5793
   67MOL   H20717499   2.350   5.123   6.278 -0.2687 -0.5995 -0.3448
   67MOL   H20817500   2.410   5.047   6.565  0.4048 -0.9063  0.7963
   67MOL   H20917501   2.486   5.188   6.494 -0.8090 -1.0295 -0.1848
   67MOL   C21017502   2.614   5.071   6.611 -0.4362  0.0161 -0.2213
   67MOL   C21117503   2.569   5.100   6.749 -0.0824  0.0503 -0.0791
   67MOL   C21217504   2.582   5.214   6.823  0.4251  0.0975 -1.2149
   67MOL   C21317505   2.627   5.350   6.756 -0.2399  0.2813 -0.3198
   67MOL   C21417506   2.543   5.231   6.969  0.7587 -0.0580 -0.2194
   67MOL   H21517507   2.697   5.140   6.596  1.2001 -1.6120  1.1131
   67MOL   H21617508   2.660   4.973   6.601 -1.6748 -0.4806 -1.1036
   67MOL   H21717509   2.536   5.011   6.801  1.1826  0.8020  2.0626
   67MOL   H21817510   2.717   5.388   6.805  0.5609  0.5437 -1.9755
   67MOL   H21917511   2.555   5.431   6.768  0.1014  0.6368 -0.6497
   67MOL   H22017512   2.657   5.351   6.652  1.5539 -0.6735  0.1781
   67MOL   H22117513   2.631   5.257   7.029  0.4792  0.4225 -0.0133
   67MOL   H22217514   2.510   5.142   7.023  0.4638  1.0592  1.4712
   67MOL   C22317515   2.441   5.344   6.996 -0.2432  0.0876 -0.0676
   67MOL   C22417516   2.378   5.333   7.132 -0.3046  0.7899  0.5893
   67MOL   C22517517   2.301   5.426   7.183  0.0089  0.0154  0.0590
   67MOL   C22617518   2.270   5.555   7.108  0.1548 -0.7263  0.3729
   67MOL   C22717519   2.225   5.423   7.318  0.6236 -0.3559  0.2915
   67MOL   H22817520   2.365   5.340   6.918  0.8028 -0.1070 -1.0831
   67MOL   H22917521   2.495   5.435   6.971  1.0835 -1.2439 -2.2043
   67MOL   H23017522   2.399   5.253   7.202 -2.0295  0.2969  0.5576
   67MOL   H23117523   2.249   5.632   7.183 -1.6301  0.4898 -1.3185
   67MOL   H23217524   2.175   5.540   7.057  0.5119 -0.0639 -0.4923
   67MOL   H23317525   2.346   5.591   7.039  0.0549 -1.3692 -0.0786
   67MOL   H23417526   2.119   5.428   7.291  1.3087  0.0599 -2.4778
   67MOL   H23517527   2.252   5.520   7.361  0.7517 -1.6522  3.2188
   67MOL   C23617528   2.258   5.301   7.406  0.2138  0.3867  0.1808
   67MOL   C23717529   2.174   5.298   7.539 -0.3279 -0.0256  0.1263
   67MOL   C23817530   2.196   5.209   7.640  0.3945 -1.0958 -0.0055
   67MOL   C23917531   2.313   5.109   7.645 -0.1952  0.3428  0.5583
   67MOL   C24017532   2.091   5.174   7.745  1.4047  0.3312 -0.5397
   67MOL   H24117533   2.364   5.301   7.430  0.5542  0.3644 -1.2532
   67MOL   H24217534   2.236   5.208   7.352 -0.3519 -0.2065  1.4038
   67MOL   H24317535   2.092   5.369   7.539 -0.0709  0.2746  1.0393
   67MOL   H24417536   2.385   5.133   7.567  1.4524 -2.3625  1.1979
   67MOL   H24517537   2.283   5.007   7.620  0.1410  0.4881 -0.4414
   67MOL   H24617538   2.367   5.103   7.739  1.0736 -1.1874 -0.2314
   67MOL   H24717539   2.151   5.163   7.835  0.4704 -0.7827 -0.0426
   67MOL   H24817540   2.043   5.078   7.726 -1.4746  1.2582  1.6398
   67MOL   C24917541   1.971   5.280   7.767  0.0345  0.5578  0.5716
   67MOL   C25017542   1.868   5.251   7.876 -0.2481  0.1285  0.1409
   67MOL   C25117543   1.737   5.223   7.869 -0.8499  0.0483  0.3106
   67MOL   C25217544   1.656   5.238   7.745 -0.1458  0.5993 -0.5056
   67MOL   C25317545   1.659   5.216   0.114  0.6582 -0.4190 -0.1840
   67MOL   H25417546   1.918   5.302   7.674 -0.3200  0.5159  0.7625
   67MOL   H25517547   2.004   5.382   7.787 -0.7688  0.5018  2.2155
   67MOL   H25617548   1.920   5.253   0.088 -0.4193 -0.6610  0.2598
   67MOL   H25717549   1.718   5.244   7.656 -0.9037  0.6867 -1.0304
   67MOL   H25817550   1.594   5.327   7.739  0.2073  0.7232 -2.5685
   67MOL   H25917551   1.599   5.146   7.743  0.7019  0.0677 -0.5516
   67MOL   H26017552   1.596   5.304   0.116  0.6871 -0.3749 -1.0244
   67MOL   H26117553   1.714   5.207   0.208 -0.6226  5.4709  1.2993
   67MOL   H26217554   1.589   5.133   0.103 -2.1432  1.9014 -0.2766
   68MOL     C117555   0.053   4.674   3.765  0.2912 -0.5621 -0.0726
   68MOL     C217556   7.825   4.577   3.786  0.8000 -0.1230 -0.1496
   68MOL     C317557   7.778   4.524   3.900  0.6053  0.2185  0.0811
   68MOL     C417558   7.847   4.545   4.039  0.6514  0.0046  0.4959
   68MOL     C517559   7.661   4.432   3.899 -0.7891  0.8963  0.0758
   68MOL     H617560   0.145   4.616   3.754  1.7864  1.8230 -0.6100
   68MOL     H717561   0.036   4.750   3.688 -2.9800  0.0970  1.2452
   68MOL     H817562   7.769   4.562   3.695  0.8261  0.9918 -0.3569
   68MOL     H917563   7.876   4.451   4.086 -0.9825 -0.9817 -0.3973
   68MOL    H1017564   7.779   4.607   4.098 -2.3923  1.2293 -4.0279
   68MOL    H1117565   0.054   4.605   4.029 -0.6629  1.9647  0.1171
   68MOL    H1217566   7.674   4.345   3.964 -0.5126  0.7135 -0.2204
   68MOL    H1317567   7.632   4.405   3.797 -1.7743 -0.5747  0.7224
   68MOL    H1417568   0.068   4.712   3.866 -1.1854  0.3940 -0.1943
   68MOL    C1517569   7.537   4.509   3.952 -0.1247  0.7963 -0.3227
   68MOL    C1617570   7.429   4.400   3.956  0.4700  0.3368 -0.6891
   68MOL    C1717571   7.336   4.373   4.046 -0.6140  0.2647  0.0475
   68MOL    C1817572   7.307   4.454   4.166 -0.4193 -0.0400 -0.3177
   68MOL    C1917573   7.246   4.250   4.033 -0.4416  0.0755  0.5888
   68MOL    H2017574   7.488   4.585   3.890 -1.1173 -0.2096 -0.7945
   68MOL    H2117575   7.561   4.552   4.049  0.2672 -0.8605  0.3340
   68MOL    H2217576   7.436   4.330   3.874 -2.3808 -0.8397 -0.0075
   68MOL    H2317577   7.352   4.405   4.251  0.5825  0.8183 -0.3452
   68MOL    H2417578   7.199   4.469   4.177 -0.7025 -1.7017 -0.7437
   68MOL    H2517579   7.345   4.555   4.153 -0.2192 -0.1890 -0.9246
   68MOL    H2617580   7.205   4.231   4.132  0.9260 -2.3236  0.7522
   68MOL    H2717581   7.300   4.156   4.019 -3.0680 -1.3712 -0.0213
   68MOL    C2817582   7.135   4.263   3.922  0.0305  0.0540 -0.3240
   68MOL    C2917583   7.050   4.388   3.930  0.2517  0.3048  0.0672
   68MOL    C3017584   7.046   4.487   3.834  0.2457 -0.2437  0.5453
   68MOL    C3117585   7.138   4.486   3.707 -0.0203  0.4621 -0.0916
   68MOL    C3217586   6.967   4.615   3.868 -0.4055  0.9607 -0.0555
   68MOL    H3317587   7.071   4.175   3.930 -0.5481  0.6254  1.5621
   68MOL    H3417588   7.181   4.245   3.825 -1.5583 -0.6336 -0.9575
   68MOL    H3517589   6.993   4.408   4.019 -1.8813 -1.1329 -0.9369
   68MOL    H3617590   7.126   4.390   3.657  0.4433  1.3347 -1.9564
   68MOL    H3717591   7.241   4.503   3.737 -0.3697 -1.1759  2.1241
   68MOL    H3817592   7.102   4.554   3.629 -2.3364 -1.4834 -0.7794
   68MOL    H3917593   6.882   4.585   3.930 -2.9216  1.1883 -3.2513
   68MOL    H4017594   6.916   4.630   3.773 -0.8299  1.5746  0.2643
   68MOL    C4117595   7.046   4.736   3.909 -0.3158 -0.7655  0.7807
   68MOL    C4217596   6.959   4.853   3.939  0.3595 -0.0559  0.4055
   68MOL    C4317597   6.936   4.911   4.061  0.1012  0.0512 -0.5196
   68MOL    C4417598   6.991   4.869   4.203 -0.0160 -0.3629  0.7668
   68MOL    C4517599   6.839   5.028   4.075 -0.1829 -0.1378  0.0251
   68MOL    H4617600   7.110   4.775   3.830  0.0483 -0.0386  1.4249
   68MOL    H4717601   7.108   4.712   3.996 -1.1634 -1.4712  1.1985
   68MOL    H4817602   6.900   4.898   3.860 -0.1728 -0.0028  0.8291
   68MOL    H4917603   6.910   4.857   4.275 -1.0871 -1.6725 -0.6253
   68MOL    H5017604   7.060   4.949   4.232  0.7783 -0.6708 -0.2580
   68MOL    H5117605   7.049   4.778   4.190 -1.7209 -1.1840 -1.2834
   68MOL    H5217606   6.752   4.987   4.128 -0.7623 -1.3860 -1.8598
   68MOL    H5317607   6.807   5.055   3.975 -1.5632  0.1409  0.5272
   68MOL    C5417608   6.902   5.146   4.148 -0.7683  1.0078 -0.5354
   68MOL    C5517609   6.799   5.257   4.149  0.7123  0.6799 -0.4499
   68MOL    C5617610   6.701   5.279   4.242 -0.0739 -0.5753  0.7001
   68MOL    C5717611   6.687   5.207   4.378  0.5778 -0.0960 -0.4821
   68MOL    C5817612   6.607   5.397   4.217  0.3588  0.0276  0.0434
   68MOL    H5917613   6.996   5.176   4.101 -2.1790  3.1964 -2.0424
   68MOL    H6017614   6.931   5.141   4.253  1.7171  0.0972 -1.2167
   68MOL    H6117615   6.817   5.311   4.058  0.5704 -0.3597 -1.1011
   68MOL    H6217616   6.734   5.267   4.456  0.9084 -1.1418  0.1327
   68MOL    H6317617   6.728   5.107   4.369 -1.9562 -1.2329  0.0840
   68MOL    H6417618   6.581   5.192   4.399  0.7096  0.8396  0.9653
   68MOL    H6517619   6.506   5.368   4.245  0.8530 -0.5255  1.3088
   68MOL    H6617620   6.614   5.430   4.113 -0.1201  0.1028  0.0337
   68MOL    C6717621   6.652   5.514   4.311 -0.3413 -0.3461  0.9607
   68MOL    C6817622   6.549   5.621   4.309 -0.0779 -0.3632 -0.4724
   68MOL    C6917623   6.574   5.739   4.375  0.1382 -0.0622  0.0881
   68MOL    C7017624   6.697   5.776   4.454  0.0794 -0.7453 -0.2372
   68MOL    C7117625   6.482   5.864   4.361  0.1950 -0.7986  0.7434
   68MOL    H7217626   6.753   5.548   4.288 -0.9941  0.4797 -0.7567
   68MOL    H7317627   6.652   5.475   4.413  3.0850  1.7918  1.8554
   68MOL    H7417628   6.463   5.598   4.248 -1.1204  0.4392  0.6764
   68MOL    H7517629   6.681   5.861   4.520 -1.1751 -0.8753 -0.3544
   68MOL    H7617630   6.767   5.810   4.378 -0.3181  0.0831 -0.2408
   68MOL    H7717631   6.738   5.692   4.510  1.4503 -1.4611 -2.2597
   68MOL    H7817632   6.429   5.888   4.454  3.9066  0.5638  2.6104
   68MOL    H7917633   6.400   5.829   4.299 -1.9150  0.3377  2.8131
   68MOL    C8017634   6.540   5.983   4.287  0.2634  0.1418  0.5503
   68MOL    C8117635   6.562   5.953   4.141  0.2141  0.0267  0.0766
   68MOL    C8217636   6.685   5.952   4.080 -0.4054 -0.2144  0.7664
   68MOL    C8317637   6.810   6.020   4.149  0.9029  0.4682  0.4513
   68MOL    C8417638   6.715   5.889   3.936 -0.1202 -0.6261 -0.0926
   68MOL    H8517639   6.622   6.026   4.343  0.3640  0.7342 -0.0448
   68MOL    H8617640   6.466   6.063   4.289 -0.8870 -0.9232  1.2461
   68MOL    H8717641   6.477   5.910   4.090 -0.4396 -0.0530  1.2165
   68MOL    H8817642   6.879   6.070   4.082  0.0439  2.7165  1.1742
   68MOL    H8917643   6.865   5.951   4.213  0.6872 -1.0866 -1.0268
   68MOL    H9017644   6.780   6.100   4.218  1.8538  0.6927  0.6167
   68MOL    H9117645   6.820   5.865   3.921 -0.8136 -2.2741 -2.4785
   68MOL    H9217646   6.689   5.965   3.862  0.7429  0.1329  0.3777
   68MOL    C9317647   6.634   5.767   3.899 -0.3093 -0.0563  0.1765
   68MOL    C9417648   6.690   5.681   3.786 -0.2859 -0.7160 -0.3802
   68MOL    C9517649   6.637   5.677   3.658  0.9811  0.3709 -1.1292
   68MOL    C9617650   6.503   5.740   3.620  0.5608 -0.3710 -0.6281
   68MOL    C9717651   6.699   5.579   3.558 -0.7429 -0.3697 -0.1520
   68MOL    H9817652   6.528   5.788   3.884 -0.0232  0.2227 -1.4607
   68MOL    H9917653   6.640   5.697   3.982  1.6114  0.7649  0.7500
   68MOL   H10017654   6.773   5.616   3.808  0.7643  0.7584  0.0912
   68MOL   H10117655   6.514   5.848   3.629  1.5498 -0.6408  1.6990
   68MOL   H10217656   6.417   5.707   3.679  0.1687  0.5848 -0.6450
   68MOL   H10317657   6.470   5.712   3.520 -1.4646 -1.4735  0.3157
   68MOL   H10417658   6.801   5.570   3.594 -1.3570 -1.8674  1.2616
   68MOL   H10517659   6.693   5.635   3.464  2.5929  0.3003 -0.0266
   68MOL   C10617660   6.624   5.447   3.545 -0.1719 -0.8020  0.6034
   68MOL   C10717661   6.625   5.365   3.676  0.2877  0.0925 -0.1379
   68MOL   C10817662   6.518   5.332   3.760 -0.7343  0.6227 -0.4217
   68MOL   C10917663   6.376   5.392   3.752  0.3473 -0.3851 -0.1152
   68MOL   C11017664   6.536   5.239   3.877  0.0534 -0.5835 -0.1200
   68MOL   H11117665   6.681   5.387   3.475  1.5841  1.2270  0.2426
   68MOL   H11217666   6.519   5.443   3.515 -0.0884 -0.6294  0.2946
   68MOL   H11317667   6.725   5.325   3.690  0.3338 -0.8580 -2.9534
   68MOL   H11417668   6.302   5.315   3.732 -0.4883  0.6018 -0.8487
   68MOL   H11517669   6.377   5.457   3.665 -1.8112  0.2495  0.2918
   68MOL   H11617670   6.354   5.454   3.839  2.3898  1.4139 -0.8412
   68MOL   H11717671   6.493   5.288   3.965 -1.8656 -0.2346 -1.2382
   68MOL   H11817672   6.643   5.225   3.896  0.3989 -0.0110 -1.5862
   68MOL   C11917673   6.462   5.103   3.858 -1.2658  0.2210  0.3518
   68MOL   C12017674   6.443   5.035   3.986  0.1653 -1.0319  0.0333
   68MOL   C12117675   6.323   5.033   4.056 -0.2851 -0.1757  0.2910
   68MOL   C12217676   6.189   5.099   4.021 -0.3173 -0.9984  0.0653
   68MOL   C12317677   6.323   4.972   4.195 -0.5751 -0.1577  0.0055
   68MOL   H12417678   6.531   5.053   3.791 -0.1357  0.3221  1.4135
   68MOL   H12517679   6.370   5.110   3.801 -0.6906  0.8080 -0.5212
   68MOL   H12617680   6.537   4.996   4.023  0.6392  0.2055  0.1862
   68MOL   H12717681   6.123   5.021   3.982 -1.5959  0.5166 -0.8475
   68MOL   H12817682   6.208   5.165   3.937  0.8764 -1.4953 -0.0739
   68MOL   H12917683   6.142   5.142   4.109 -1.2109 -0.9294 -0.4312
   68MOL   H13017684   6.295   5.055   4.261  1.8704  2.7155 -2.4124
   68MOL   H13117685   6.427   4.946   4.211 -0.8016 -1.2185 -0.2051
   68MOL   C13217686   6.236   4.851   4.194  0.2238 -0.1309  0.4368
   68MOL   C13317687   6.231   4.777   4.327  0.0478  0.2678 -0.7935
   68MOL   C13417688   6.149   4.677   4.369  0.2528 -0.3264  0.0574
   68MOL   C13517689   6.027   4.636   4.286  0.1692  0.2229  0.3797
   68MOL   C13617690   6.166   4.606   4.499  0.6902 -0.2222 -0.2469
   68MOL   H13717691   6.273   4.782   4.119  0.8868  0.2202  0.4402
   68MOL   H13817692   6.135   4.870   4.158  0.4936  0.5395  0.0527
   68MOL   H13917693   6.301   4.803   4.405  0.1841 -1.9423 -0.1573
   68MOL   H14017694   5.996   4.533   4.301  0.0980  0.1099 -0.5504
   68MOL   H14117695   6.046   4.664   4.183 -1.6587  1.6769  0.4025
   68MOL   H14217696   5.939   4.694   4.313  1.6979  2.3852  0.8896
   68MOL   H14317697   6.075   4.601   4.559  1.1394  1.4190  0.6187
   68MOL   H14417698   6.238   4.672   4.547  0.6709  1.0533 -1.9255
   68MOL   C14517699   6.229   4.467   4.479  0.6838 -0.2918  0.2509
   68MOL   C14617700   6.264   4.397   4.609 -0.0016  0.3391 -1.1016
   68MOL   C14717701   6.362   4.305   4.629 -0.0174 -0.0514 -0.4846
   68MOL   C14817702   6.453   4.255   4.528 -0.4759  0.4312  0.7153
   68MOL   C14917703   6.365   4.227   4.756  1.2282 -0.0017  0.2523
   68MOL   H15017704   6.315   4.491   4.416  0.3943  3.3569  1.1370
   68MOL   H15117705   6.168   4.407   4.412  0.9981  0.7013 -0.9536
   68MOL   H15217706   6.198   4.423   4.690  0.9140 -0.4207 -0.1044
   68MOL   H15317707   6.439   4.148   4.515  0.9653  0.1951  1.0292
   68MOL   H15417708   6.555   4.278   4.559  0.0173 -1.8130  0.8071
   68MOL   H15517709   6.450   4.296   4.426 -0.2898 -1.2839  0.0113
   68MOL   H15617710   6.394   4.124   4.736  0.2733  0.3304 -3.0348
   68MOL   H15717711   6.264   4.219   4.797  0.8558 -0.9248 -0.8238
   68MOL   C15817712   6.467   4.294   4.846  0.1455  0.0269 -0.4511
   68MOL   C15917713   6.487   4.200   4.969 -0.4896  0.2944  0.4215
   68MOL   C16017714   6.563   4.095   4.983  0.1207  0.3727  0.5523
   68MOL   C16117715   6.659   4.049   4.876  0.3513  0.0168  0.6056
   68MOL   C16217716   6.579   4.020   5.115 -0.4024  0.7362 -0.0016
   68MOL   H16317717   6.429   4.391   4.878 -0.5432 -0.2508 -0.4102
   68MOL   H16417718   6.564   4.306   4.798  0.2681 -0.1401 -0.2403
   68MOL   H16517719   6.428   4.243   5.049  0.8163  0.0704  1.5179
   68MOL   H16617720   6.677   4.127   4.801  0.9704  0.3210  1.0735
   68MOL   H16717721   6.621   3.958   4.830 -0.4996  0.3673  0.5933
   68MOL   H16817722   6.760   4.027   4.908  0.4172 -2.1534 -0.9720
   68MOL   H16917723   6.556   3.914   5.107  1.4141  0.3576 -0.3438
   68MOL   H17017724   6.496   4.054   5.177 -0.1973  2.5542 -0.6927
   68MOL   C17117725   6.715   4.043   5.187 -0.3802 -0.1153  0.3529
   68MOL   C17217726   6.728   3.980   5.325 -0.9401 -0.1563  0.2323
   68MOL   C17317727   6.685   4.034   5.438  0.0889 -0.4345  0.4643
   68MOL   C17417728   6.626   4.170   5.451  0.0143 -0.8371 -0.5052
   68MOL   C17517729   6.688   3.957   5.569  0.2862 -0.7546  0.4203
   68MOL   H17617730   6.725   4.152   5.185 -3.0158  0.1504 -0.2734
   68MOL   H17717731   6.802   4.002   5.136 -0.1770  1.2447 -0.4119
   68MOL   H17817732   6.771   3.881   5.333  0.8733  0.6918  1.1345
   68MOL   H17917733   6.536   4.164   5.513 -0.9047 -0.7227 -1.7922
   68MOL   H18017734   6.591   4.227   5.365  2.2715  2.9146  0.9464
   68MOL   H18117735   6.701   4.225   5.507 -1.1199  2.4362 -2.0748
   68MOL   H18217736   6.717   4.020   5.653 -2.3095 -0.2850  1.0013
   68MOL   H18317737   6.763   3.881   5.547  1.0184  0.5992 -1.9146
   68MOL   C18417738   6.554   3.893   5.595  0.0527  0.3318  0.4373
   68MOL   C18517739   6.552   3.838   5.738  0.7698  0.0209 -0.1633
   68MOL   C18617740   6.539   3.706   5.767 -0.2904  0.3422 -0.6825
   68MOL   C18717741   6.534   3.590   5.666 -0.3268 -0.3882  0.5712
   68MOL   C18817742   6.533   3.657   5.910  0.6482 -0.0550  0.5363
   68MOL   H18917743   6.539   3.815   5.521  0.8807  1.0128 -0.4672
   68MOL   H19017744   6.463   3.953   5.586  0.2829  0.8617  1.5146
   68MOL   H19117745   6.554   3.907   5.821 -1.1040 -0.1938  0.0841
   68MOL   H19217746   6.578   3.620   5.571 -4.1459  0.7272 -0.9420
   68MOL   H19317747   6.427   3.581   5.649 -0.3345  1.0265 -0.2069
   68MOL   H19417748   6.576   3.497   5.703  1.0620 -0.0635 -0.1283
   68MOL   H19517749   6.524   3.738   5.982  3.7285  0.3468  0.5287
   68MOL   H19617750   6.627   3.604   5.927  0.8830 -0.3816 -1.6391
   68MOL   C19717751   6.395   3.579   5.932 -0.4062 -0.0641 -0.0853
   68MOL   C19817752   6.391   3.540   6.076  0.1729  0.1662  0.4381
   68MOL   C19917753   6.292   3.569   6.158  0.7816  0.6045 -0.1708
   68MOL   C20017754   6.165   3.648   6.128  0.0040  0.0407  0.2390
   68MOL   C20117755   6.287   3.493   6.296  0.3561  0.6828 -0.1809
   68MOL   H20217756   6.374   3.490   5.873  0.7190 -1.1239  1.0885
   68MOL   H20317757   6.311   3.643   5.907 -1.2250 -1.4408 -0.8685
   68MOL   H20417758   6.477   3.483   6.107  0.4779  0.7336  0.6421
   68MOL   H20517759   6.110   3.599   6.048  2.0882 -1.3850 -0.3511
   68MOL   H20617760   6.190   3.753   6.109  1.3623 -0.1005  1.1375
   68MOL   H20717761   6.102   3.655   6.216  3.3691  0.6749  2.6883
   68MOL   H20817762   6.259   3.564   6.373 -1.8958 -0.9584  0.5738
   68MOL   H20917763   6.386   3.453   6.319 -0.6931 -0.5782  2.2548
   68MOL   C21017764   6.176   3.385   6.289  0.2008  0.4604 -0.6183
   68MOL   C21117765   6.202   3.280   6.399  0.7617 -0.5013 -0.7634
   68MOL   C21217766   6.115   3.234   6.495  0.3321  0.0398 -0.1824
   68MOL   C21317767   5.974   3.290   6.515  0.2323  0.3560 -0.1406
   68MOL   C21417768   6.161   3.129   6.595  0.1216 -0.0976  0.6945
   68MOL   H21517769   6.189   3.332   6.194 -1.4401 -0.6065 -0.2744
   68MOL   H21617770   6.073   3.419   6.290 -0.1612 -0.5918 -1.1800
   68MOL   H21717771   6.299   3.234   6.391  0.7323 -0.7778  0.3052
   68MOL   H21817772   5.890   3.221   6.505 -0.6334  1.5070 -1.0411
   68MOL   H21917773   5.948   3.384   6.466 -0.9224 -0.1544 -0.5370
   68MOL   H22017774   5.980   3.322   6.619 -1.0662 -2.9604  1.0250
   68MOL   H22117775   6.128   3.159   6.694 -0.6854  1.5527 -0.0613
   68MOL   H22217776   6.270   3.130   6.583 -0.2198  2.1644 -2.9785
   68MOL   C22317777   6.126   2.985   6.549  0.5343 -0.5018  0.2882
   68MOL   C22417778   6.206   2.930   6.433 -0.5953  0.2083  0.5549
   68MOL   C22517779   6.329   2.873   6.438  0.2955  0.1813  0.2679
   68MOL   C22617780   6.417   2.875   6.562 -0.0537  0.2990  0.1115
   68MOL   C22717781   6.384   2.811   6.309 -0.4153  0.2103 -0.0658
   68MOL   H22817782   6.020   2.987   6.524  0.1568 -0.1139  1.8182
   68MOL   H22917783   6.139   2.919   6.635 -0.5092  1.4567  2.0282
   68MOL   H23017784   6.167   2.943   6.333 -0.0747  2.5705  0.6439
   68MOL   H23117785   6.439   2.777   6.605 -1.0569 -0.1243 -0.3214
   68MOL   H23217786   6.371   2.933   6.642 -2.2213 -0.3296 -0.6501
   68MOL   H23317787   6.509   2.921   6.526 -0.7900 -0.1993 -2.4996
   68MOL   H23417788   6.310   2.795   6.231  0.3469 -3.7664 -0.0827
   68MOL   H23517789   6.431   2.715   6.330  1.0732  0.7204 -1.0433
   68MOL   C23617790   6.485   2.898   6.237 -0.1295  0.1828 -0.4941
   68MOL   C23717791   6.505   2.846   6.097 -0.0406  0.1862 -0.3476
   68MOL   C23817792   6.450   2.881   5.980  0.4820 -0.2370 -0.2973
   68MOL   C23917793   6.368   3.007   5.960  0.3554  0.3546 -0.7405
   68MOL   C24017794   6.488   2.817   5.850  0.6273  0.2032  0.0357
   68MOL   H24117795   6.577   2.894   6.296  0.2366 -1.0157 -1.1215
   68MOL   H24217796   6.447   3.000   6.236  0.4785  0.3976 -2.4571
   68MOL   H24317797   6.576   2.765   6.087  1.6595  1.5185  0.4930
   68MOL   H24417798   6.407   3.071   5.882 -0.0261  0.4345 -0.8685
   68MOL   H24517799   6.357   3.070   6.048 -1.1810 -0.0845 -0.5983
   68MOL   H24617800   6.269   2.976   5.924  0.7070 -1.0189 -0.5512
   68MOL   H24717801   6.566   2.742   5.857  0.3412 -0.2556 -1.3723
   68MOL   H24817802   6.532   2.897   5.789  0.2724  0.3167 -0.0756
   68MOL   C24917803   6.375   2.746   5.768 -0.1790  0.6893  0.1687
   68MOL   C25017804   6.441   2.704   5.640 -0.4905  0.1347  0.1029
   68MOL   C25117805   6.407   2.731   5.513  0.0334  0.2609  0.7820
   68MOL   C25217806   6.295   2.826   5.484 -0.5048  0.3534 -0.2263
   68MOL   C25317807   6.471   2.666   5.388  0.3479 -0.3511  0.4528
   68MOL   H25417808   6.293   2.816   5.750 -1.6747 -1.5981 -2.1397
   68MOL   H25517809   6.330   2.665   5.826  1.3937 -1.7023 -1.8738
   68MOL   H25617810   6.522   2.634   5.656  0.0417  0.8147  0.4130
   68MOL   H25717811   6.209   2.777   5.439  0.9959 -1.2069 -1.5104
   68MOL   H25817812   6.331   2.903   5.416  0.7504  1.3712  1.5298
   68MOL   H25917813   6.258   2.881   5.570  0.3960  1.3480 -0.4641
   68MOL   H26017814   6.447   2.560   5.394 -0.0919 -0.1656  2.0655
   68MOL   H26117815   6.578   2.673   5.372  0.3910  1.0009  1.2822
   68MOL   H26217816   6.412   2.701   5.303  2.6790  1.1602 -0.5900
   69MOL     C117817   2.880   6.699   1.865  0.2050  0.4598 -0.1582
   69MOL     C217818   2.875   6.645   1.720 -0.3851  1.0522 -0.0026
   69MOL     C317819   2.894   6.720   1.611 -0.5771  0.2777 -0.2465
   69MOL     C417820   2.911   6.871   1.608 -0.0344  0.2398  1.0907
   69MOL     C517821   2.905   6.653   1.470 -1.2028  0.1468 -0.3375
   69MOL     H617822   2.807   6.779   1.878  0.2719  0.5293 -0.2175
   69MOL     H717823   2.858   6.629   1.946 -1.1094  0.2921 -0.6404
   69MOL     H817824   2.861   6.539   1.707 -3.0393  1.4747 -1.0416
   69MOL     H917825   2.874   6.910   1.514 -2.7498 -3.7613  0.3513
   69MOL    H1017826   3.017   6.892   1.614  0.3601 -1.6344  0.9946
   69MOL    H1117827   2.857   6.911   1.694 -0.2085 -1.9250  2.0298
   69MOL    H1217828   2.923   6.545   1.473  0.0544  0.3121 -1.1346
   69MOL    H1317829   2.998   6.688   1.423  0.2838 -1.3236  1.4535
   69MOL    H1417830   2.973   6.754   1.876 -0.5975  1.5486  1.3835
   69MOL    C1517831   2.778   6.689   1.388  0.7162 -0.2815  0.0081
   69MOL    C1617832   2.765   6.599   1.261  0.0716 -0.1315  0.2626
   69MOL    C1717833   2.656   6.530   1.220 -0.8961 -0.6288 -0.3717
   69MOL    C1817834   2.517   6.538   1.284 -0.4265  0.3549  0.0465
   69MOL    C1917835   2.648   6.449   1.095 -0.1907  0.3371 -0.4183
   69MOL    H2017836   2.768   6.795   1.362 -0.8488  0.0799  1.9483
   69MOL    H2117837   2.698   6.680   1.462  2.0669  3.3820  2.0638
   69MOL    H2217838   2.856   6.596   1.203 -0.1676  0.3487 -0.1418
   69MOL    H2317839   2.461   6.445   1.273 -1.5190  0.8223  1.4032
   69MOL    H2417840   2.469   6.604   1.213  2.3258  0.6485 -1.6074
   69MOL    H2517841   2.508   6.569   1.388 -2.8148 -1.8373  0.5702
   69MOL    H2617842   2.739   6.463   1.036  1.6043 -1.7530  1.7565
   69MOL    H2717843   2.559   6.486   1.044  0.5226  1.9747 -0.5155
   69MOL    C2817844   2.628   6.296   1.122  0.1644 -0.1202 -0.0147
   69MOL    C2917845   2.668   6.214   0.999  0.2739  0.3925 -0.3127
   69MOL    C3017846   2.775   6.141   0.968 -0.7715 -0.1667  0.4484
   69MOL    C3117847   2.891   6.116   1.062 -0.1775 -0.3750 -0.0642
   69MOL    C3217848   2.788   6.074   0.837  0.9481 -0.7433 -0.1240
   69MOL    H3317849   2.524   6.272   1.145  0.8887 -1.7030  1.6947
   69MOL    H3417850   2.697   6.285   1.206 -0.7771  0.3521  0.8442
   69MOL    H3517851   2.597   6.233   0.919 -0.4121  0.9725  0.4283
   69MOL    H3617852   2.885   6.175   1.153 -2.3631 -0.5554 -0.0775
   69MOL    H3717853   2.990   6.136   1.019 -0.6879 -1.8368 -1.9818
   69MOL    H3817854   2.894   6.010   1.087  0.4855 -0.5290 -0.7531
   69MOL    H3917855   2.693   6.054   0.789 -0.1233 -0.8191  1.9616
   69MOL    H4017856   2.845   5.984   0.858 -0.5013 -1.4843  0.6856
   69MOL    C4117857   2.881   6.159   0.745 -0.2130  0.0140  0.6670
   69MOL    C4217858   2.961   6.074   0.649 -0.4884  0.0538 -0.2128
   69MOL    C4317859   2.935   6.055   0.519 -0.0674 -0.1501 -0.1862
   69MOL    C4417860   2.810   6.115   0.456 -0.3057  0.2404 -0.1644
   69MOL    C4517861   3.021   5.962   0.436  0.2095  0.2102  0.1664
   69MOL    H4617862   2.959   6.209   0.802  1.0925 -1.3042  0.0933
   69MOL    H4717863   2.818   6.230   0.692 -2.2762 -1.5408  0.9795
   69MOL    H4817864   3.051   6.025   0.683  1.1586  2.8996 -0.3412
   69MOL    H4917865   2.734   6.134   0.532  1.1992 -1.7499  1.8978
   69MOL    H5017866   2.770   6.032   0.397  1.9421 -1.2218  0.3101
   69MOL    H5117867   2.831   6.203   0.395  0.3701  0.2535  0.0875
   69MOL    H5217868   3.121   5.952   0.479 -0.1983  0.3629  1.1769
   69MOL    H5317869   3.039   6.004   0.337 -0.6268  0.9120  0.3065
   69MOL    C5417870   2.953   5.826   0.410  0.0635 -0.1064 -0.6714
   69MOL    C5517871   2.900   5.762   0.538  0.0470  0.6726 -0.0919
   69MOL    C5617872   2.927   5.638   0.586 -0.6442  0.3492  0.0631
   69MOL    C5717873   3.019   5.530   0.515  0.0773 -0.1581 -0.1820
   69MOL    C5817874   2.864   5.595   0.720 -0.0295  0.6946  0.1820
   69MOL    H5917875   3.031   5.764   0.367  1.4361  0.6009  0.7412
   69MOL    H6017876   2.880   5.828   0.329 -0.5259 -1.4502 -0.1899
   69MOL    H6117877   2.833   5.820   0.601 -0.4337  0.0430 -0.0223
   69MOL    H6217878   3.040   5.447   0.582 -1.7226 -1.1990 -0.8829
   69MOL    H6317879   3.113   5.573   0.479 -0.6134 -0.0387 -1.9264
   69MOL    H6417880   2.964   5.499   0.426  0.1954  0.5520 -0.5080
   69MOL    H6517881   2.809   5.502   0.701  2.5910 -1.4554  2.5992
   69MOL    H6617882   2.783   5.661   0.748  0.1345  1.3049 -0.7534
   69MOL    C6717883   2.967   5.573   0.830 -0.2809 -0.4500 -1.4784
   69MOL    C6817884   3.033   5.705   0.871 -0.0046 -0.3341  0.0225
   69MOL    C6917885   3.162   5.744   0.853  0.0289  0.6784 -0.8183
   69MOL    C7017886   3.266   5.663   0.772 -0.1437 -0.1776  0.2456
   69MOL    C7117887   3.210   5.874   0.922 -0.7505 -0.4995  0.3172
   69MOL    H7217888   3.045   5.508   0.789 -2.0715 -3.1366 -0.7599
   69MOL    H7317889   2.929   5.520   0.918 -1.0027  1.4840 -0.6038
   69MOL    H7417890   2.972   5.774   0.928 -3.0092 -1.1020 -2.0906
   69MOL    H7517891   3.365   5.668   0.818  0.3653 -0.0556 -0.8388
   69MOL    H7617892   3.278   5.705   0.672 -4.0667 -0.7056 -0.5368
   69MOL    H7717893   3.247   5.557   0.754 -1.2615  0.2949 -1.4673
   69MOL    H7817894   3.255   5.833   1.012 -1.5909 -0.0863  0.9300
   69MOL    H7917895   3.122   5.937   0.934 -1.1671 -1.0438  0.1265
   69MOL    C8017896   3.315   5.947   0.839  0.1647  0.6286  0.0376
   69MOL    C8117897   3.361   6.080   0.897  0.3981 -0.4469  0.2030
   69MOL    C8217898   3.350   6.204   0.850 -0.6703  0.2540 -0.4367
   69MOL    C8317899   3.297   6.235   0.711 -0.0285  0.2760 -0.3795
   69MOL    C8417900   3.400   6.321   0.934 -0.0995  0.6605 -0.1831
   69MOL    H8517901   3.273   5.958   0.740  1.5436  0.6880 -0.5559
   69MOL    H8617902   3.403   5.883   0.829 -1.2879 -1.2802 -0.6964
   69MOL    H8717903   3.417   6.071   0.989 -0.0348  0.7757  0.5905
   69MOL    H8817904   3.252   6.158   0.649 -0.0539  1.0370 -1.3229
   69MOL    H8917905   3.383   6.280   0.660  1.2957 -1.3792  0.3514
   69MOL    H9017906   3.222   6.313   0.719  0.6339  0.9608 -0.6698
   69MOL    H9117907   3.457   6.391   0.872  2.0674 -0.6777  0.2323
   69MOL    H9217908   3.476   6.283   1.003  1.5455 -3.9712 -4.2236
   69MOL    C9317909   3.281   6.389   1.010  0.2536 -0.3930  0.4652
   69MOL    C9417910   3.334   6.465   1.129  0.0700  0.5220 -0.1591
   69MOL    C9517911   3.329   6.416   1.257  0.3984  0.0739  0.1933
   69MOL    C9617912   3.279   6.279   1.289  0.4909 -0.2721 -0.3055
   69MOL    C9717913   3.380   6.503   1.371 -0.6214 -0.0083 -0.2217
   69MOL    H9817914   3.199   6.323   1.040  2.7081 -5.0931 -2.5075
   69MOL    H9917915   3.227   6.449   0.938 -1.3283 -0.3355  1.6533
   69MOL   H10017916   3.389   6.556   1.115 -0.0792  0.4936 -0.9720
   69MOL   H10117917   3.297   6.250   1.393 -0.3071  0.7238  0.1224
   69MOL   H10217918   3.318   6.197   1.229 -0.4214 -1.7919  1.1189
   69MOL   H10317919   3.170   6.274   1.282  0.4297  0.8794 -0.2275
   69MOL   H10417920   3.296   6.517   1.439 -0.0540  0.8553  0.3028
   69MOL   H10517921   3.408   6.599   1.329 -3.0835  1.1041  0.5646
   69MOL   C10617922   3.507   6.463   1.449  0.0461 -1.1045  0.3203
   69MOL   C10717923   3.624   6.455   1.351 -0.1795  0.0301  0.1638
   69MOL   C10817924   3.714   6.354   1.332 -0.1097  0.3290  0.0039
   69MOL   C10917925   3.702   6.233   1.418  0.3478  0.9062 -0.1400
   69MOL   C11017926   3.811   6.355   1.217  0.0897  0.3684 -0.1991
   69MOL   H11117927   3.496   6.367   1.500 -0.9740 -0.3715  1.5294
   69MOL   H11217928   3.547   6.534   1.521 -0.7142 -0.2215 -0.1043
   69MOL   H11317929   3.635   6.539   1.285 -0.0566  0.1213  0.2986
   69MOL   H11417930   3.786   6.166   1.405 -1.2056 -0.9192 -1.1277
   69MOL   H11517931   3.616   6.168   1.400 -1.2489  2.9589 -0.1027
   69MOL   H11617932   3.690   6.260   1.523  2.1903 -1.7221  0.7778
   69MOL   H11717933   3.790   6.429   1.139 -0.2993  1.7494  1.1772
   69MOL   H11817934   3.795   6.259   1.168  1.8024 -0.3450  0.5864
   69MOL   C11917935   3.957   6.383   1.248 -0.1439 -0.3303 -0.8556
   69MOL   C12017936   4.035   6.359   1.122 -0.1710  0.4885 -0.3025
   69MOL   C12117937   4.088   6.451   1.038  0.4226  0.5774 -0.2099
   69MOL   C12217938   4.062   6.596   1.056  0.0654 -0.5278 -0.3871
   69MOL   C12317939   4.174   6.401   0.925  0.4358 -0.3513 -0.2582
   69MOL   H12417940   4.008   6.320   1.321  0.5751  1.2490  0.0259
   69MOL   H12517941   3.961   6.484   1.288 -0.5508 -0.2470 -1.0272
   69MOL   H12617942   4.054   6.255   1.097  0.8008  0.4662  0.4882
   69MOL   H12717943   4.043   6.646   0.961 -0.4150 -0.3647 -0.2075
   69MOL   H12817944   4.156   6.630   1.098  0.4603 -2.9933  0.8217
   69MOL   H12917945   3.978   6.630   1.117  0.7807 -0.9502  0.8574
   69MOL   H13017946   4.123   6.437   0.835 -0.3157  1.3308  0.8129
   69MOL   H13117947   4.158   6.297   0.896 -2.3997  0.4611 -1.8351
   69MOL   C13217948   4.316   6.458   0.937 -0.5069  0.0260  0.6746
   69MOL   C13317949   4.414   6.432   0.829  0.7680  0.1244 -0.5961
   69MOL   C13417950   4.529   6.502   0.803  0.1571  0.2531 -1.1520
   69MOL   C13517951   4.568   6.630   0.872  0.0743 -0.4785 -0.4783
   69MOL   C13617952   4.618   6.452   0.692 -0.0408  0.7034 -0.1947
   69MOL   H13717953   4.352   6.413   1.029  0.4586 -1.0395 -0.2173
   69MOL   H13817954   4.310   6.566   0.955 -0.2400  0.0012  0.9159
   69MOL   H13917955   4.392   6.345   0.769 -0.9508 -1.3804  2.1131
   69MOL   H14017956   4.498   6.653   0.952  0.1347 -1.2516 -0.1918
   69MOL   H14117957   4.564   6.712   0.800 -0.1145 -0.6185 -0.6309
   69MOL   H14217958   4.668   6.618   0.913 -0.1983  2.1149  1.0188
   69MOL   H14317959   4.600   6.348   0.663  3.3990 -0.4718  1.6644
   69MOL   H14417960   4.720   6.450   0.730 -0.2516  3.3195  0.5870
   69MOL   C14517961   4.616   6.542   0.574  0.3590 -0.4594 -0.1119
   69MOL   C14617962   4.701   6.486   0.460  0.2850  0.1155  0.7853
   69MOL   C14717963   4.829   6.531   0.437 -0.0476  0.4580 -0.3852
   69MOL   C14817964   4.898   6.647   0.515 -0.3987  0.4287  0.0365
   69MOL   C14917965   4.909   6.477   0.320  0.2702 -0.2302 -0.4906
   69MOL   H15017966   4.625   6.648   0.600 -1.4063 -0.0792 -0.9515
   69MOL   H15117967   4.514   6.553   0.536  0.7134 -0.4220 -1.0563
   69MOL   H15217968   4.650   6.400   0.420 -0.5070  0.9883 -0.0824
   69MOL   H15317969   4.895   6.736   0.452  0.0591  0.0845 -0.4698
   69MOL   H15417970   5.006   6.633   0.522 -0.5495 -1.0130 -0.4321
   69MOL   H15517971   4.852   6.686   0.606  1.3480 -1.9078  1.9878
   69MOL   H15617972   4.990   6.544   0.290  1.6979 -2.2376 -1.1919
   69MOL   H15717973   4.836   6.465   0.240 -1.5873  2.7109  0.6759
   69MOL   C15817974   4.979   6.349   0.361 -0.1384 -0.1033  0.6786
   69MOL   C15917975   4.980   6.238   0.258  0.1348  0.7053 -0.2533
   69MOL   C16017976   5.031   6.116   0.272 -0.4503 -0.6540  0.0147
   69MOL   C16117977   5.083   6.071   0.407 -0.1379  0.0314  0.9109
   69MOL   C16217978   5.044   6.014   0.156 -0.5900  0.1888 -0.2203
   69MOL   H16317979   4.910   6.307   0.434 -3.5273 -1.4320 -3.1226
   69MOL   H16417980   5.074   6.369   0.410  1.0789 -0.5616 -1.4144
   69MOL   H16517981   4.938   6.255   0.160 -0.6528 -0.6140 -0.1623
   69MOL   H16617982   5.192   6.066   0.396 -0.3132 -0.7392 -0.6629
   69MOL   H16717983   5.047   5.970   0.425  0.8892 -0.7592 -1.2722
   69MOL   H16817984   5.063   6.139   0.489 -0.9582  1.9113 -0.8034
   69MOL   H16917985   5.134   5.957   0.179  0.1419  1.6935  0.6680
   69MOL   H17017986   5.072   6.072   0.068  1.9935 -0.7842 -0.0990
   69MOL   C17117987   4.931   5.911   0.151 -0.2935 -0.3086 -0.1944
   69MOL   C17217988   4.793   5.973   0.116  0.1867  0.2023  0.4322
   69MOL   C17317989   4.731   5.977   7.880 -0.5747  0.2593  0.4434
   69MOL   C17417990   4.779   5.890   7.757  0.6175 -0.0908  0.1063
   69MOL   C17517991   4.591   6.033   7.856 -0.1326 -0.7774  0.5548
   69MOL   H17617992   4.920   5.857   0.245 -1.6599  0.9041  0.3647
   69MOL   H17717993   4.964   5.837   0.079  1.4290  1.0369 -0.8533
   69MOL   H17817994   4.743   6.020   0.200 -0.1425 -2.2534  1.6550
   69MOL   H17917995   4.884   5.864   7.768  0.6865  0.5843  1.1032
   69MOL   H18017996   4.772   5.959   7.672  0.9758 -1.4195 -1.0210
   69MOL   H18117997   4.726   5.795   7.750  0.1966  0.2984 -2.8371
   69MOL   H18217998   4.521   5.952   7.837 -0.4461 -0.2785 -0.4457
   69MOL   H18317999   4.589   6.090   7.763  1.6127 -0.6866  0.5530
   69MOL   C18418000   4.535   6.129   0.081 -0.2095  0.3687 -0.3174
   69MOL   C18518001   4.407   6.189   0.037 -0.0988 -0.2408 -0.4941
   69MOL   C18618002   4.337   6.289   0.100  0.1752 -0.2028  0.3473
   69MOL   C18718003   4.392   6.368   0.221 -0.0395  0.0851  0.1253
   69MOL   C18818004   4.197   6.327   0.063  0.5368  0.3590  0.0488
   69MOL   H18918005   4.601   6.212   0.106  0.0771 -0.0034  0.1749
   69MOL   H19018006   4.510   6.076   0.173  1.2669 -1.7279 -1.0733
   69MOL   H19118007   4.356   6.145   7.836 -2.0589 -0.2222  0.6568
   69MOL   H19218008   4.398   6.476   0.211  1.1986 -0.0559 -0.7873
   69MOL   H19318009   4.491   6.333   0.250  0.2621  0.8605  0.0479
   69MOL   H19418010   4.329   6.353   0.308 -0.1155 -2.5868 -0.3598
   69MOL   H19518011   4.132   6.337   0.150  0.4774  1.2117 -0.0899
   69MOL   H19618012   4.160   6.236   0.017 -0.6953  0.2870  1.1590
   69MOL   C19718013   4.199   6.443   7.843 -0.5471  0.3160  0.5184
   69MOL   C19818014   4.064   6.450   7.768  0.2084 -0.0443  0.2357
   69MOL   C19918015   4.039   6.400   7.643  0.0120  0.4958  0.0528
   69MOL   C20018016   4.131   6.313   7.563  0.5358  0.0184  0.0915
   69MOL   C20118017   3.919   6.447   7.568  0.2343  0.1538 -0.3756
   69MOL   H20218018   4.276   6.411   7.773 -0.5155  0.0612  0.6705
   69MOL   H20318019   4.231   6.535   0.010 -0.6372 -0.4405  2.0121
   69MOL   H20418020   3.992   6.515   7.816 -0.9668 -1.2082  0.0782
   69MOL   H20518021   4.082   6.288   7.469  0.4472  0.5575 -0.0104
   69MOL   H20618022   4.141   6.219   7.617  1.8176 -1.5060 -2.7156
   69MOL   H20718023   4.226   6.365   7.551  1.0400 -1.2097 -1.3333
   69MOL   H20818024   3.854   6.507   7.632 -0.4301 -0.5202 -0.4123
   69MOL   H20918025   3.850   6.364   7.551 -0.2353  0.4999 -0.1887
   69MOL   C21018026   3.946   6.544   7.454 -0.0204 -0.4864  0.0096
   69MOL   C21118027   3.825   6.616   7.399  0.2693  0.5099 -0.0473
   69MOL   C21218028   3.821   6.739   7.344 -0.5870 -0.3144 -0.1130
   69MOL   C21318029   3.937   6.837   7.323  0.4201  0.3355  0.3235
   69MOL   C21418030   3.689   6.785   7.273 -0.1028 -0.5196  0.1345
   69MOL   H21518031   4.001   6.502   7.369 -1.2417 -2.6456  0.2596
   69MOL   H21618032   4.009   6.617   7.505 -0.8052 -0.3183  0.7535
   69MOL   H21718033   3.738   6.552   7.403  0.0211  0.9392  2.0071
   69MOL   H21818034   3.916   6.935   7.366 -1.0317 -0.5703  1.7538
   69MOL   H21918035   3.961   6.828   7.217  1.3072 -0.6938  0.6046
   69MOL   H22018036   4.026   6.798   7.371 -0.2311 -2.9972 -0.9690
   69MOL   H22118037   3.616   6.705   7.281  0.5273 -1.0648  0.5047
   69MOL   H22218038   3.712   6.784   7.166  1.3833 -2.1395  0.4464
   69MOL   C22318039   3.636   6.910   7.330  0.8946  0.2185 -0.5506
   69MOL   C22418040   3.498   6.959   7.281 -0.0794 -0.5321  0.4405
   69MOL   C22518041   3.399   7.021   7.350  0.6962 -0.9543  0.9375
   69MOL   C22618042   3.401   7.047   7.500 -0.2581 -0.1414 -1.2537
   69MOL   C22718043   3.265   7.057   7.280 -0.3140  0.3273  0.4000
   69MOL   H22818044   3.697   6.993   7.296  0.1801  1.1196  0.3394
   69MOL   H22918045   3.648   6.897   7.437  3.2430 -0.8921 -0.9208
   69MOL   H23018046   3.483   6.947   7.175  0.6567 -0.5464  0.3313
   69MOL   H23118047   3.329   6.989   7.558 -1.8087  1.3839 -1.6109
   69MOL   H23218048   3.377   7.151   7.523 -0.2272 -0.0913 -1.4499
   69MOL   H23318049   3.499   7.033   7.545 -1.5158 -2.7094  0.8333
   69MOL   H23418050   3.186   7.031   7.351  0.1163  1.4499  1.2959
   69MOL   H23518051   3.261   7.009   7.182  2.1402  0.9865 -0.0620
   69MOL   C23618052   3.257   7.205   7.237  0.3808 -0.1918 -0.9131
   69MOL   C23718053   3.125   7.225   7.175 -0.2059  0.6834 -0.1818
   69MOL   C23818054   3.006   7.248   7.243 -0.1020  0.4752  0.5055
   69MOL   C23918055   2.996   7.297   7.383  0.4131 -0.4909  0.4293
   69MOL   C24018056   2.873   7.254   7.161 -0.4017 -0.4858  0.0182
   69MOL   H24118057   3.338   7.230   7.168 -0.8500  1.4523 -1.7762
   69MOL   H24218058   3.247   7.274   7.320  0.6171 -1.0184 -0.1788
   69MOL   H24318059   3.121   7.202   7.069  0.3625 -1.2233  0.1932
   69MOL   H24418060   3.000   7.406   7.380 -4.0389 -0.1634  2.5443
   69MOL   H24518061   3.071   7.249   7.447  1.7669  1.0513  0.0391
   69MOL   H24618062   2.905   7.267   7.434 -0.4750  0.1356 -0.7620
   69MOL   H24718063   2.802   7.184   7.204  0.6934 -1.3806  0.4014
   69MOL   H24818064   2.899   7.220   7.060  1.3405  0.0336  0.2652
   69MOL   C24918065   2.808   7.393   7.164  0.6834 -0.7227  0.3862
   69MOL   C25018066   2.693   7.400   7.070  0.5702  0.1569 -0.6504
   69MOL   C25118067   2.629   7.504   7.020 -0.4167  0.4143 -0.5507
   69MOL   C25218068   2.662   7.644   7.053  0.3856  0.2529  0.5257
   69MOL   C25318069   2.503   7.489   6.944 -0.2665 -0.1717 -0.2595
   69MOL   H25418070   2.886   7.465   7.141 -0.6799  0.0599 -2.0154
   69MOL   H25518071   2.778   7.413   7.267 -1.0691  1.2374 -0.4612
   69MOL   H25618072   2.657   7.301   7.047 -0.7950  0.3931  0.4130
   69MOL   H25718073   2.645   7.712   6.969 -1.1632 -0.4142  0.2847
   69MOL   H25818074   2.764   7.649   7.092  0.1181 -0.5328  1.3246
   69MOL   H25918075   2.596   7.676   7.133 -0.3087 -0.6421  0.3099
   69MOL   H26018076   2.462   7.388   6.942  0.0039 -0.2892  0.1171
   69MOL   H26118077   2.525   7.511   6.840 -0.8543 -3.4413 -1.1249
   69MOL   H26218078   2.431   7.566   6.973  0.3407  0.8479 -1.4331
   70MOL     C118079   6.729   3.881   2.341  0.1716  0.0255  0.2552
   70MOL     C218080   6.666   3.744   2.311 -0.2931 -0.6233  0.0298
   70MOL     C318081   6.687   3.624   2.368 -0.0548 -0.3272 -0.8700
   70MOL     C418082   6.799   3.612   2.470  0.4515 -0.0254  0.1092
   70MOL     C518083   6.614   3.498   2.317 -0.6737  0.2664 -0.4228
   70MOL     H618084   6.786   3.889   2.434 -3.1284 -2.7664  2.6271
   70MOL     H718085   6.791   3.897   2.253 -0.2015  0.7422  0.1147
   70MOL     H818086   6.595   3.758   2.231 -0.7222 -1.4778  0.2544
   70MOL     H918087   6.895   3.606   2.418  0.5052  0.1936  0.1829
   70MOL    H1018088   6.795   3.519   2.527 -0.2414  0.5742  1.0419
   70MOL    H1118089   6.806   3.700   2.534  1.7786  3.1910 -4.1697
   70MOL    H1218090   6.547   3.522   2.235 -1.8812 -0.1271  0.4342
   70MOL    H1318091   6.545   3.458   2.391  0.6377  0.2291  0.8111
   70MOL    H1418092   6.652   3.958   2.340 -0.8556 -0.9138  3.4646
   70MOL    C1518093   6.700   3.380   2.276  0.5794 -0.7544 -0.1577
   70MOL    C1618094   6.618   3.258   2.254 -0.5060  0.0324  0.1236
   70MOL    C1718095   6.618   3.175   2.149 -0.2297 -0.3775 -0.1980
   70MOL    C1818096   6.714   3.186   2.034 -0.1354  0.2745 -0.0382
   70MOL    C1918097   6.529   3.048   2.141  0.7306 -0.1697 -0.1463
   70MOL    H2018098   6.769   3.351   2.354  0.4841 -2.1264 -0.5587
   70MOL    H2118099   6.760   3.404   2.188 -0.9668  0.2475 -0.9690
   70MOL    H2218100   6.549   3.240   2.335 -0.2146  0.6586  0.5213
   70MOL    H2318101   6.716   3.286   1.990  0.9873  0.5980  0.7173
   70MOL    H2418102   6.714   3.111   1.954 -0.3703  0.6441 -0.3861
   70MOL    H2518103   6.810   3.170   2.083 -0.5698  0.9752  1.0383
   70MOL    H2618104   6.473   3.036   2.233 -0.6539  0.7959 -0.8521
   70MOL    H2718105   6.602   2.966   2.141  0.8892 -0.1175  4.2759
   70MOL    C2818106   6.433   3.042   2.019 -0.9798  0.7580 -0.6043
   70MOL    C2918107   6.334   2.932   2.039  0.0591  0.3805 -0.4189
   70MOL    C3018108   6.343   2.799   2.019  0.6615  1.2083 -0.0943
   70MOL    C3118109   6.471   2.738   1.961  0.0876 -0.1209  0.5428
   70MOL    C3218110   6.243   2.688   2.070 -0.1318  0.0085 -0.3493
   70MOL    H3318111   6.491   3.025   1.929 -2.5516  3.1984 -2.1366
   70MOL    H3418112   6.380   3.135   1.999 -2.8730 -0.3066 -0.6480
   70MOL    H3518113   6.248   2.979   2.083  0.0964  0.7798 -0.7687
   70MOL    H3618114   6.520   2.807   1.892  0.6865  0.5854  1.6529
   70MOL    H3718115   6.465   2.641   1.912  2.2609 -0.2978  0.5439
   70MOL    H3818116   6.535   2.728   2.049  4.7117  0.0760 -2.6267
   70MOL    H3918117   6.245   2.620   1.985 -1.1384 -2.0466  1.2198
   70MOL    H4018118   6.145   2.734   2.086 -0.1729 -0.8712  2.1750
   70MOL    C4118119   6.282   2.621   2.203  0.1787  0.0406 -0.1712
   70MOL    C4218120   6.160   2.552   2.251  0.0859  0.0059  0.2463
   70MOL    C4318121   6.104   2.552   2.371  0.6217 -0.1134 -0.7725
   70MOL    C4418122   6.174   2.612   2.500 -0.2103  0.1423 -0.1908
   70MOL    C4518123   5.974   2.481   2.400 -0.1532 -0.5082  0.7960
   70MOL    H4618124   6.307   2.691   2.282 -0.8162 -1.3109  1.3729
   70MOL    H4718125   6.368   2.555   2.186 -0.6037 -2.2208  3.8677
   70MOL    H4818126   6.111   2.499   2.171  1.0646  0.6546 -0.8026
   70MOL    H4918127   6.247   2.689   2.476  0.4378  0.0784  1.4847
   70MOL    H5018128   6.203   2.536   2.573  1.1302  0.5399 -0.2872
   70MOL    H5118129   6.102   2.665   2.563 -1.1572 -0.4440 -0.7800
   70MOL    H5218130   5.919   2.465   2.307  0.4715 -0.7338  0.4612
   70MOL    H5318131   5.905   2.542   2.457 -1.9380 -0.6889 -1.1050
   70MOL    C5418132   5.996   2.343   2.462 -0.8587 -0.1308  0.5559
   70MOL    C5518133   6.066   2.248   2.370 -0.3595  0.2106  0.1727
   70MOL    C5618134   6.015   2.138   2.315 -0.5282  0.3725  0.1918
   70MOL    C5718135   5.871   2.097   2.336  0.5494 -0.3434 -1.0508
   70MOL    C5818136   6.114   2.041   2.255 -0.2239  0.5493 -0.4803
   70MOL    H5918137   5.908   2.293   2.503  0.8837 -1.4861  2.7495
   70MOL    H6018138   6.057   2.340   2.552 -0.6242 -1.1994  0.3677
   70MOL    H6118139   6.170   2.273   2.359 -0.2211 -0.1396  0.6283
   70MOL    H6218140   5.837   2.042   2.249  0.5796 -1.5791 -0.2843
   70MOL    H6318141   5.800   2.175   2.365  2.3759  1.0089 -0.0476
   70MOL    H6418142   5.871   2.023   2.416  2.7531 -0.7990 -1.4444
   70MOL    H6518143   6.123   1.956   2.322  2.0927  0.9424 -0.2353
   70MOL    H6618144   6.217   2.077   2.261  0.5884 -1.9337  1.3043
   70MOL    C6718145   6.079   1.997   2.107 -0.4654 -0.0356  0.1759
   70MOL    C6818146   6.115   2.093   1.998 -0.3266  0.5383 -0.1183
   70MOL    C6918147   6.240   2.106   1.951 -0.5517 -0.6352 -0.3427
   70MOL    C7018148   6.360   2.037   2.009  0.1654  0.2165  0.0071
   70MOL    C7118149   6.265   2.206   1.832 -0.8673 -0.1198 -0.4720
   70MOL    H7218150   5.972   1.976   2.103 -0.4856  0.1843 -0.4694
   70MOL    H7318151   6.121   1.902   2.076 -1.8463 -0.1978 -1.2402
   70MOL    H7418152   6.032   2.140   1.949  0.7629  0.9033 -1.6432
   70MOL    H7518153   6.403   2.100   2.087 -0.2292  0.7990 -0.2369
   70MOL    H7618154   6.427   2.012   1.926  1.0858 -0.5663  0.9665
   70MOL    H7718155   6.344   1.946   2.067 -0.6811 -0.2567 -0.9634
   70MOL    H7818156   6.176   2.217   1.771  0.5735  5.2314 -1.8048
   70MOL    H7918157   6.321   2.154   1.754 -0.2844 -1.1619  0.6095
   70MOL    C8018158   6.317   2.353   1.867 -0.1736 -0.1003  0.0817
   70MOL    C8118159   6.361   2.414   1.734  0.7067 -0.2098 -0.3603
   70MOL    C8218160   6.303   2.509   1.651 -0.0248  1.0264 -0.3469
   70MOL    C8318161   6.172   2.571   1.687  0.3571  0.3928 -0.5252
   70MOL    C8418162   6.378   2.544   1.521  0.2711  0.4402  0.0750
   70MOL    H8518163   6.405   2.367   1.930  0.1060  1.6235 -0.6546
   70MOL    H8618164   6.240   2.403   1.927  0.5522 -1.0982  1.8927
   70MOL    H8718165   6.459   2.396   1.692 -0.5683 -1.0432 -3.1609
   70MOL    H8818166   6.141   2.561   1.791  1.4166 -1.6288 -0.3925
   70MOL    H8918167   6.099   2.518   1.626 -1.2858  3.1578 -1.0837
   70MOL    H9018168   6.170   2.678   1.664  0.5459  0.4480 -0.2928
   70MOL    H9118169   6.322   2.516   1.432  2.5342 -2.9862 -0.3870
   70MOL    H9218170   6.468   2.483   1.512 -0.6397 -0.8248 -0.7931
   70MOL    C9318171   6.407   2.703   1.509 -0.2768  0.7901  0.0098
   70MOL    C9418172   6.481   2.749   1.379 -0.4890 -0.2561  0.0689
   70MOL    C9518173   6.427   2.760   1.253  0.3882 -0.2604  0.6130
   70MOL    C9618174   6.281   2.738   1.221 -0.4581  1.0358 -0.5198
   70MOL    C9718175   6.513   2.804   1.133  0.1129 -0.1714 -0.0741
   70MOL    H9818176   6.447   2.727   1.608 -0.8183  0.3677  0.3329
   70MOL    H9918177   6.313   2.757   1.501 -1.2264 -0.6574  1.1668
   70MOL   H10018178   6.585   2.775   1.387 -0.9216  1.6141 -0.0985
   70MOL   H10118179   6.218   2.820   1.254  0.9875  1.5042  1.1191
   70MOL   H10218180   6.253   2.646   1.272  1.7669  1.0606  0.8250
   70MOL   H10318181   6.262   2.726   1.114  3.3386 -3.5287 -0.8515
   70MOL   H10418182   6.490   2.740   1.048 -0.0441  1.6693 -1.4334
   70MOL   H10518183   6.615   2.778   1.162  1.2247  0.2248 -3.3928
   70MOL   C10618184   6.498   2.950   1.105  0.5192  0.4220  0.2610
   70MOL   C10718185   6.564   2.978   0.970  0.3338 -0.4564 -0.4696
   70MOL   C10818186   6.520   3.066   0.883 -0.2202 -0.9653  0.2772
   70MOL   C10918187   6.397   3.155   0.888  0.1060  0.8369 -0.5281
   70MOL   C11018188   6.609   3.074   0.758  0.4136 -0.2027  0.1185
   70MOL   H11118189   6.530   3.013   1.188 -0.0818  1.0232  0.0440
   70MOL   H11218190   6.390   2.955   1.088  0.5918 -1.5111 -0.9107
   70MOL   H11318191   6.658   2.929   0.948 -0.6698 -2.3449 -0.5788
   70MOL   H11418192   6.338   3.145   0.797 -0.0761  0.9585 -0.4235
   70MOL   H11518193   6.425   3.255   0.922 -0.5165  0.4263  1.1948
   70MOL   H11618194   6.326   3.129   0.966 -1.6567  2.5263 -1.5248
   70MOL   H11718195   6.550   3.060   0.668 -0.1600  0.1071  0.4468
   70MOL   H11818196   6.677   2.990   0.744  0.0240 -0.5005  0.0167
   70MOL   C11918197   6.689   3.212   0.756 -0.0801  0.0977 -0.1884
   70MOL   C12018198   6.763   3.228   0.625 -0.5306  0.0439 -0.0158
   70MOL   C12118199   6.902   3.244   0.615  0.2821 -0.2372  0.3365
   70MOL   C12218200   6.991   3.234   0.740  0.0838  0.4554 -0.2028
   70MOL   C12318201   6.961   3.295   0.481 -0.4078  0.3872  0.7014
   70MOL   H12418202   6.754   3.226   0.843 -1.8007 -1.6577  1.4432
   70MOL   H12518203   6.610   3.285   0.770 -1.0824 -1.1285  0.6628
   70MOL   H12618204   6.701   3.232   0.537 -0.2039 -0.4444 -0.2735
   70MOL   H12718205   7.000   3.328   0.794  0.2295 -1.3446  2.9977
   70MOL   H12818206   7.090   3.218   0.697  0.6577 -1.3672  1.7452
   70MOL   H12918207   6.965   3.159   0.815  2.4910  0.2392  0.4456
   70MOL   H13018208   6.897   3.268   0.397 -0.2289 -0.4394  0.8266
   70MOL   H13118209   7.056   3.244   0.463 -0.1428  0.6257  1.4122
   70MOL   C13218210   6.981   3.450   0.492 -0.0552  0.3621 -0.2814
   70MOL   C13318211   6.854   3.532   0.496  0.9213  0.1119  0.4201
   70MOL   C13418212   6.794   3.585   0.605 -1.0075 -1.1360  0.5764
   70MOL   C13518213   6.848   3.564   0.751  1.3905 -0.4258  0.2259
   70MOL   C13618214   6.665   3.659   0.596  0.7921 -0.4230  0.3069
   70MOL   H13718215   7.047   3.468   0.406  1.5409 -0.0088  0.8376
   70MOL   H13818216   7.042   3.496   0.570 -2.4350  3.9160 -0.4359
   70MOL   H13918217   6.818   3.564   0.399  1.5012 -0.2707  0.0713
   70MOL   H14018218   6.952   3.535   0.755  1.5644 -0.7066 -3.8146
   70MOL   H14118219   6.783   3.499   0.811  2.2963 -0.4472  1.1938
   70MOL   H14218220   6.843   3.659   0.804 -1.6222  0.3934 -1.3637
   70MOL   H14318221   6.649   3.701   0.497 -0.8714 -2.6029 -0.3918
   70MOL   H14418222   6.667   3.749   0.658  0.7037 -0.1253 -0.1208
   70MOL   C14518223   6.541   3.569   0.612 -0.2364 -0.0223 -0.0850
   70MOL   C14618224   6.404   3.637   0.613  0.2216  1.0143  0.2855
   70MOL   C14718225   6.288   3.581   0.660 -0.2269 -0.2371 -0.3556
   70MOL   C14818226   6.287   3.445   0.737 -0.3898 -0.2155 -0.4339
   70MOL   C14918227   6.157   3.666   0.664  0.3974 -0.0448  0.4615
   70MOL   H15018228   6.545   3.528   0.713 -2.7430  0.9074  0.4391
   70MOL   H15118229   6.537   3.486   0.540 -0.6650  0.2101 -0.3307
   70MOL   H15218230   6.416   3.732   0.563  1.5981  0.3252 -0.7264
   70MOL   H15318231   6.181   3.419   0.747 -0.9442  2.3801  1.0933
   70MOL   H15418232   6.328   3.460   0.837 -0.7267  3.7767 -0.8092
   70MOL   H15518233   6.338   3.368   0.679 -1.0439  0.2628 -1.6602
   70MOL   H15618234   6.178   3.770   0.640 -2.1248  0.0829 -1.4636
   70MOL   H15718235   6.135   3.670   0.771 -0.5873  2.4725  0.1930
   70MOL   C15818236   6.039   3.629   0.572  0.5291  0.4324  0.2388
   70MOL   C15918237   5.911   3.709   0.592  0.2776 -0.1660  0.9131
   70MOL   C16018238   5.874   3.823   0.523 -0.1275  0.0972  0.5581
   70MOL   C16118239   5.966   3.896   0.435  0.1456 -0.1363  0.1968
   70MOL   C16218240   5.736   3.878   0.537  0.0400  0.3386  0.7882
   70MOL   H16318241   6.015   3.524   0.589  0.9206  0.5416  1.5407
   70MOL   H16418242   6.061   3.636   0.465  1.2687 -1.2625  0.2618
   70MOL   H16518243   5.846   3.658   0.663  0.5430 -1.4807  0.2318
   70MOL   H16618244   5.955   3.865   0.331 -1.1601 -0.3340  0.3874
   70MOL   H16718245   6.071   3.869   0.448  0.4594  1.9803  2.3040
   70MOL   H16818246   5.952   4.003   0.444 -2.2576 -0.2368 -1.6819
   70MOL   H16918247   5.736   3.987   0.544 -2.4146  0.3649  0.8951
   70MOL   H17018248   5.687   3.838   0.626 -2.9767  2.0356 -0.0332
   70MOL   C17118249   5.661   3.833   0.411  0.3612  0.3424  0.0829
   70MOL   C17218250   5.529   3.896   0.411 -0.0298 -0.2240  0.6989
   70MOL   C17318251   5.412   3.828   0.448 -0.2765  0.4283 -0.1760
   70MOL   C17418252   5.411   3.678   0.488  0.6173  0.6285 -0.5956
   70MOL   C17518253   5.269   3.888   0.453  0.2583 -0.4868 -0.0386
   70MOL   H17618254   5.656   3.725   0.404  1.2283  0.2666  0.6307
   70MOL   H17718255   5.710   3.867   0.320 -0.2802  2.6110  0.5293
   70MOL   H17818256   5.528   4.002   0.392  1.8567 -0.6275 -2.0385
   70MOL   H17918257   5.505   3.648   0.533  0.0357 -0.0698  0.1565
   70MOL   H18018258   5.393   3.606   0.408  1.8119  0.8484 -1.0721
   70MOL   H18118259   5.328   3.662   0.557  0.4880 -0.9829 -1.0996
   70MOL   H18218260   5.264   3.978   0.392  0.7831 -0.9078 -0.7022
   70MOL   H18318261   5.256   3.908   0.559  1.7386 -1.6298  0.3662
   70MOL   C18418262   5.148   3.804   0.394  0.8526  0.1574  0.1224
   70MOL   C18518263   5.023   3.884   0.364  0.1148  1.0084 -0.4564
   70MOL   C18618264   4.895   3.841   0.360  0.2582  0.1872  0.1732
   70MOL   C18718265   4.836   3.704   0.399 -0.1962 -0.5726 -0.6000
   70MOL   C18818266   4.790   3.943   0.301 -0.2963  0.0910  0.1494
   70MOL   H18918267   5.123   3.728   0.467  0.6542  0.5453  0.4622
   70MOL   H19018268   5.174   3.746   0.306  2.5065 -2.1952  2.1021
   70MOL   H19118269   5.050   3.983   0.329  0.5018  1.2589  0.5519
   70MOL   H19218270   4.921   3.645   0.435 -0.1781  1.3265  2.7371
   70MOL   H19318271   4.802   3.649   0.312  0.5623  0.3163 -1.4709
   70MOL   H19418272   4.758   3.722   0.473  0.2131  2.2091 -0.7636
   70MOL   H19518273   4.796   4.049   0.328 -0.7773  0.6337 -1.7387
   70MOL   H19618274   4.696   3.922   0.352  1.7732  0.4383  4.2451
   70MOL   C19718275   4.779   3.930   0.147 -0.2578 -0.1060 -0.2985
   70MOL   C19818276   4.713   4.049   0.080  0.6144 -0.3954 -0.2337
   70MOL   C19918277   4.593   4.049   0.016 -0.0766  0.7795 -0.2515
   70MOL   C20018278   4.512   3.920   7.871  0.3715  0.1337 -0.1644
   70MOL   C20118279   4.525   4.173   7.838 -0.6959  0.5147  0.6843
   70MOL   H20218280   4.733   3.836   0.116 -1.1745  0.0883  0.4563
   70MOL   H20318281   4.884   3.919   0.121  0.1766 -1.1028  1.7432
   70MOL   H20418282   4.756   4.144   0.109 -0.5609 -0.2930  1.2672
   70MOL   H20518283   4.437   3.923   7.793  0.1800  0.8237  0.0419
   70MOL   H20618284   4.477   3.871   0.080 -0.9330 -0.5235 -1.0131
   70MOL   H20718285   4.582   3.852   7.822  1.3170 -0.6702  2.1813
   70MOL   H20818286   4.497   4.137   7.739  1.1795 -0.0336  0.3330
   70MOL   H20918287   4.598   4.252   7.819  1.2733 -1.0598  1.5587
   70MOL   C21018288   4.401   4.225   0.031 -0.1490 -0.0822 -0.9745
   70MOL   C21118289   4.360   4.372   0.001  0.7591  0.4920  0.0784
   70MOL   C21218290   4.236   4.416   7.871 -0.2888 -0.7365  0.2994
   70MOL   C21318291   4.114   4.332   0.025 -0.0693 -0.5680 -0.6487
   70MOL   C21418292   4.200   4.551   7.829 -0.2002 -0.1086  0.6620
   70MOL   H21518293   4.439   4.216   0.132 -1.2299 -1.0986 -0.6515
   70MOL   H21618294   4.323   4.149   0.030  2.6398 -3.1001  1.4970
   70MOL   H21718295   4.438   4.446   7.880  3.1239 -1.6858  3.7044
   70MOL   H21818296   4.128   4.224   0.029 -0.0284 -0.5722 -0.9025
   70MOL   H21918297   4.029   4.359   7.845 -2.2406  0.8198  2.7742
   70MOL   H22018298   4.081   4.363   0.124 -0.5209 -0.8565 -0.7087
   70MOL   H22118299   4.127   4.601   0.009  1.5491  3.2334  0.1499
   70MOL   H22218300   4.142   4.539   7.737 -0.9356 -1.7034  1.3199
   70MOL   C22318301   4.326   4.641   7.796 -0.0510  0.4855  0.7132
   70MOL   C22418302   4.287   4.781   7.751 -0.2168  0.3862  1.1439
   70MOL   C22518303   4.328   4.844   7.638 -0.0192  0.6453 -0.5981
   70MOL   C22618304   4.430   4.789   7.540 -0.6444  0.4681 -0.3123
   70MOL   C22718305   4.267   4.976   7.597  0.5539 -0.3664 -0.5164
   70MOL   H22818306   4.392   4.584   7.730 -1.3425 -0.3145  0.0899
   70MOL   H22918307   4.388   4.643   0.003  1.2087 -0.3235 -0.1263
   70MOL   H23018308   4.219   4.833   7.816  0.4395  0.1863  1.9926
   70MOL   H23118309   4.387   4.706   7.483  1.5695 -1.0202  0.0875
   70MOL   H23218310   4.517   4.756   7.597 -0.9080 -0.7697 -0.5946
   70MOL   H23318311   4.468   4.872   7.481 -0.3845  0.4824 -0.1243
   70MOL   H23418312   4.162   4.972   7.626  0.9658 -1.0287  0.9787
   70MOL   H23518313   4.268   5.002   7.491 -0.9936  2.3509  0.0916
   70MOL   C23618314   4.317   5.087   7.685  0.3442  0.6202 -0.2422
   70MOL   C23718315   4.274   5.224   7.642 -0.4851 -0.1884  0.3322
   70MOL   C23818316   4.174   5.289   7.696 -0.3422 -0.0342 -0.5951
   70MOL   C23918317   4.097   5.238   7.813  0.4715 -0.5967  0.2448
   70MOL   C24018318   4.149   5.431   7.659 -0.0967  0.2434  0.1012
   70MOL   H24118319   4.425   5.090   7.675  0.7566 -0.5978  3.2574
   70MOL   H24218320   4.299   5.071   7.791  1.2854  0.9334 -0.0302
   70MOL   H24318321   4.325   5.273   7.560  1.1251 -0.4836  1.1204
   70MOL   H24418322   4.154   5.253   0.022  0.7624 -0.6151  0.0662
   70MOL   H24518323   4.090   5.130   7.803  0.2216 -0.4099 -1.7257
   70MOL   H24618324   3.996   5.279   7.817  0.6285  0.1303 -2.4960
   70MOL   H24718325   4.042   5.449   7.666 -0.2319 -1.2948  2.5762
   70MOL   H24818326   4.185   5.450   7.558  0.8521 -0.1991  0.3551
   70MOL   C24918327   4.211   5.524   7.764  0.2641  0.5013  0.0623
   70MOL   C25018328   4.192   5.664   7.730 -0.0268 -0.4377  0.4143
   70MOL   C25118329   4.166   5.774   7.808 -0.6227  0.1222 -0.2331
   70MOL   C25218330   4.157   5.772   0.081 -0.1734 -0.4067  0.1310
   70MOL   C25318331   4.129   5.908   7.754 -0.0684  0.3863 -0.6393
   70MOL   H25418332   4.320   5.525   7.773  0.3416  1.8417 -0.8476
   70MOL   H25518333   4.165   5.501   7.860 -1.4418  0.2768 -0.8025
   70MOL   H25618334   4.196   5.669   7.622  0.5429  0.9634  0.4815
   70MOL   H25718335   4.055   5.803   0.101 -1.0558 -2.7533 -0.6716
   70MOL   H25818336   4.225   5.853   0.109 -1.3634  0.6586 -0.0201
   70MOL   H25918337   4.179   5.678   0.132 -2.4056 -0.2503  1.4686
   70MOL   H26018338   4.112   5.905   7.646  1.8191  1.3668 -0.9910
   70MOL   H26118339   4.214   5.972   7.776 -0.5975  1.6978 -2.2448
   70MOL   H26218340   4.047   5.941   7.818  1.2080  0.3404  1.0476
   71MOL     C118341   5.495   3.166   4.476  0.4089 -0.2774 -0.1902
   71MOL     C218342   5.545   3.082   4.366  0.4327 -0.0014  0.3769
   71MOL     C318343   5.594   2.955   4.372  0.3321  0.5338 -0.7075
   71MOL     C418344   5.599   2.872   4.501 -0.1040 -0.2059  0.1365
   71MOL     C518345   5.645   2.878   4.253 -0.1055  0.5925 -0.1158
   71MOL     H618346   5.494   3.136   4.580 -0.0170 -1.0804 -0.4234
   71MOL     H718347   5.551   3.258   4.457 -0.1417  0.5648  2.0792
   71MOL     H818348   5.546   3.131   4.270 -0.1994 -0.2885  0.2227
   71MOL     H918349   5.500   2.842   4.535 -0.6273  1.3329  0.0121
   71MOL    H1018350   5.632   2.936   4.583 -1.2081 -1.1317  1.3216
   71MOL    H1118351   5.680   2.798   4.501  1.5452  1.4925  3.1323
   71MOL    H1218352   5.754   2.875   4.253 -0.0311  2.3405  1.5293
   71MOL    H1318353   5.630   2.935   4.161 -1.2499  0.9428  0.2876
   71MOL    H1418354   5.392   3.198   4.459  0.7936  0.5621 -1.0331
   71MOL    C1518355   5.599   2.733   4.243  0.7982  0.0204 -0.3524
   71MOL    C1618356   5.640   2.673   4.106  0.2711  0.3328 -0.2023
   71MOL    C1718357   5.681   2.544   4.085  0.0623 -0.1582  0.2315
   71MOL    C1818358   5.681   2.442   4.199  0.4192 -0.0952 -0.6299
   71MOL    C1918359   5.711   2.484   3.952 -0.7243 -0.1925  0.0865
   71MOL    H2018360   5.490   2.737   4.242  0.8292  1.1741 -0.2301
   71MOL    H2118361   5.623   2.674   4.331 -0.4008 -2.5697 -1.7064
   71MOL    H2218362   5.623   2.740   4.023 -0.1308  0.5310  0.0390
   71MOL    H2318363   5.590   2.450   4.259  0.0331  2.1361 -1.4235
   71MOL    H2418364   5.765   2.452   4.267 -1.1076 -1.8440  1.5572
   71MOL    H2518365   5.689   2.337   4.170 -1.6107 -0.4253 -0.0621
   71MOL    H2618366   5.712   2.555   3.869 -1.0487 -0.1547  0.1153
   71MOL    H2718367   5.631   2.414   3.930 -0.0204 -0.8595 -0.3520
   71MOL    C2818368   5.851   2.406   3.944  0.7061 -0.2951 -0.0358
   71MOL    C2918369   5.845   2.328   3.816 -0.1973  0.5334  0.1842
   71MOL    C3018370   5.823   2.194   3.799  0.3294  0.3037 -0.5048
   71MOL    C3118371   5.784   2.100   3.913 -0.3635 -0.1472 -0.2603
   71MOL    C3218372   5.797   2.133   3.658  0.5567 -0.0874 -0.1440
   71MOL    H3318373   5.876   2.336   4.024 -0.0054  0.1449  0.5730
   71MOL    H3418374   5.938   2.472   3.944 -0.3706  1.1398  0.9103
   71MOL    H3518375   5.863   2.385   3.725 -2.7653  0.2158 -0.5775
   71MOL    H3618376   5.802   2.142   4.012 -0.0802  0.3966 -0.5391
   71MOL    H3718377   5.867   2.030   3.925 -0.2820  0.0194  0.1699
   71MOL    H3818378   5.681   2.065   3.915 -0.8789  1.2863  3.2582
   71MOL    H3918379   5.766   2.217   3.596  1.3350  0.3766  0.0864
   71MOL    H4018380   5.713   2.064   3.662  0.9937 -0.7175 -1.5748
   71MOL    C4118381   5.917   2.065   3.608 -0.7048  0.1291  0.1164
   71MOL    C4218382   5.921   2.008   3.467  0.1979  0.2654  0.4776
   71MOL    C4318383   6.030   1.996   3.388 -0.0189 -0.6280 -0.2852
   71MOL    C4418384   6.168   2.052   3.418  0.0480  0.4649 -0.0612
   71MOL    C4518385   6.017   1.956   3.242 -0.8872  0.1749  0.2006
   71MOL    H4618386   5.946   1.981   3.670  0.8305 -0.7245 -1.6935
   71MOL    H4718387   6.003   2.132   3.610 -0.2626 -0.4152 -0.3986
   71MOL    H4818388   5.837   1.958   3.422 -0.4037  0.0654  1.7988
   71MOL    H4918389   6.157   2.159   3.403  0.8186  0.5615  0.0116
   71MOL    H5018390   6.259   2.023   3.365  0.3168  2.9704 -1.0016
   71MOL    H5118391   6.203   2.043   3.521 -1.2940 -0.4603  0.3300
   71MOL    H5218392   5.927   1.896   3.224  0.0553 -0.8950 -1.0791
   71MOL    H5318393   6.100   1.886   3.231  0.6620  2.0293 -0.1248
   71MOL    C5418394   6.032   2.078   3.149 -0.3651 -0.6458  0.6316
   71MOL    C5518395   6.036   2.023   3.010  0.0195  0.2491  0.1703
   71MOL    C5618396   6.032   2.082   2.892 -0.5473 -0.4203  0.1182
   71MOL    C5718397   6.025   2.240   2.886 -0.3275 -0.0219 -0.5919
   71MOL    C5818398   6.041   2.010   2.760 -0.7635  0.6420 -1.1338
   71MOL    H5918399   6.123   2.133   3.169 -1.2465  0.9714  0.2656
   71MOL    H6018400   5.948   2.147   3.160 -0.7062 -1.0524  0.6035
   71MOL    H6118401   6.037   1.915   2.999 -1.4909  0.2615 -0.1021
   71MOL    H6218402   5.925   2.283   2.879  0.5635  2.1594 -0.3488
   71MOL    H6318403   6.085   2.270   2.801  1.7696 -2.3861  0.0004
   71MOL    H6418404   6.072   2.283   2.974  0.4914  1.1776 -1.6082
   71MOL    H6518405   6.010   2.083   2.686  1.1725  0.3045 -2.3295
   71MOL    H6618406   5.969   1.928   2.765 -0.1563  0.0731 -1.5726
   71MOL    C6718407   6.184   1.964   2.729  0.7850  0.3289 -0.9470
   71MOL    C6818408   6.291   2.076   2.741 -0.1226  0.0832  0.1773
   71MOL    C6918409   6.391   2.111   2.659 -0.0447  0.1699 -0.6105
   71MOL    C7018410   6.423   2.022   2.543 -0.2434  0.2329 -0.1535
   71MOL    C7118411   6.480   2.234   2.693  0.2081 -0.6761 -0.5604
   71MOL    H7218412   6.169   1.927   2.628 -1.1593 -2.5920  0.3264
   71MOL    H7318413   6.214   1.874   2.783 -1.9815 -1.2658 -1.9496
   71MOL    H7418414   6.281   2.136   2.830 -0.2371  2.4175 -1.3781
   71MOL    H7518415   6.358   2.071   2.471 -1.0735  1.3066  1.2925
   71MOL    H7618416   6.398   1.917   2.563 -0.9289  0.4064 -0.0707
   71MOL    H7718417   6.527   2.033   2.514  0.5175 -0.7661  2.0350
   71MOL    H7818418   6.588   2.217   2.687  0.2022 -0.6722 -0.6788
   71MOL    H7918419   6.468   2.262   2.798  0.6889 -0.6761 -0.5024
   71MOL    C8018420   6.442   2.358   2.602 -0.1387 -0.0435 -0.7563
   71MOL    C8118421   6.511   2.483   2.667 -0.1520 -0.4684  0.0827
   71MOL    C8218422   6.462   2.554   2.769 -0.3393  0.4554  0.0261
   71MOL    C8318423   6.344   2.509   2.854  0.0856  0.0745 -0.5958
   71MOL    C8418424   6.529   2.682   2.801 -0.1216  0.0896 -0.5369
   71MOL    H8518425   6.333   2.365   2.596 -0.3527 -1.5811  0.8497
   71MOL    H8618426   6.467   2.350   2.496  0.1075 -0.1759 -0.6898
   71MOL    H8718427   6.600   2.514   2.615 -1.4876 -0.8408 -2.4890
   71MOL    H8818428   6.394   2.483   2.948 -0.2036  0.6671 -0.2760
   71MOL    H8918429   6.284   2.427   2.815  1.8012 -0.7985 -1.4441
   71MOL    H9018430   6.272   2.590   2.861 -0.1327 -0.0619 -1.2657
   71MOL    H9118431   6.621   2.697   2.745 -0.8931  2.4266 -1.2318
   71MOL    H9218432   6.554   2.678   2.907  0.9242  4.5239 -0.5184
   71MOL    C9318433   6.440   2.799   2.770 -0.2832 -0.8515  0.1143
   71MOL    C9418434   6.504   2.933   2.807  0.7731  1.2060  0.0150
   71MOL    C9518435   6.582   3.014   2.733  0.1186 -1.2371 -0.3608
   71MOL    C9618436   6.629   2.993   2.595  0.0103  0.1373  0.0102
   71MOL    C9718437   6.629   3.147   2.802 -0.7617 -0.5475 -0.7042
   71MOL    H9818438   6.352   2.797   2.835  1.1583  0.8898  2.1681
   71MOL    H9918439   6.411   2.803   2.665  1.7296 -1.6228 -0.4753
   71MOL   H10018440   6.499   2.949   2.914  0.0106 -0.3555  0.2212
   71MOL   H10118441   6.737   2.996   2.581  0.1520 -2.6137  0.2128
   71MOL   H10218442   6.589   3.075   2.536  0.8896  0.1697 -0.5419
   71MOL   H10318443   6.586   2.906   2.546  0.4925 -0.4468  0.6134
   71MOL   H10418444   6.732   3.135   2.835 -0.8009  0.1126 -0.3184
   71MOL   H10518445   6.566   3.151   2.891 -0.4804 -0.5355 -0.5076
   71MOL   C10618446   6.605   3.275   2.719 -0.6668 -0.3816  0.8215
   71MOL   C10718447   6.456   3.300   2.675 -0.0413 -0.3189 -0.4212
   71MOL   C10818448   6.396   3.416   2.666  0.4438  0.3123  0.4544
   71MOL   C10918449   6.465   3.547   2.690 -0.1473 -0.2520 -0.3227
   71MOL   C11018450   6.256   3.423   2.610  0.7056 -1.1522  0.1626
   71MOL   H11118451   6.659   3.277   2.624 -0.8104  1.5987  0.7549
   71MOL   H11218452   6.658   3.363   2.756  0.9594 -2.2262  3.0492
   71MOL   H11318453   6.393   3.216   2.653  1.9258 -1.6802 -0.9621
   71MOL   H11418454   6.529   3.572   2.606  0.4713  1.9598  0.7614
   71MOL   H11518455   6.513   3.560   2.787  1.9972 -1.9864 -1.1058
   71MOL   H11618456   6.392   3.626   2.708  0.0122 -0.4817  1.4655
   71MOL   H11718457   6.192   3.490   2.668 -0.4863 -1.9196 -0.2581
   71MOL   H11818458   6.211   3.326   2.628 -0.4264 -0.6707 -0.0698
   71MOL   C11918459   6.258   3.470   2.462 -0.5476  0.6413 -0.6839
   71MOL   C12018460   6.129   3.458   2.385  0.2341  0.3995 -0.3831
   71MOL   C12118461   6.101   3.373   2.282  0.8477 -0.1940 -0.0502
   71MOL   C12218462   6.205   3.269   2.232 -0.0397  0.2988  0.1106
   71MOL   C12318463   5.964   3.364   2.216 -0.5202 -0.4140  0.2433
   71MOL   H12418464   6.328   3.399   2.417  0.5923  1.5562 -0.3856
   71MOL   H12518465   6.293   3.573   2.451 -1.3857  0.8621 -1.3197
   71MOL   H12618466   6.048   3.521   2.418 -0.2720  0.1477 -1.1180
   71MOL   H12718467   6.293   3.245   2.292  0.4368  0.6691 -0.4414
   71MOL   H12818468   6.242   3.305   2.137 -0.3659  2.7815  0.8890
   71MOL   H12918469   6.152   3.176   2.208 -2.8274  1.7539  0.4005
   71MOL   H13018470   5.895   3.434   2.263  1.1377  0.6899  1.0829
   71MOL   H13118471   5.921   3.266   2.238 -1.0299 -0.2279  0.1055
   71MOL   C13218472   5.975   3.382   2.060 -0.4413 -0.4513 -0.4758
   71MOL   C13318473   5.834   3.410   2.006  0.6983  0.6208 -0.4478
   71MOL   C13418474   5.793   3.419   1.880  0.2230 -0.6583  0.1460
   71MOL   C13518475   5.879   3.418   1.756 -1.0370 -0.3785  0.2989
   71MOL   C13618476   5.647   3.448   1.852  0.6483  0.0732 -0.3256
   71MOL   H13718477   6.022   3.296   2.013 -2.5115 -0.7871 -1.9975
   71MOL   H13818478   6.034   3.472   2.043 -0.5284 -0.2413  0.3188
   71MOL   H13918479   5.761   3.405   2.084  1.8286  2.3581  0.7685
   71MOL   H14018480   5.869   3.506   1.693  0.5395  0.2844  0.9452
   71MOL   H14118481   5.852   3.334   1.691  2.9048 -0.8659 -0.8353
   71MOL   H14218482   5.984   3.399   1.775 -1.2187 -1.6521  0.1040
   71MOL   H14318483   5.640   3.557   1.845 -0.4523 -0.0175 -0.7798
   71MOL   H14418484   5.589   3.417   1.939  0.0460  0.6363 -0.5168
   71MOL   C14518485   5.592   3.377   1.728 -0.1284 -0.0176 -0.3562
   71MOL   C14618486   5.439   3.405   1.718 -1.2405 -0.3869 -0.1116
   71MOL   C14718487   5.342   3.307   1.711 -0.5391  0.5128 -0.2863
   71MOL   C14818488   5.370   3.158   1.719 -0.2195  0.9803  0.1631
   71MOL   C14918489   5.191   3.336   1.704 -0.8508 -0.0173  0.1211
   71MOL   H15018490   5.619   3.273   1.744  0.3634  0.7012  4.2486
   71MOL   H15118491   5.647   3.419   1.644  0.3852  0.3062  0.1314
   71MOL   H15218492   5.399   3.505   1.725 -3.7219 -1.5102  3.8869
   71MOL   H15318493   5.384   3.106   1.813  0.9546  1.4952  0.2870
   71MOL   H15418494   5.459   3.124   1.665 -2.4205 -1.0564 -2.3640
   71MOL   H15518495   5.291   3.098   1.674  0.2214  0.7676 -0.3504
   71MOL   H15618496   5.137   3.263   1.644  0.8682  0.4284 -2.0048
   71MOL   H15718497   5.176   3.424   1.641 -1.6400 -0.7571 -0.7486
   71MOL   C15818498   5.111   3.331   1.840 -0.6747 -0.2132  0.6621
   71MOL   C15918499   5.159   3.442   1.928 -0.1170 -0.2761  0.2161
   71MOL   C16018500   5.187   3.432   2.058 -0.0855 -0.4014  0.5089
   71MOL   C16118501   5.224   3.301   2.125 -0.4109  0.5577 -0.0687
   71MOL   C16218502   5.213   3.555   2.147  0.3134 -0.5254 -0.3341
   71MOL   H16318503   5.135   3.233   1.881  0.7887 -0.1085  0.0962
   71MOL   H16418504   5.006   3.350   1.821 -0.3029 -0.1404 -1.5101
   71MOL   H16518505   5.154   3.540   1.884 -0.4210  0.9514  2.9565
   71MOL   H16618506   5.135   3.238   2.123  1.4107 -2.2350  1.6368
   71MOL   H16718507   5.243   3.318   2.231 -1.8603  0.6162  0.1892
   71MOL   H16818508   5.316   3.261   2.081  1.3218  1.4922  2.5635
   71MOL   H16918509   5.165   3.537   2.243  0.1422 -3.3496 -0.9051
   71MOL   H17018510   5.173   3.649   2.109  3.5067  1.4873  1.0720
   71MOL   C17118511   5.371   3.583   2.155  0.0861  0.4262  0.2062
   71MOL   C17218512   5.431   3.649   2.040  0.9217  0.5924  0.2510
   71MOL   C17318513   5.440   3.778   2.026 -0.8267  0.1009  0.1211
   71MOL   C17418514   5.403   3.889   2.129 -0.0086  0.0401 -0.2574
   71MOL   C17518515   5.504   3.838   1.894  0.2591  0.5453 -0.4796
   71MOL   H17618516   5.421   3.487   2.164  0.7774  0.9519  2.1773
   71MOL   H17718517   5.395   3.635   2.248  0.6486  1.1638 -0.3432
   71MOL   H17818518   5.452   3.581   1.959  2.8630  1.8496 -0.3200
   71MOL   H17918519   5.360   3.975   2.078  1.2680  0.2919 -0.9471
   71MOL   H18018520   5.484   3.941   2.179 -0.7973  1.2824 -0.2564
   71MOL   H18118521   5.348   3.865   2.220  2.7590  0.2966  1.5338
   71MOL   H18218522   5.443   3.926   1.871 -2.4015 -1.1847 -0.2621
   71MOL   H18318523   5.505   3.764   1.814 -0.7958  1.3535 -1.2633
   71MOL   C18418524   5.653   3.881   1.916  0.2142  0.3778  0.3335
   71MOL   C18518525   5.699   3.929   1.780 -0.2535  0.1230  0.1587
   71MOL   C18618526   5.824   3.909   1.728  0.5945 -0.1803  0.2725
   71MOL   C18718527   5.935   3.837   1.797 -0.0686 -0.0650  0.0037
   71MOL   C18818528   5.854   3.976   1.602 -0.5246  0.5064  0.0014
   71MOL   H18918529   5.712   3.809   1.973 -0.0156  0.9454  1.2953
   71MOL   H19018530   5.642   3.971   1.976 -0.6677 -0.4770  1.4841
   71MOL   H19118531   5.626   3.980   1.719  0.7914  3.1281  1.3254
   71MOL   H19218532   6.002   3.915   1.835 -1.0336  0.5542  0.4664
   71MOL   H19318533   5.988   3.780   1.721 -0.6392 -0.4438 -0.1089
   71MOL   H19418534   5.904   3.778   1.883  2.2675 -0.7524  0.4278
   71MOL   H19518535   5.953   4.020   1.618  0.0734 -0.1085 -1.9022
   71MOL   H19618536   5.790   4.063   1.586 -0.0062  0.7894 -0.5404
   71MOL   C19718537   5.855   3.893   1.474 -0.4618  0.1475  0.2209
   71MOL   C19818538   5.748   3.783   1.472  0.0110 -0.0044  0.1738
   71MOL   C19918539   5.636   3.785   1.399  0.1090  0.3772 -0.0793
   71MOL   C20018540   5.581   3.895   1.304  0.0069  0.2933  0.2770
   71MOL   C20118541   5.546   3.665   1.405  0.5968  0.0707 -0.0412
   71MOL   H20218542   5.948   3.840   1.456 -1.3293 -0.9649 -1.1159
   71MOL   H20318543   5.834   3.958   1.389 -1.5167 -0.9377 -0.3672
   71MOL   H20418544   5.766   3.705   1.544  1.0649  0.5656  0.5466
   71MOL   H20518545   5.593   3.872   1.198 -3.1883  0.4198 -0.1507
   71MOL   H20618546   5.623   3.993   1.328 -1.1868  0.5489  1.3746
   71MOL   H20718547   5.475   3.908   1.325  0.0089 -2.9789  2.7321
   71MOL   H20818548   5.442   3.696   1.393  0.9534  0.8727 -1.0870
   71MOL   H20918549   5.547   3.615   1.502  0.4415  1.3057  0.5982
   71MOL   C21018550   5.586   3.555   1.299  0.7362 -0.4593  0.0379
   71MOL   C21118551   5.481   3.441   1.275 -0.1555  0.8089 -0.0661
   71MOL   C21218552   5.506   3.309   1.302  0.6095  0.0010  0.2522
   71MOL   C21318553   5.643   3.252   1.335 -0.3528 -0.0802 -0.2435
   71MOL   C21418554   5.392   3.208   1.321  0.5530 -0.2404  0.3597
   71MOL   H21518555   5.684   3.522   1.331  0.8813  1.9203  2.2037
   71MOL   H21618556   5.602   3.607   1.204  2.3732  0.2644  0.7052
   71MOL   H21718557   5.379   3.472   1.258 -0.2827 -0.3180 -1.4156
   71MOL   H21818558   5.655   3.146   1.314  1.0088  0.1377 -0.6629
   71MOL   H21918559   5.666   3.268   1.441 -0.3221 -1.9269  0.0447
   71MOL   H22018560   5.715   3.303   1.270 -0.2404 -0.6005 -0.5262
   71MOL   H22118561   5.426   3.161   1.413  2.3296  0.8978  0.2949
   71MOL   H22218562   5.396   3.136   1.239  0.7557  1.3965 -1.0938
   71MOL   C22318563   5.244   3.252   1.332 -0.3508  0.2983 -0.1948
   71MOL   C22418564   5.181   3.304   1.204 -0.6480  0.9146 -0.0268
   71MOL   C22518565   5.118   3.423   1.182  0.2840  0.0287 -0.5172
   71MOL   C22618566   5.087   3.518   1.298  0.3190  0.5422 -0.7234
   71MOL   C22718567   5.056   3.449   1.043  0.0223 -0.5449 -0.0598
   71MOL   H22818568   5.228   3.332   1.404  0.6563 -0.1554  0.5270
   71MOL   H22918569   5.173   3.170   1.348  0.3587 -0.3900 -0.5290
   71MOL   H23018570   5.191   3.243   1.116  0.6054 -1.1279  1.5047
   71MOL   H23118571   5.154   3.603   1.288 -0.7911  1.6902  1.3585
   71MOL   H23218572   5.069   3.482   1.399  0.1518  0.2859 -0.8432
   71MOL   H23318573   4.992   3.564   1.271  0.0554  0.7084  0.4549
   71MOL   H23418574   5.102   3.382   0.971 -2.6399 -2.4886 -0.0573
   71MOL   H23518575   5.095   3.548   1.019  1.6608 -0.9491  0.8655
   71MOL   C23618576   4.901   3.435   1.032  0.0884 -0.7911 -0.2690
   71MOL   C23718577   4.846   3.495   0.908 -0.2660 -0.3611 -0.7889
   71MOL   C23818578   4.720   3.483   0.868 -0.4010  0.0845 -0.2736
   71MOL   C23918579   4.612   3.418   0.948 -0.3683  0.0256 -0.2455
   71MOL   C24018580   4.671   3.547   0.737 -0.4286 -0.4855  0.2911
   71MOL   H24118581   4.862   3.494   1.114  1.7426 -0.1085  0.0273
   71MOL   H24218582   4.871   3.337   1.069  0.3001  0.0696  2.2446
   71MOL   H24318583   4.916   3.558   0.855 -0.3253  0.3970  0.0162
   71MOL   H24418584   4.639   3.407   1.053 -0.2383 -3.1092 -0.5425
   71MOL   H24518585   4.604   3.313   0.919 -1.1891 -0.3054  1.1518
   71MOL   H24618586   4.512   3.454   0.924 -0.9140 -0.6325  0.9785
   71MOL   H24718587   4.764   3.585   0.694 -0.7868 -1.7653 -1.6678
   71MOL   H24818588   4.608   3.631   0.766  2.1390  1.5453  0.1518
   71MOL   C24918589   4.610   3.454   0.629 -0.3338  0.3266 -0.3700
   71MOL   C25018590   4.543   3.539   0.523 -0.8748  0.2315  0.0424
   71MOL   C25118591   4.505   3.502   0.405  0.2860  0.0450  1.4878
   71MOL   C25218592   4.501   3.358   0.360  0.7722 -0.3618 -0.1699
   71MOL   C25318593   4.460   3.609   0.297 -0.3889  0.5310  0.8700
   71MOL   H25418594   4.535   3.391   0.675  1.3383  0.0957  2.0731
   71MOL   H25518595   4.674   3.376   0.589 -1.1502 -0.3620 -0.3398
   71MOL   H25618596   4.543   3.645   0.543 -0.5049  0.4430 -1.0599
   71MOL   H25718597   4.528   3.282   0.432  3.5243 -1.0462 -1.8327
   71MOL   H25818598   4.572   3.347   0.278  1.7917  1.4576  0.4206
   71MOL   H25918599   4.400   3.329   0.331  0.5201  1.3565 -1.1067
   71MOL   H26018600   4.468   3.715   0.322 -2.5630  1.1433 -0.8978
   71MOL   H26118601   4.355   3.583   0.283 -0.4167 -0.6576  3.0443
   71MOL   H26218602   4.513   3.601   0.202 -0.5133 -0.7337  0.8946
   72MOL     C118603   0.137   1.460   4.506 -0.7714 -0.4643 -0.2495
   72MOL     C218604   0.079   1.583   4.570  0.7803  0.3961  0.1798
   72MOL     C318605   0.052   1.700   4.511  0.1464  0.1332 -0.6254
   72MOL     C418606   0.098   1.736   4.378 -0.5422  0.9501 -0.1352
   72MOL     C518607   0.004   1.822   4.589  0.9180  0.1904  1.0673
   72MOL     H618608   0.245   1.457   4.496 -0.7206  0.6340 -0.0641
   72MOL     H718609   0.100   1.369   4.554  0.1134 -1.1131 -0.7885
   72MOL     H818610   0.039   1.572   4.669  0.0659  1.1746 -0.0045
   72MOL     H918611   0.186   1.799   4.387  0.8059 -0.1339 -4.5172
   72MOL    H1018612   0.012   1.791   4.339 -0.2959  2.7200  1.7274
   72MOL    H1118613   0.131   1.655   4.314 -0.7004  1.0559 -0.3490
   72MOL    H1218614   7.829   1.786   4.674 -0.8479  0.5935  0.0534
   72MOL    H1318615   7.814   1.876   4.529 -0.2717 -0.4708  1.8865
   72MOL    H1418616   0.099   1.465   4.404 -0.4557  1.7532 -0.2834
   72MOL    C1518617   0.119   1.907   4.632 -0.6523  0.0422  0.5392
   72MOL    C1618618   0.080   2.000   4.743  0.0139 -0.2901 -0.3860
   72MOL    C1718619   0.079   1.980   4.876  0.5365  0.3542 -0.1970
   72MOL    C1818620   0.127   1.850   4.942  0.4717  0.0580  0.5832
   72MOL    C1918621   0.023   2.079   4.977  0.1711 -0.7556 -0.4360
   72MOL    H2018622   0.149   1.963   4.544 -0.9692 -0.9113 -0.1936
   72MOL    H2118623   0.206   1.858   4.674  0.4051  2.0655  0.7666
   72MOL    H2218624   0.034   2.091   4.707 -2.9129 -1.0838  1.1625
   72MOL    H2318625   0.222   1.869   4.992 -0.2749 -1.5658  2.7177
   72MOL    H2418626   0.163   1.771   4.877 -0.0832 -0.3752  0.7957
   72MOL    H2518627   0.053   1.816   5.015 -0.2137  0.4248  0.0686
   72MOL    H2618628   0.097   2.119   5.047  0.2585 -1.0857 -0.3428
   72MOL    H2718629   7.818   2.039   5.027 -0.9256 -0.8520 -2.3733
   72MOL    C2818630   7.857   2.212   4.918  0.3337  0.2351 -0.2635
   72MOL    C2918631   7.832   2.321   5.013  0.9339  0.3051 -0.5453
   72MOL    C3018632   7.872   2.454   5.020  0.0109 -1.0122 -0.6126
   72MOL    C3118633   0.074   2.520   4.924  0.2160 -1.3575  0.0472
   72MOL    C3218634   7.818   2.535   5.135 -0.2373 -0.4242 -0.3732
   72MOL    H3318635   7.759   2.197   4.872  0.1424  1.0433 -0.1169
   72MOL    H3418636   0.046   2.261   4.852  0.7044  0.5803  0.3936
   72MOL    H3518637   7.749   2.292   5.076  0.4506  1.1656 -0.7735
   72MOL    H3618638   0.056   2.477   4.825 -0.6268  2.0649 -1.3728
   72MOL    H3718639   0.178   2.509   4.955  1.3360  1.9402 -2.1619
   72MOL    H3818640   0.047   2.626   4.916  1.6622 -1.0048 -0.5362
   72MOL    H3918641   0.003   2.618   5.153 -0.9632 -0.1359  1.0996
   72MOL    H4018642   7.829   2.477   5.227 -1.0906  0.2746  0.1713
   72MOL    C4118643   7.674   2.579   5.105  0.2471 -1.1894 -0.4832
   72MOL    C4218644   7.617   2.667   5.214  0.2882  0.5166 -0.6473
   72MOL    C4318645   7.577   2.793   5.191  0.9039  0.1251  0.2102
   72MOL    C4418646   7.551   2.855   5.057 -0.1311  0.1750 -0.3665
   72MOL    C4518647   7.531   2.882   5.315 -0.2707  0.5267  0.6234
   72MOL    H4618648   7.613   2.490   5.099 -1.9107  0.3443 -2.0013
   72MOL    H4718649   7.658   2.620   5.005 -1.9121 -2.6385 -0.7467
   72MOL    H4818650   7.611   2.616   5.309  1.0643 -0.6996 -1.2423
   72MOL    H4918651   7.645   2.901   5.024  0.7990 -1.1976  0.3342
   72MOL    H5018652   7.469   2.927   5.064 -2.0144 -1.5860 -3.4002
   72MOL    H5118653   7.539   2.782   4.977  0.8863 -0.6796  0.2568
   72MOL    H5218654   7.583   2.974   5.288 -0.2959  0.0029 -1.2843
   72MOL    H5318655   7.586   2.842   5.401 -2.4799 -0.5974  1.5760
   72MOL    C5418656   7.381   2.889   5.335  0.5825 -0.6052 -0.4037
   72MOL    C5518657   7.335   2.992   5.430 -1.3195  0.4590  0.7674
   72MOL    C5618658   7.269   2.987   5.545 -0.4596  0.1976  0.0489
   72MOL    C5718659   7.233   2.859   5.612 -0.0893  0.3362  0.0460
   72MOL    C5818660   7.210   3.105   5.622  0.3649 -0.1865 -0.1092
   72MOL    H5918661   7.346   2.789   5.363  2.3092 -1.1234 -0.0644
   72MOL    H6018662   7.331   2.903   5.239  2.9196 -1.7030 -1.8355
   72MOL    H6118663   7.369   3.087   5.390  1.7646 -0.5875  0.8111
   72MOL    H6218664   7.128   2.852   5.641 -0.2808 -0.9830 -0.9421
   72MOL    H6318665   7.288   2.849   5.705  1.8754 -2.9669 -1.3933
   72MOL    H6418666   7.255   2.779   5.541 -0.9336  0.2506 -0.1248
   72MOL    H6518667   7.228   3.099   5.729 -1.7344  0.9400  0.3336
   72MOL    H6618668   7.102   3.093   5.620  0.6202 -2.7555  0.3371
   72MOL    C6718669   7.238   3.248   5.573  0.2378 -0.7005  0.0285
   72MOL    C6818670   7.373   3.292   5.602 -0.5667  0.1845  0.0520
   72MOL    C6918671   7.441   3.395   5.545 -0.6715  0.4120  0.1178
   72MOL    C7018672   7.384   3.502   5.454  0.0810  0.1476  0.2390
   72MOL    C7118673   7.588   3.418   5.583  0.1515 -0.3651 -0.3650
   72MOL    H7218674   7.171   3.322   5.617  1.3961 -1.0874  2.5409
   72MOL    H7318675   7.210   3.255   5.467 -0.4326 -0.4265  0.2193
   72MOL    H7418676   7.429   3.218   5.657 -0.4098  0.1866 -0.1052
   72MOL    H7518677   7.421   3.491   5.352 -0.9799 -1.6375  0.0308
   72MOL    H7618678   7.412   3.599   5.497 -0.0240  0.3276 -0.1038
   72MOL    H7718679   7.277   3.485   5.447  0.1709 -0.8158  1.0432
   72MOL    H7818680   7.649   3.420   5.493 -0.3655 -1.0230 -0.7374
   72MOL    H7918681   7.628   3.341   5.648 -1.1767 -1.8563 -1.2756
   72MOL    C8018682   7.616   3.547   5.659  0.3262 -0.4605 -0.6792
   72MOL    C8118683   7.765   3.557   5.695  0.1579 -0.0881 -0.4549
   72MOL    C8218684   7.815   3.528   5.813  0.3782 -0.0484  0.3514
   72MOL    C8318685   7.729   3.508   5.938 -0.1767 -0.0074 -0.2203
   72MOL    C8418686   0.082   3.545   5.826  0.6543  0.0165 -0.0284
   72MOL    H8518687   7.543   3.556   5.741  1.1015  0.5592 -0.0860
   72MOL    H8618688   7.588   3.625   5.588 -0.5814  0.6344  0.8278
   72MOL    H8718689   7.826   3.577   5.608 -2.3807 -0.5505 -2.4176
   72MOL    H8818690   7.745   3.418   5.996  1.0368  0.9904  1.0185
   72MOL    H8918691   7.621   3.494   5.930 -0.4057  0.7120  1.5185
   72MOL    H9018692   7.747   3.580   6.018 -0.5170 -0.2080  0.0345
   72MOL    H9118693   0.122   3.501   5.734 -1.8660 -0.5462 -0.8851
   72MOL    H9218694   0.109   3.465   5.895 -1.7721 -1.7388 -1.0528
   72MOL    C9318695   0.134   3.687   5.842  0.5107  0.9158  0.1342
   72MOL    C9418696   0.287   3.694   5.818 -0.3778 -0.8383 -0.1896
   72MOL    C9518697   0.364   3.804   5.833 -0.2624 -0.2679  0.5660
   72MOL    C9618698   0.314   3.944   5.858  1.1261  0.1749  0.3346
   72MOL    C9718699   0.512   3.799   5.795 -0.0529  0.4822 -0.3711
   72MOL    H9818700   0.108   3.724   5.942 -2.0608  0.4270 -0.3225
   72MOL    H9918701   0.092   3.757   5.770 -3.4598 -2.8482 -1.4324
   72MOL   H10018702   0.332   3.603   5.782 -0.5241 -1.1795  0.5021
   72MOL   H10118703   0.367   3.991   5.942 -0.9313  2.0454  0.6463
   72MOL   H10218704   0.206   3.942   5.874  1.1353 -3.5038  0.4086
   72MOL   H10318705   0.333   4.017   5.779  2.5924  1.1753  1.5753
   72MOL   H10418706   0.563   3.704   5.812  1.4049  1.0899 -1.2253
   72MOL   H10518707   0.552   3.853   5.881 -1.8847  1.6547 -0.2337
   72MOL   C10618708   0.548   3.856   5.651 -0.9865 -0.9863 -0.1522
   72MOL   C10718709   0.516   3.763   5.538  0.3393  0.2163  0.7648
   72MOL   C10818710   0.597   3.680   5.471 -0.6746 -0.5998  0.5906
   72MOL   C10918711   0.743   3.645   5.517  0.2386 -0.4660 -0.2118
   72MOL   C11018712   0.543   3.604   5.351 -0.1054 -0.0585 -0.2042
   72MOL   H11118713   0.653   3.883   5.648 -1.2302  0.0368  0.2973
   72MOL   H11218714   0.491   3.945   5.624 -0.8808 -0.8969 -0.0804
   72MOL   H11318715   0.416   3.760   5.498  0.2753 -1.5964  1.0118
   72MOL   H11418716   0.744   3.536   5.513 -3.3913 -0.6549  1.4091
   72MOL   H11518717   0.757   3.669   5.622  0.3601 -0.4581 -0.2302
   72MOL   H11618718   0.813   3.697   5.452 -1.0830 -0.3041 -1.5328
   72MOL   H11718719   0.609   3.610   5.264 -1.6316  0.6594 -1.3246
   72MOL   H11818720   0.458   3.662   5.317 -0.1149 -0.9801 -1.8329
   72MOL   C11918721   0.493   3.459   5.366 -0.5534 -0.9831 -0.5201
   72MOL   C12018722   0.435   3.402   5.238 -0.1971 -0.0285 -0.1732
   72MOL   C12118723   0.495   3.311   5.160  0.3025 -0.0987 -0.5750
   72MOL   C12218724   0.636   3.260   5.183  0.5095 -0.5817 -0.2108
   72MOL   C12318725   0.419   3.228   5.051 -0.5614 -0.3980  0.3326
   72MOL   H12418726   0.414   3.458   5.442  0.4240  0.1965  0.5471
   72MOL   H12518727   0.574   3.395   5.403  0.6701  0.7513 -0.1094
   72MOL   H12618728   0.333   3.422   5.209 -0.1308  1.6227  0.6699
   72MOL   H12718729   0.706   3.325   5.235  0.3179  0.7121 -1.5515
   72MOL   H12818730   0.685   3.225   5.093  1.8096 -0.0374  0.2657
   72MOL   H12918731   0.614   3.175   5.248  0.3047  0.5730  1.2689
   72MOL   H13018732   0.441   3.126   5.084 -0.8396 -2.4802 -5.2704
   72MOL   H13118733   0.480   3.269   4.970  0.9046  0.7283  1.9602
   72MOL   C13218734   0.265   3.246   5.019 -0.6621  0.2779 -0.8652
   72MOL   C13318735   0.225   3.177   4.893  0.4512  0.2583  0.8374
   72MOL   C13418736   0.142   3.067   4.886 -0.1767 -0.6987  0.2242
   72MOL   C13518737   0.074   3.002   5.000  0.0407  0.3558 -0.1781
   72MOL   C13618738   0.140   2.995   4.753 -0.1015 -0.5702  0.2369
   72MOL   H13718739   0.242   3.351   5.008  0.0737  0.8636  2.6071
   72MOL   H13818740   0.211   3.205   5.104 -2.2558 -0.2656 -2.1033
   72MOL   H13918741   0.286   3.207   4.808  1.0753  1.4249  1.6857
   72MOL   H14018742   7.848   2.992   4.995 -0.0143  0.4622  0.6571
   72MOL   H14118743   0.098   3.044   5.098 -1.5523 -0.9132  0.7942
   72MOL   H14218744   0.114   2.901   4.987 -2.2432 -0.5185 -0.5971
   72MOL   H14318745   0.217   2.919   4.764  1.7240  1.3678  1.3323
   72MOL   H14418746   0.168   3.073   4.681 -0.2226 -0.9404 -0.2161
   72MOL   C14518747   7.881   2.952   4.713 -0.5733 -0.0897  1.5882
   72MOL   C14618748   7.876   2.863   4.583  0.4047  0.1601 -0.3630
   72MOL   C14718749   7.793   2.871   4.479 -0.5663 -0.3560 -0.5598
   72MOL   C14818750   7.681   2.972   4.454 -0.6850  0.1763 -0.0415
   72MOL   C14918751   7.802   2.762   4.373 -0.2416 -0.0674  0.1263
   72MOL   H15018752   7.824   3.044   4.709  0.9752  0.8319 -1.6588
   72MOL   H15118753   7.839   2.896   4.796 -0.9585 -1.2649  0.6101
   72MOL   H15218754   0.071   2.788   4.577  2.7794  2.5265  0.3281
   72MOL   H15318755   7.587   2.939   4.500 -1.0572  2.3370  0.8104
   72MOL   H15418756   7.656   3.000   4.352 -0.3982 -0.4331 -0.2803
   72MOL   H15518757   7.709   3.064   4.504  0.0974  0.9320 -1.8257
   72MOL   H15618758   7.711   2.712   4.342 -0.0960 -0.7237  0.7502
   72MOL   H15718759   7.871   2.686   4.410  0.8326 -1.3417 -4.1522
   72MOL   C15818760   7.870   2.816   4.245  0.2763 -0.0541  0.1704
   72MOL   C15918761   0.024   2.705   4.153  0.0068  0.2426  0.1286
   72MOL   C16018762   0.141   2.654   4.129 -0.0039  0.5989 -0.8849
   72MOL   C16118763   0.271   2.692   4.209  0.7177  0.4631  1.3797
   72MOL   C16218764   0.166   2.531   4.046 -0.7318  0.0432 -0.9316
   72MOL   H16318765   0.079   2.864   4.281 -0.5199  1.4166  0.2826
   72MOL   H16418766   7.797   2.888   4.209  0.4732  0.1627  0.2063
   72MOL   H16518767   7.819   2.656   4.115 -1.1504  1.8021  0.7239
   72MOL   H16618768   0.294   2.799   4.214  0.4423  0.5849  0.2180
   72MOL   H16718769   0.362   2.653   4.163 -1.6603 -0.9914 -2.3084
   72MOL   H16818770   0.275   2.629   4.297 -1.8348 -1.8553 -0.0738
   72MOL   H16918771   0.266   2.540   4.001 -0.3569 -0.5471 -0.2180
   72MOL   H17018772   0.094   2.532   3.964  0.9771 -0.0515 -2.4888
   72MOL   C17118773   0.163   2.398   4.128  0.2903  0.2756 -0.3793
   72MOL   C17218774   0.041   2.378   4.215 -0.4939 -0.1082  0.4655
   72MOL   C17318775   0.034   2.310   4.333 -0.1815 -0.0023  0.2858
   72MOL   C17418776   0.143   2.220   4.389 -0.5840  0.0705 -0.2737
   72MOL   C17518777   7.792   2.313   4.413 -0.9426  0.0604 -0.2280
   72MOL   H17618778   0.256   2.394   4.184 -1.2703  2.4172  2.4996
   72MOL   H17718779   0.177   2.323   4.050  0.4010  0.6359 -0.7083
   72MOL   H17818780   7.833   2.422   4.175 -0.1757  0.8171  0.7630
   72MOL   H17918781   0.233   2.214   4.327  1.2685 -0.9055  2.3961
   72MOL   H18018782   0.093   2.124   4.403  0.8330 -0.2584  3.1476
   72MOL   H18118783   0.169   2.262   4.486 -1.1424  3.8124 -1.6724
   72MOL   H18218784   7.765   2.208   4.425 -0.2252 -0.0225  0.7360
   72MOL   H18318785   7.713   2.356   4.352  0.3591  0.3609 -1.7104
   72MOL   C18418786   7.801   2.382   4.547 -0.1458  0.6654 -0.3483
   72MOL   C18518787   7.678   2.363   4.625  0.0016  0.3790  0.1772
   72MOL   C18618788   7.611   2.459   4.685  0.2931  0.3251 -0.0774
   72MOL   C18718789   7.656   2.605   4.683 -0.5199  0.0768  0.7735
   72MOL   C18818790   7.480   2.433   4.758  0.1732  0.0300  0.1459
   72MOL   H18918791   7.840   2.483   4.541 -0.7676  0.8584 -1.2500
   72MOL   H19018792   0.002   2.341   4.604  0.3838  0.0864 -1.5337
   72MOL   H19118793   7.642   2.262   4.634  0.5273  0.4143  3.0659
   72MOL   H19218794   7.661   2.643   4.581 -0.8544 -0.8158  0.4219
   72MOL   H19318795   7.757   2.601   4.724 -0.3520 -1.0577  0.2839
   72MOL   H19418796   7.600   2.673   4.747  1.0092  0.9325  1.2038
   72MOL   H19518797   7.479   2.488   4.852  0.9409 -0.3473  0.3838
   72MOL   H19618798   7.458   2.328   4.776  0.2640 -0.1314 -0.6249
   72MOL   C19718799   7.358   2.490   4.675 -0.6725 -0.2432  0.6702
   72MOL   C19818800   7.336   2.404   4.551 -0.1517 -0.4881  0.0658
   72MOL   C19918801   7.349   2.433   4.420  0.6837  0.4428 -0.3798
   72MOL   C20018802   7.385   2.576   4.378 -0.1655  0.2702 -0.3494
   72MOL   C20118803   7.357   2.336   4.307  0.6531  0.7487  0.2873
   72MOL   H20218804   7.366   2.596   4.654 -2.2372 -0.1497  0.4934
   72MOL   H20318805   7.265   2.480   4.731 -1.0884 -1.1820 -0.1638
   72MOL   H20418806   7.337   2.300   4.576 -0.8157  0.1524  2.8806
   72MOL   H20518807   7.413   2.572   4.273  1.9686 -1.7460  0.2521
   72MOL   H20618808   7.476   2.605   4.431  0.9830 -3.8336  0.0591
   72MOL   H20718809   7.300   2.642   4.396 -0.0386  0.3355  0.0219
   72MOL   H20818810   7.388   2.240   4.349  0.6518  1.5594  2.1568
   72MOL   H20918811   7.444   2.355   4.245  0.1152  2.0067 -0.0977
   72MOL   C21018812   7.234   2.337   4.223 -0.2094  0.0486  0.0656
   72MOL   C21118813   7.117   2.293   4.307  0.1028 -0.0335 -0.4550
   72MOL   C21218814   7.074   2.168   4.311 -0.1060 -0.0064 -0.0779
   72MOL   C21318815   7.134   2.052   4.230 -0.0561  0.2873 -0.1839
   72MOL   C21418816   6.959   2.127   4.399  0.7587  0.6618  0.5861
   72MOL   H21518817   7.244   2.273   4.135 -0.8404 -1.1161  0.8202
   72MOL   H21618818   7.213   2.438   4.187 -0.6559 -0.6956 -1.8496
   72MOL   H21718819   7.079   2.367   4.376 -1.2914  0.9536 -2.2468
   72MOL   H21818820   7.237   2.032   4.260 -0.5406 -1.6670  0.2994
   72MOL   H21918821   7.146   2.075   4.124 -0.4501  1.2866 -0.0154
   72MOL   H22018822   7.079   1.961   4.254  0.0290 -0.1495 -1.6242
   72MOL   H22118823   6.875   2.079   4.351  0.3368 -0.6024  2.5546
   72MOL   H22218824   6.912   2.217   4.438 -1.5419  0.3580 -1.4071
   72MOL   C22318825   7.005   2.040   4.524  0.5566 -0.5708 -0.7435
   72MOL   C22418826   6.891   2.016   4.622  1.1157  0.1800 -0.1099
   72MOL   C22518827   6.875   2.073   4.741  1.2500 -0.5835 -0.1220
   72MOL   C22618828   6.983   2.171   4.799  0.8641  0.2761  0.9119
   72MOL   C22718829   6.750   2.043   4.822  0.1128  0.3188 -0.7600
   72MOL   H22818830   7.092   2.086   4.571 -0.2558 -0.5652  0.7914
   72MOL   H22918831   7.042   1.946   4.483 -0.4065 -0.2156 -2.4349
   72MOL   H23018832   6.815   1.949   4.584  1.9518  0.1112 -1.7126
   72MOL   H23118833   6.933   2.225   4.880 -1.9203 -1.2227  0.2435
   72MOL   H23218834   7.025   2.244   4.730 -0.3327  0.7551  0.6680
   72MOL   H23318835   7.069   2.113   4.831  1.6284  1.1186  0.3916
   72MOL   H23418836   6.684   1.971   4.774 -0.2092 -0.6048  0.9914
   72MOL   H23518837   6.698   2.139   4.819 -0.8862  0.0346  3.3819
   72MOL   C23618838   6.780   1.991   4.959  0.4806 -0.2521  0.5900
   72MOL   C23718839   6.666   2.012   5.055  0.1184  0.6627  0.4643
   72MOL   C23818840   6.651   1.954   5.178  0.0667 -0.5325 -0.1915
   72MOL   C23918841   6.754   1.854   5.232  0.3708  0.2406 -0.6464
   72MOL   C24018842   6.541   1.989   5.275  0.4924 -0.2095  0.2771
   72MOL   H24118843   6.863   2.040   5.010 -1.0702  1.6157  1.4059
   72MOL   H24218844   6.811   1.887   4.946  0.0512 -0.1307 -1.4857
   72MOL   H24318845   6.603   2.094   5.021  2.0630  0.4677 -3.8410
   72MOL   H24418846   6.701   1.759   5.224 -0.1561  0.4248  0.5863
   72MOL   H24518847   6.769   1.877   5.337  1.6062  1.4927 -1.0754
   72MOL   H24618848   6.848   1.847   5.178  1.6383 -0.5708  1.6339
   72MOL   H24718849   6.591   2.028   5.364  0.6270  1.4297 -0.4899
   72MOL   H24818850   6.501   1.893   5.307 -0.6027 -0.0761 -0.6282
   72MOL   C24918851   6.437   2.080   5.219 -0.2818  0.0324  0.3969
   72MOL   C25018852   6.317   2.091   5.306  0.6798 -0.0071 -0.8475
   72MOL   C25118853   6.198   2.018   5.305  0.6135  0.0197  0.1824
   72MOL   C25218854   6.159   1.907   5.204  0.1947 -0.0721  0.4008
   72MOL   C25318855   6.088   2.047   5.411  0.4797 -0.2546 -1.0130
   72MOL   H25418856   6.413   2.046   5.118  0.9142 -0.4869  0.2761
   72MOL   H25518857   6.476   2.181   5.217  0.1395 -0.1032  1.3800
   72MOL   H25618858   6.328   2.165   5.383 -1.5237  1.2978 -1.7260
   72MOL   H25718859   6.151   1.810   5.254  1.3479 -0.3869 -0.0012
   72MOL   H25818860   6.240   1.898   5.132 -0.6830 -1.2296 -0.4639
   72MOL   H25918861   6.065   1.931   5.154 -1.3723 -1.8403  2.4139
   72MOL   H26018862   6.000   2.091   5.364  0.5309 -1.7927 -2.6119
   72MOL   H26118863   6.121   2.121   5.484  0.4516 -0.3972 -0.8537
   72MOL   H26218864   6.056   1.952   5.455  1.0385  0.8713  1.9851
   73MOL     C118865   6.186   0.348   6.330 -0.1729 -0.2325  0.4385
   73MOL     C218866   6.102   0.465   6.384  0.0936 -0.0813 -0.3652
   73MOL     C318867   6.000   0.520   6.316  0.2562 -0.0399 -0.1963
   73MOL     C418868   5.955   0.473   6.182  0.3453 -0.2053 -0.3667
   73MOL     C518869   5.916   0.634   6.373  0.7099 -0.8095  0.2639
   73MOL     H618870   6.275   0.379   6.275  0.8999 -2.0178  1.1046
   73MOL     H718871   6.212   0.274   6.405 -1.4471  0.2547  1.3686
   73MOL     H818872   6.140   0.509   6.475 -0.7414 -2.8790  1.4110
   73MOL     H918873   5.908   0.383   6.222  0.8979 -1.0823 -1.6879
   73MOL    H1018874   6.041   0.467   6.116  1.9447  1.4696  1.4842
   73MOL    H1118875   5.870   0.528   6.143  0.6264 -0.5929 -1.5206
   73MOL    H1218876   5.925   0.718   6.305  2.6866  0.3361  1.9120
   73MOL    H1318877   5.970   0.679   6.456  0.5841 -0.7405  0.3095
   73MOL    H1418878   6.134   0.287   6.256  0.7592  0.5564 -0.9018
   73MOL    C1518879   5.774   0.599   6.394 -0.6876  0.1754 -0.4355
   73MOL    C1618880   5.707   0.700   6.491 -0.1119  0.9937  0.1558
   73MOL    C1718881   5.689   0.669   6.623  0.3950 -0.0311  0.0196
   73MOL    C1818882   5.728   0.539   6.683  0.2014  1.0317 -0.1386
   73MOL    C1918883   5.648   0.781   6.721  0.3575  0.7104  0.6696
   73MOL    H2018884   5.770   0.497   6.434 -0.4800  0.5968  0.6719
   73MOL    H2118885   5.730   0.620   6.296 -2.2176 -2.5177 -0.3949
   73MOL    H2218886   5.680   0.794   6.446  1.2252  1.5917  0.5725
   73MOL    H2318887   5.831   0.513   6.658  0.2743 -0.0308  1.2078
   73MOL    H2418888   5.663   0.461   6.644  1.7162 -0.2499 -0.1459
   73MOL    H2518889   5.692   0.537   6.786  2.3465  3.1154  0.6889
   73MOL    H2618890   5.646   0.874   6.664 -1.4967 -0.4808 -1.3057
   73MOL    H2718891   5.727   0.801   6.794  1.4399  1.2304 -0.6229
   73MOL    C2818892   5.504   0.766   6.792  0.2243 -0.9347  0.3499
   73MOL    C2918893   5.383   0.776   6.698  0.3088  0.3949  0.0623
   73MOL    C3018894   5.299   0.676   6.661 -0.7324 -1.0612  0.4873
   73MOL    C3118895   5.315   0.531   6.707 -1.1630 -0.0627 -0.0311
   73MOL    C3218896   5.181   0.695   6.562  0.0982 -0.2819  0.2614
   73MOL    H3318897   5.493   0.852   6.858  0.2605 -0.6996  0.0484
   73MOL    H3418898   5.502   0.684   6.864 -1.2290 -0.4283  0.8901
   73MOL    H3518899   5.367   0.876   6.660 -0.1991 -0.1289 -1.1146
   73MOL    H3618900   5.360   0.467   6.631 -0.5115  2.2229 -1.6342
   73MOL    H3718901   5.230   0.482   6.753  0.5182 -3.6727 -0.6004
   73MOL    H3818902   5.393   0.521   6.783 -0.4398  0.2105 -0.7294
   73MOL    H3918903   5.157   0.800   6.547  1.5656 -0.1658 -1.5047
   73MOL    H4018904   5.092   0.660   6.613  1.1026 -0.7118  1.7518
   73MOL    C4118905   5.180   0.635   6.412 -0.2350  0.1772  0.3351
   73MOL    C4218906   5.283   0.688   6.316  0.3439  0.6204  0.5646
   73MOL    C4318907   5.263   0.715   6.183  0.0773 -0.1011  0.4753
   73MOL    C4418908   5.131   0.680   6.112  0.7846 -0.0296 -0.3234
   73MOL    C4518909   5.369   0.789   6.102  0.3095 -0.0006  0.2542
   73MOL    H4618910   5.086   0.678   6.375  1.0240  2.7220 -0.0418
   73MOL    H4718911   5.172   0.527   6.426 -0.3250  0.3840  2.0503
   73MOL    H4818912   5.372   0.728   6.362  0.5523  2.7321 -1.5836
   73MOL    H4918913   5.063   0.640   6.187 -0.4454  0.7955 -0.9867
   73MOL    H5018914   5.152   0.602   6.039 -0.5771 -0.8450  0.1582
   73MOL    H5118915   5.093   0.778   6.082 -0.0839  0.0713  1.0824
   73MOL    H5218916   5.460   0.816   6.155  0.0674  2.5377 -0.5388
   73MOL    H5318917   5.331   0.884   6.064  0.0569  0.3195  1.2691
   73MOL    C5418918   5.409   0.710   5.980 -0.1855  0.2357 -0.0286
   73MOL    C5518919   5.521   0.773   5.895 -0.1172 -0.4563 -0.3523
   73MOL    C5618920   5.635   0.710   5.852 -0.3307 -0.0117  0.7593
   73MOL    C5718921   5.672   0.571   5.883 -0.3904  0.5489 -0.1565
   73MOL    C5818922   5.735   0.776   5.760  0.3563 -0.2310 -0.9296
   73MOL    H5918923   5.321   0.710   5.915  0.9940 -2.0578 -1.6832
   73MOL    H6018924   5.438   0.615   6.025 -0.3024  1.2318  2.2608
   73MOL    H6118925   5.512   0.877   5.866  2.0826 -0.4073 -0.9025
   73MOL    H6218926   5.617   0.529   5.967  1.2132  1.2883  1.2991
   73MOL    H6318927   5.774   0.556   5.918 -0.8608 -0.4299  0.8466
   73MOL    H6418928   5.657   0.508   5.795 -0.9594  0.5514 -0.0642
   73MOL    H6518929   5.830   0.744   5.803  0.1442  0.6724  0.2478
   73MOL    H6618930   5.734   0.883   5.779  0.9277 -0.7164  2.2522
   73MOL    C6718931   5.719   0.737   5.620  0.2279 -0.0654  0.5622
   73MOL    C6818932   5.774   0.840   5.528 -0.7155  0.7604  0.2267
   73MOL    C6918933   5.709   0.903   5.424  0.4336 -0.0472 -0.0308
   73MOL    C7018934   5.563   0.869   5.387  0.1008 -0.1775 -0.2206
   73MOL    C7118935   5.780   1.008   5.335 -0.1173  0.5028  0.3735
   73MOL    H7218936   5.611   0.722   5.612 -0.2111  2.7833  0.5980
   73MOL    H7318937   5.768   0.641   5.603  0.4445  0.1212  0.1106
   73MOL    H7418938   5.881   0.858   5.532  0.2433 -3.8254 -1.9727
   73MOL    H7518939   5.528   0.972   5.384  2.4485  0.6294 -1.3904
   73MOL    H7618940   5.499   0.807   5.449  2.1528 -1.3166  0.8147
   73MOL    H7718941   5.553   0.839   5.283 -1.3282 -1.3361  0.2408
   73MOL    H7818942   5.856   1.070   5.382 -0.3901  1.1916 -0.0970
   73MOL    H7918943   5.715   1.093   5.316 -0.1827 -0.1784 -2.7154
   73MOL    C8018944   5.847   0.942   5.212 -0.2364  0.1039  0.3965
   73MOL    C8118945   5.964   0.852   5.256 -0.3311 -0.1371  0.7792
   73MOL    C8218946   6.030   0.756   5.190  0.5648 -0.3465 -0.0154
   73MOL    C8318947   6.001   0.700   5.050  0.6480 -0.3138 -0.4054
   73MOL    C8418948   6.149   0.688   5.259 -0.9581  0.1765 -0.1060
   73MOL    H8518949   5.885   1.016   5.141  0.8638 -1.9071 -1.1549
   73MOL    H8618950   5.783   0.879   5.151 -1.8684 -0.6259  2.8070
   73MOL    H8718951   6.006   0.882   5.351  1.3515 -2.0751  0.6789
   73MOL    H8818952   5.906   0.739   5.013 -0.3446 -1.2093  1.1347
   73MOL    H8918953   6.005   0.591   5.042  0.6374 -0.2974 -0.6418
   73MOL    H9018954   6.068   0.738   4.973  0.9462  0.9955  0.4930
   73MOL    H9118955   6.128   0.581   5.250 -1.3022  0.1990  0.4259
   73MOL    H9218956   6.147   0.699   5.368 -0.3654  0.8852 -0.1602
   73MOL    C9318957   6.286   0.719   5.188  0.1588 -0.3272  0.6852
   73MOL    C9418958   6.409   0.631   5.226  0.2198  0.2633  0.1513
   73MOL    C9518959   6.421   0.505   5.170  0.9943  0.1373  0.6979
   73MOL    C9618960   6.313   0.450   5.085  0.4133 -0.6895 -0.3286
   73MOL    C9718961   6.538   0.409   5.199 -0.3438  0.1630  0.2628
   73MOL    H9818962   6.309   0.821   5.220 -0.1121 -0.2949  0.7809
   73MOL    H9918963   6.283   0.714   5.080  0.4325 -1.5311  0.7289
   73MOL   H10018964   6.483   0.672   5.293  0.5781  2.9905 -1.8074
   73MOL   H10118965   6.217   0.500   5.088  0.8217 -0.0289  2.6144
   73MOL   H10218966   6.289   0.348   5.115  2.6314 -1.0471  0.3578
   73MOL   H10318967   6.353   0.455   4.983  2.7463  0.6469  0.6125
   73MOL   H10418968   6.620   0.458   5.251 -2.1963  0.9700  2.5225
   73MOL   H10518969   6.577   0.373   5.104  0.2026  0.4131  0.3902
   73MOL   C10618970   6.491   0.298   5.302 -0.5564  0.3632 -0.4104
   73MOL   C10718971   6.606   0.209   5.332 -0.0001  0.4842  0.9114
   73MOL   C10818972   6.588   0.079   5.365  0.1556  0.3726 -0.4290
   73MOL   C10918973   6.457   0.011   5.370 -0.2311  0.3811 -0.0588
   73MOL   C11018974   6.711   7.877   5.398 -0.2396 -0.4530 -0.3933
   73MOL   H11118975   6.406   0.242   5.261  0.3735 -0.2258 -1.5680
   73MOL   H11218976   6.471   0.337   5.401  3.9640  1.9865 -0.0199
   73MOL   H11318977   6.703   0.255   5.338  0.3104 -0.1383  0.7223
   73MOL   H11418978   6.392   0.089   5.409  0.1381 -0.7688  2.9404
   73MOL   H11518979   6.451   7.810   5.439  1.1011  0.5155  0.2172
   73MOL   H11618980   6.426   7.851   5.274 -0.1989 -1.1458  0.5872
   73MOL   H11718981   6.694   7.818   5.488  0.8225 -1.5632 -0.9111
   73MOL   H11818982   6.797   0.055   5.425  0.2265 -2.0549  1.8048
   73MOL   C11918983   6.747   7.786   5.284  0.2608  0.3284  0.5251
   73MOL   C12018984   6.862   7.689   5.299  0.1162  0.1628  0.4022
   73MOL   C12118985   6.865   7.564   5.254  0.0181  0.1133  0.1968
   73MOL   C12218986   6.753   7.480   5.198 -0.0188 -0.1478  0.1506
   73MOL   C12318987   6.997   7.493   5.277  0.4471  0.1718  0.1142
   73MOL   H12418988   6.768   7.843   5.193  0.3753 -2.8989 -1.5483
   73MOL   H12518989   6.657   7.731   5.259  1.7258 -1.5815 -0.6581
   73MOL   H12618990   6.951   7.729   5.346  1.9354 -1.9922 -1.1443
   73MOL   H12718991   6.783   7.440   5.101 -1.7114  2.2134 -1.3888
   73MOL   H12818992   6.651   7.518   5.202 -0.2101 -0.4971 -1.2305
   73MOL   H12918993   6.741   7.392   5.261  0.9236 -0.6665 -0.3766
   73MOL   H13018994   6.973   7.396   5.322 -2.6318  0.2988 -1.1059
   73MOL   H13118995   7.051   7.544   5.356 -1.1288  3.2914 -0.7447
   73MOL   C13218996   7.092   7.485   5.155 -0.2596  0.4318 -0.4067
   73MOL   C13318997   7.239   7.467   5.203  0.2900 -0.0970 -0.4657
   73MOL   C13418998   7.345   7.539   5.159  0.5575 -0.1232  0.0155
   73MOL   C13518999   7.344   7.644   5.050  0.4126  0.1157 -0.9712
   73MOL   C13619000   7.482   7.525   5.226  0.6009 -0.6243  0.0589
   73MOL   H13719001   7.088   7.579   5.100 -1.8526 -0.4114 -1.7685
   73MOL   H13819002   7.059   7.402   5.093 -1.9502  1.3074 -0.7059
   73MOL   H13919003   7.249   7.386   5.274  0.9668 -0.3776 -0.8777
   73MOL   H14019004   7.355   7.749   5.076  2.1078  0.1043 -1.5884
   73MOL   H14119005   7.268   7.637   4.972 -2.2431 -1.4293  1.6321
   73MOL   H14219006   7.432   7.625   4.989  0.2308  0.7209 -1.4263
   73MOL   H14319007   7.552   7.498   5.147  0.1501  3.0528 -1.6943
   73MOL   H14419008   7.487   7.450   5.306 -1.8056  0.8238  1.6432
   73MOL   C14519009   7.537   7.658   5.275  0.4996 -0.3821  0.4909
   73MOL   C14619010   7.660   7.633   5.357 -0.0542 -0.8624 -0.1761
   73MOL   C14719011   7.785   7.688   5.333  0.7368  0.0479 -0.1281
   73MOL   C14819012   7.824   7.781   5.220  0.4964 -0.1349 -0.7393
   73MOL   C14919013   0.023   7.651   5.425 -0.3581  0.2805  0.4628
   73MOL   H15019014   7.462   7.705   5.338  0.4912 -2.2313  1.8910
   73MOL   H15119015   7.557   7.730   5.195 -0.4035  1.0685  1.5397
   73MOL   H15219016   7.655   7.558   5.436 -1.0335 -0.6517 -0.0265
   73MOL   H15319017   0.002   7.863   5.258 -1.1153  0.2038  1.2168
   73MOL   H15419018   7.745   7.826   5.159  0.5057  0.6041 -0.2040
   73MOL   H15519019   7.875   7.722   5.144  1.6237  1.3854 -1.1883
   73MOL   H15619020   7.882   7.635   5.530 -0.4237 -0.8022  0.2972
   73MOL   H15719021   0.078   7.744   5.432  1.5069 -0.8062  0.6691
   73MOL   C15819022   0.116   7.546   5.356 -0.2286 -0.1823 -0.1438
   73MOL   C15919023   0.045   7.410   5.333  0.0448 -0.1430  0.0506
   73MOL   C16019024   0.089   7.318   5.245  0.0140  0.1777 -0.2645
   73MOL   C16119025   0.212   7.337   5.160 -0.4216 -0.1675  0.4641
   73MOL   C16219026   0.019   7.183   5.229 -0.6454 -0.1481  0.3994
   73MOL   H16319027   0.202   7.518   5.417  0.8235  0.0536 -1.5101
   73MOL   H16419028   0.153   7.578   5.259 -1.2624 -2.1749 -1.2230
   73MOL   H16519029   7.837   7.390   5.387  0.7310 -1.7081  0.6420
   73MOL   H16619030   0.282   7.409   5.203  0.7634 -1.2068  0.2988
   73MOL   H16719031   0.184   7.365   5.059  0.6796 -0.6401  0.0237
   73MOL   H16819032   0.272   7.246   5.151  2.1994  1.2822  2.5901
   73MOL   H16919033   0.002   7.178   5.121 -0.0812 -2.2915  0.3771
   73MOL   H17019034   7.805   7.186   5.278 -0.3258 -1.2761  1.1316
   73MOL   C17119035   0.100   7.058   5.279 -0.0928 -0.1255 -0.1325
   73MOL   C17219036   0.066   6.930   5.200 -0.6459 -0.6526 -0.3878
   73MOL   C17319037   0.024   6.808   5.237 -0.4897  0.4171  0.0911
   73MOL   C17419038   0.024   6.758   5.380 -0.4220 -0.1490 -0.6381
   73MOL   C17519039   7.871   6.702   5.127 -1.0849 -0.0457 -0.3718
   73MOL   H17619040   0.081   7.048   5.386  1.3509 -0.8657  0.0636
   73MOL   H17719041   0.209   7.060   5.279  0.0607 -4.0077  2.1652
   73MOL   H17819042   0.076   6.938   5.093  1.6960 -0.5165 -0.1995
   73MOL   H17919043   0.098   6.679   5.386  1.9845  2.1817  1.4586
   73MOL   H18019044   7.810   6.722   5.415  0.1378 -0.6902  0.3444
   73MOL   H18119045   0.052   6.827   5.459 -1.2598 -1.9213  1.2304
   73MOL   H18219046   7.836   6.737   5.030 -1.2736  1.4229  0.2225
   73MOL   H18319047   7.790   6.646   5.175  0.6072 -1.2535  1.1297
   73MOL   C18419048   0.113   6.616   5.114  0.0315  0.4638  0.8995
   73MOL   C18519049   0.102   6.518   4.994  0.1400  0.2375  0.1458
   73MOL   C18619050   0.127   6.383   5.000 -0.0226 -0.1823 -0.2431
   73MOL   C18719051   0.160   6.313   5.129 -0.1931  0.8151 -0.3281
   73MOL   C18819052   0.098   6.291   4.882  0.4261  0.1158  0.8651
   73MOL   H18919053   0.121   6.562   5.209 -1.8310  1.5535  1.7120
   73MOL   H19019054   0.207   6.670   5.110  0.2357 -0.0410 -1.1721
   73MOL   H19119055   0.056   6.557   4.904  0.6322 -0.1518 -0.2728
   73MOL   H19219056   0.221   6.369   5.199  0.7807 -0.7250  0.0908
   73MOL   H19319057   0.226   6.230   5.102  0.1289  1.1762 -0.6611
   73MOL   H19419058   0.070   6.276   5.178 -1.4336  0.5108 -2.7577
   73MOL   H19519059   0.054   6.360   4.811 -0.0722 -1.3070 -0.2282
   73MOL   H19619060   0.030   6.208   4.901 -0.6183  0.9111  0.6759
   73MOL   C19719061   0.227   6.236   4.816  0.4515  0.0606 -0.2379
   73MOL   C19819062   0.182   6.140   4.700 -0.0080  0.3745 -0.2790
   73MOL   C19919063   0.268   6.094   4.603 -0.3287 -0.5610 -1.0714
   73MOL   C20019064   0.417   6.121   4.603 -0.9391 -0.5823 -0.1793
   73MOL   C20119065   0.221   5.999   4.495 -0.2291  0.5301 -0.8309
   73MOL   H20219066   0.295   6.184   4.884 -1.4211  1.0940  2.5030
   73MOL   H20319067   0.275   6.327   4.779 -1.1069  0.8212 -0.4277
   73MOL   H20419068   0.080   6.106   4.697 -0.4237  1.4298  1.1749
   73MOL   H20519069   0.447   6.162   4.699 -1.7309 -0.6623  0.1068
   73MOL   H20619070   0.434   6.197   4.526 -4.4245 -0.7231 -1.1896
   73MOL   H20719071   0.482   6.038   4.575  1.2334  0.3819  1.8294
   73MOL   H20819072   0.138   5.949   4.545 -1.4435  2.6934 -0.6641
   73MOL   H20919073   0.299   5.924   4.485 -0.2524  0.3570  0.1712
   73MOL   C21019074   0.181   6.065   4.360 -0.6260 -0.1642 -0.0054
   73MOL   C21119075   0.111   5.974   4.258  0.7229  0.6710 -0.2352
   73MOL   C21219076   0.023   6.008   4.165  0.3241 -0.7348  0.0051
   73MOL   C21319077   7.853   6.149   4.144  0.1721  0.5399 -0.6004
   73MOL   C21419078   7.841   5.907   4.073 -0.4546  0.4308 -0.0470
   73MOL   H21519079   0.265   6.114   4.310 -2.7962  0.6765 -2.9880
   73MOL   H21619080   0.126   6.158   4.376 -1.7962 -0.7036 -0.8137
   73MOL   H21719081   0.138   5.870   4.258 -3.7065 -0.6015 -1.7007
   73MOL   H21819082   7.745   6.154   4.160  0.2461  1.6029 -0.3901
   73MOL   H21919083   7.878   6.194   4.048  0.8073  1.2427 -0.1180
   73MOL   H22019084   0.021   6.219   4.211 -1.0294  0.0346  0.8646
   73MOL   H22119085   7.735   5.932   4.076 -0.9382 -1.6633  0.6268
   73MOL   H22219086   7.846   5.811   4.123  2.8513  0.1010 -0.8958
   73MOL   C22319087   0.006   5.902   3.926 -0.4196  0.4082 -0.7613
   73MOL   C22419088   7.820   5.789   3.851 -0.9153 -0.3913 -1.0746
   73MOL   C22519089   7.868   5.676   3.785  0.5009 -0.2004  0.1841
   73MOL   C22619090   0.127   5.638   3.786 -0.2113  0.0413 -0.0093
   73MOL   C22719091   7.775   5.582   3.711  0.3000  0.4632 -0.1303
   73MOL   H22819092   0.113   5.907   3.949 -0.8833 -0.7893  1.8506
   73MOL   H22919093   7.871   5.998   3.877 -1.4391  0.1596 -0.8953
   73MOL   H23019094   7.713   5.797   3.840 -1.0576  0.9904  1.1072
   73MOL   H23119095   0.192   5.725   3.783 -0.6320  0.3641  0.3414
   73MOL   H23219096   0.151   5.584   3.693  1.7264 -1.1055  1.1168
   73MOL   H23319097   0.152   5.575   3.871 -1.5183  0.7251  0.9032
   73MOL   H23419098   7.809   5.583   3.608 -1.1550  1.2775 -0.6217
   73MOL   H23519099   7.675   5.625   3.708  0.1638  0.1690  0.1220
   73MOL   C23619100   7.764   5.441   3.764  0.6498  0.6321  0.4920
   73MOL   C23719101   7.656   5.367   3.680 -0.2532 -0.1459 -0.5620
   73MOL   C23819102   7.675   5.255   3.608 -0.3949 -0.2356 -0.0158
   73MOL   C23919103   7.802   5.170   3.611  0.3732  0.0860 -0.2837
   73MOL   C24019104   7.565   5.193   3.520 -0.1232  0.0919 -0.1650
   73MOL   H24119105   7.742   5.433   3.871  1.4848  2.5215  0.8259
   73MOL   H24219106   7.858   5.385   3.765  0.4786  0.3388 -0.0568
   73MOL   H24319107   7.562   5.418   3.671 -0.8703 -1.1482  0.1021
   73MOL   H24419108   7.839   5.178   3.713 -1.1102 -1.3106  0.3948
   73MOL   H24519109   7.864   5.219   3.537  0.3853  0.3296 -0.1121
   73MOL   H24619110   7.775   5.067   3.589  0.2093 -0.1327  0.8821
   73MOL   H24719111   7.613   5.183   3.422 -1.4747 -0.0031 -0.8311
   73MOL   H24819112   7.484   5.265   3.512 -0.1270 -0.1298 -2.5419
   73MOL   C24919113   7.506   5.058   3.558 -0.9442  0.3655 -0.0179
   73MOL   C25019114   7.383   5.011   3.483 -0.1041  0.0640 -0.2420
   73MOL   C25119115   7.305   4.902   3.506  0.6201  0.6907 -0.4317
   73MOL   C25219116   7.324   4.804   3.629  0.0346 -0.3890  0.3316
   73MOL   C25319117   7.188   4.872   3.405 -0.0211 -0.1846 -0.7060
   73MOL   H25419118   7.459   5.070   3.656 -2.8892 -1.4760 -0.6817
   73MOL   H25519119   7.574   4.974   3.555  1.9803  2.6496 -0.0793
   73MOL   H25619120   7.358   5.057   3.389  1.7886  2.4530  0.3683
   73MOL   H25719121   7.429   4.804   3.659  0.1293  1.9519  0.1352
   73MOL   H25819122   7.310   4.704   3.590 -2.1563 -0.0038  0.0586
   73MOL   H25919123   7.260   4.828   3.714 -0.8816 -3.0869  0.4274
   73MOL   H26019124   7.156   4.961   3.351  2.3148  0.9106 -0.3256
   73MOL   H26119125   7.111   4.829   3.470  1.2318  0.0649  0.9940
   73MOL   H26219126   7.223   4.799   3.332  0.3654 -0.5170 -0.1992
   74MOL     C119127   0.718   6.563   1.451  0.7843  0.5897 -0.5752
   74MOL     C219128   0.831   6.520   1.544  0.3290  0.5066 -0.1887
   74MOL     C319129   0.933   6.442   1.519  0.7940 -0.2183  0.2725
   74MOL     C419130   0.957   6.382   1.389  0.2657  0.0221  0.0329
   74MOL     C519131   1.029   6.407   1.631 -0.7305  0.9825  0.6063
   74MOL     H619132   0.656   6.641   1.497  1.7644 -0.1809  2.1516
   74MOL     H719133   0.754   6.581   1.350  0.5366  1.9075 -0.4391
   74MOL     H819134   0.831   6.557   1.645 -1.1082  1.1790 -0.4334
   74MOL     H919135   0.966   6.274   1.400  0.0112  0.0637  0.6605
   74MOL    H1019136   1.059   6.405   1.358  0.8306 -0.1273  1.7313
   74MOL    H1119137   0.892   6.404   1.304 -0.2199 -0.8821  0.1718
   74MOL    H1219138   1.004   6.462   1.722 -0.3120  2.5610 -0.2130
   74MOL    H1319139   1.129   6.448   1.617 -0.0359  0.0471  2.5789
   74MOL    H1419140   0.653   6.476   1.443  0.3438  0.9205 -0.6212
   74MOL    C1519141   1.046   6.255   1.655 -0.1465 -0.7009 -0.3054
   74MOL    C1619142   1.144   6.216   1.768  0.1653 -0.7986 -0.2139
   74MOL    C1719143   1.180   6.095   1.816  0.1087  0.4626 -0.7206
   74MOL    C1819144   1.110   5.968   1.775  0.1345 -0.3662 -0.1996
   74MOL    C1919145   1.291   6.077   1.918  0.5377 -0.3355 -0.1218
   74MOL    H2019146   1.086   6.203   1.568  0.2616 -0.2082 -0.4183
   74MOL    H2119147   0.951   6.212   1.685 -0.2745 -0.9227 -1.0175
   74MOL    H2219148   1.194   6.298   1.818 -2.5177 -1.0132  3.0400
   74MOL    H2319149   1.054   5.936   1.862 -3.0568  0.9096 -1.7100
   74MOL    H2419150   1.182   5.886   1.765  1.3055  0.4359  1.4614
   74MOL    H2519151   1.053   5.991   1.685 -1.9237  1.3021  1.4948
   74MOL    H2619152   1.314   6.177   1.956 -1.2145  0.2288 -0.4740
   74MOL    H2719153   1.385   6.037   1.881 -0.5534 -2.9845 -0.1420
   74MOL    C2819154   1.262   5.991   2.042  0.1384  0.1503 -0.3227
   74MOL    C2919155   1.368   5.988   2.150 -0.2785 -0.2369  0.4095
   74MOL    C3019156   1.357   6.058   2.267 -0.3930 -0.0863 -0.2354
   74MOL    C3119157   1.235   6.147   2.305 -0.0533 -0.2849  0.3075
   74MOL    C3219158   1.469   6.051   2.370 -0.1667 -0.1970 -0.2959
   74MOL    H3319159   1.237   5.894   1.999 -0.2876  0.5206 -0.9365
   74MOL    H3419160   1.168   6.028   2.084  0.1914 -1.5793  1.3767
   74MOL    H3519161   1.451   5.921   2.135 -1.2864 -1.3859 -0.1122
   74MOL    H3619162   1.271   6.214   2.383  0.4430  0.6967 -0.7566
   74MOL    H3719163   1.148   6.091   2.340  0.3403  0.0076  1.7842
   74MOL    H3819164   1.204   6.213   2.224  0.7369  0.8316  0.8987
   74MOL    H3919165   1.485   6.151   2.410 -0.1069 -0.5035  0.4469
   74MOL    H4019166   1.564   6.027   2.323 -0.2850  0.3144 -0.8048
   74MOL    C4119167   1.446   5.944   2.481  0.1266 -0.4094 -0.1273
   74MOL    C4219168   1.576   5.932   2.564  0.0977 -0.2637 -1.0149
   74MOL    C4319169   1.580   5.909   2.698  0.1005  0.3685  0.6296
   74MOL    C4419170   1.451   5.916   2.771  0.3441  0.7760 -0.6013
   74MOL    C4519171   1.708   5.883   2.771  0.0241 -0.1883 -0.3918
   74MOL    H4619172   1.431   5.844   2.441 -0.1389 -0.4246  0.0102
   74MOL    H4719173   1.358   5.979   2.535 -0.1051 -1.7213  0.3768
   74MOL    H4819174   1.666   5.931   2.503  1.9373 -0.3523  1.6055
   74MOL    H4919175   1.483   5.907   2.875  1.5681 -1.7287 -1.1609
   74MOL    H5019176   1.385   5.835   2.739  1.9131 -0.5876 -0.5029
   74MOL    H5119177   1.394   6.008   2.763 -3.8007 -1.5921  0.3570
   74MOL    H5219178   1.771   5.829   2.701  1.2156 -0.7340  1.0607
   74MOL    H5319179   1.690   5.800   2.840 -4.3476  1.8185  1.0732
   74MOL    C5419180   1.777   6.002   2.844  0.7017 -0.0994  0.0837
   74MOL    C5519181   1.897   5.968   2.913 -0.1075  0.0966  0.1601
   74MOL    C5619182   1.982   6.050   2.974 -0.5698 -0.4509  0.3587
   74MOL    C5719183   1.965   6.203   2.952  0.2409 -0.4792  0.3591
   74MOL    C5819184   2.103   6.015   3.058  0.5725 -0.4940  0.3665
   74MOL    H5919185   1.704   6.035   2.918  0.9655  0.6405  0.0192
   74MOL    H6019186   1.793   6.088   2.778 -1.1821  1.3531  1.4440
   74MOL    H6119187   1.899   5.862   2.936 -0.3434 -0.0919 -0.6562
   74MOL    H6219188   2.009   6.266   3.029 -3.0154  1.4668  0.7416
   74MOL    H6319189   1.858   6.223   2.963  0.4271 -1.0100  3.3590
   74MOL    H6419190   2.007   6.220   2.853  0.7027 -1.0133  0.4632
   74MOL    H6519191   2.109   5.911   3.089 -3.4785 -0.6860  0.7304
   74MOL    H6619192   2.088   6.065   3.154 -1.2549 -0.6875  0.2037
   74MOL    C6719193   2.234   6.055   2.985  0.8193 -0.5504 -0.6682
   74MOL    C6819194   2.355   6.041   3.067 -0.3722  0.7638  0.2529
   74MOL    C6919195   2.480   6.079   3.039  0.0969  0.4606 -0.3505
   74MOL    C7019196   2.520   6.134   2.901  0.1383 -0.4973 -1.1592
   74MOL    C7119197   2.595   6.053   3.137  0.5052 -0.1054  0.7661
   74MOL    H7219198   2.221   6.153   2.938  0.0243 -2.4426 -4.6645
   74MOL    H7319199   2.240   5.994   2.895  1.5480 -0.7300 -0.4974
   74MOL    H7419200   2.334   5.991   3.160  0.3046 -2.8842 -1.4758
   74MOL    H7519201   2.556   6.064   2.825 -1.2660 -1.5729 -0.8503
   74MOL    H7619202   2.603   6.201   2.920  0.2068 -0.9498  0.1974
   74MOL    H7719203   2.441   6.192   2.852 -1.3180  0.1635  1.8552
   74MOL    H7819204   2.626   6.154   3.164 -0.0778  0.4803 -0.6895
   74MOL    H7919205   2.690   6.022   3.094  0.9040  3.3061 -1.0791
   74MOL    C8019206   2.554   5.969   3.261 -0.0924  0.1156  0.1727
   74MOL    C8119207   2.662   5.986   3.374  0.4331  0.4025  0.0914
   74MOL    C8219208   2.751   5.888   3.408 -0.5996  0.0877  0.4124
   74MOL    C8319209   2.772   5.757   3.338  0.2847 -0.5696  0.4239
   74MOL    C8419210   2.849   5.910   3.530  0.1792  0.1619  0.6033
   74MOL    H8519211   2.530   5.868   3.228 -0.5423 -0.3953  2.0317
   74MOL    H8619212   2.467   6.006   3.316  1.5552  2.8897  1.0333
   74MOL    H8719213   2.659   6.074   3.437 -0.6938 -0.2751  1.0064
   74MOL    H8819214   2.868   5.763   3.287  0.7291  0.5385  1.3762
   74MOL    H8919215   2.696   5.734   3.264 -1.1463  1.5096  1.1910
   74MOL    H9019216   2.772   5.675   3.410 -1.0445  0.1683  1.2855
   74MOL    H9119217   2.815   5.830   3.596  0.8569  1.0543  2.0610
   74MOL    H9219218   2.829   6.005   3.580 -2.1008  0.0488 -0.0484
   74MOL    C9319219   3.000   5.890   3.491  0.7447 -0.0719  0.4384
   74MOL    C9419220   3.089   5.884   3.616 -0.5058 -0.4521  0.2210
   74MOL    C9519221   3.150   5.977   3.685 -0.4077  0.3887 -0.3559
   74MOL    C9619222   3.136   6.126   3.659  0.6213  0.1230 -0.1022
   74MOL    C9719223   3.224   5.943   3.816  0.9800  0.1146  0.0231
   74MOL    H9819224   3.032   5.959   3.413  0.0587  0.1131  0.3185
   74MOL    H9919225   3.000   5.793   3.441 -1.7312  0.6762 -1.1061
   74MOL   H10019226   3.097   5.782   3.649  2.9168 -0.6456 -0.9358
   74MOL   H10119227   3.221   6.167   3.604  1.0671  2.6502  2.3596
   74MOL   H10219228   3.139   6.184   3.751  0.6297  2.9817 -1.8204
   74MOL   H10319229   3.050   6.148   3.595 -0.1417  0.9022  1.1786
   74MOL   H10419230   3.316   6.001   3.824  1.7083 -1.1561  0.9206
   74MOL   H10519231   3.248   5.837   3.808 -1.3071 -0.5415  1.2918
   74MOL   C10619232   3.135   5.970   3.938 -0.2809 -0.5685 -0.3490
   74MOL   C10719233   2.987   5.925   3.930  0.4586 -0.0016 -0.9215
   74MOL   C10819234   2.925   5.869   4.033  1.0280  0.5247 -0.1246
   74MOL   C10919235   2.979   5.845   4.174 -0.2587 -0.6771  0.0001
   74MOL   C11019236   2.777   5.816   4.014 -0.2710  0.8633  0.5170
   74MOL   H11119237   3.141   6.078   3.958  1.1823 -0.7225  0.1331
   74MOL   H11219238   3.183   5.936   4.030 -1.8474 -0.8709  0.3703
   74MOL   H11319239   2.937   5.940   3.835  2.6053  2.0921 -1.7466
   74MOL   H11419240   2.893   5.843   4.242 -0.5510  0.3059 -0.3382
   74MOL   H11519241   3.046   5.926   4.201  3.5919 -2.4333 -3.6802
   74MOL   H11619242   3.028   5.749   4.189 -0.2815 -1.0211 -1.9753
   74MOL   H11719243   2.746   5.855   3.917  0.5442 -0.3233 -0.2407
   74MOL   H11819244   2.708   5.858   4.087 -1.1140  1.4966 -0.6347
   74MOL   C11919245   2.769   5.666   4.016 -0.0258  0.4332  0.2290
   74MOL   C12019246   2.656   5.615   3.943 -0.5645 -0.2592 -0.2236
   74MOL   C12119247   2.663   5.549   3.825 -0.6972  0.1647 -0.1027
   74MOL   C12219248   2.787   5.524   3.739  0.1056 -0.7833 -0.0021
   74MOL   C12319249   2.531   5.499   3.763 -0.9870 -0.1101  0.1553
   74MOL   H12419250   2.768   5.627   4.118 -2.7048 -1.1601 -0.3755
   74MOL   H12519251   2.860   5.637   3.963  0.0402 -0.1433  0.6607
   74MOL   H12619252   2.556   5.619   3.983  0.5085 -0.0278  2.5474
   74MOL   H12719253   2.818   5.424   3.769  0.2300 -0.9322 -0.6145
   74MOL   H12819254   2.869   5.591   3.765 -1.2872  1.2869 -0.7780
   74MOL   H12919255   2.769   5.524   3.631  0.2476  1.0039 -0.0486
   74MOL   H13019256   2.457   5.493   3.842 -2.2135  0.7244 -0.8967
   74MOL   H13119257   2.545   5.402   3.716  1.8409  0.5056 -0.4161
   74MOL   C13219258   2.488   5.588   3.651  1.0735  0.1649 -0.2621
   74MOL   C13319259   2.373   5.529   3.570 -0.0980 -0.1793  0.3550
   74MOL   C13419260   2.362   5.528   3.436  0.0438  0.5668  0.3386
   74MOL   C13519261   2.453   5.600   3.341 -0.2930 -0.9453 -0.0006
   74MOL   C13619262   2.244   5.453   3.375  0.0203  0.2218  0.7881
   74MOL   H13719263   2.576   5.620   3.595  1.4273 -0.7660 -0.2569
   74MOL   H13819264   2.455   5.684   3.691 -4.6921 -1.4830 -0.5790
   74MOL   H13919265   2.296   5.483   3.630 -0.6292  1.9241  1.3313
   74MOL   H14019266   2.502   5.684   3.389  0.8039 -1.5029 -0.1207
   74MOL   H14119267   2.394   5.638   3.258 -0.8765 -2.1549 -0.1511
   74MOL   H14219268   2.524   5.533   3.291 -2.1826 -1.6754 -1.7843
   74MOL   H14319269   2.219   5.366   3.436 -0.3756  0.5647  1.1144
   74MOL   H14419270   2.257   5.428   3.270  0.8524 -0.4612  1.0386
   74MOL   C14519271   2.130   5.554   3.372  0.7739  0.0003 -0.0091
   74MOL   C14619272   2.007   5.490   3.311  0.1670  0.3978  0.5636
   74MOL   C14719273   1.908   5.547   3.239  0.0991  0.1148 -0.3534
   74MOL   C14819274   1.892   5.695   3.237  0.2773  0.7743 -0.1427
   74MOL   C14919275   1.796   5.459   3.175  0.2136 -0.3929 -0.1490
   74MOL   H15019276   2.164   5.638   3.311  1.8016 -0.2120  0.2664
   74MOL   H15119277   2.104   5.585   3.473 -2.5524  0.2266 -0.8740
   74MOL   H15219278   1.988   5.384   3.311 -1.4152  0.6231 -1.8025
   74MOL   H15319279   1.826   5.739   3.162 -1.1591 -3.2454 -1.3369
   74MOL   H15419280   1.991   5.741   3.224 -0.3461  1.7244 -1.6528
   74MOL   H15519281   1.855   5.728   3.334  0.8849  2.8886 -0.5977
   74MOL   H15619282   1.838   5.359   3.167  1.2250  0.1305 -1.5652
   74MOL   H15719283   1.782   5.503   3.077 -3.5482  2.7644  1.6777
   74MOL   C15819284   1.657   5.469   3.244  0.2293 -0.1490  0.7238
   74MOL   C15919285   1.643   5.425   3.393  0.1104 -0.0905  0.2180
   74MOL   C16019286   1.546   5.448   3.476  0.6896  0.1929  0.1343
   74MOL   C16119287   1.427   5.540   3.447  0.2479  0.3989  1.0491
   74MOL   C16219288   1.533   5.387   3.619 -0.0894 -0.8974  0.1538
   74MOL   H16319289   1.602   5.395   3.185  2.1230 -0.8773 -0.1840
   74MOL   H16419290   1.606   5.564   3.233  0.0860 -0.4527 -1.6554
   74MOL   H16519291   1.725   5.357   3.414 -0.4426  0.4179  4.3870
   74MOL   H16619292   1.399   5.608   3.527  0.4943  2.7675 -0.8020
   74MOL   H16719293   1.349   5.468   3.420  0.2043  0.5793  0.6954
   74MOL   H16819294   1.442   5.607   3.362  0.1975 -0.6290  0.2044
   74MOL   H16919295   1.430   5.357   3.635  0.1287 -1.3985  0.6711
   74MOL   H17019296   1.546   5.474   3.682 -0.9277 -1.3497  0.9638
   74MOL   C17119297   1.627   5.274   3.658 -0.2908 -0.7904 -0.8464
   74MOL   C17219298   1.616   5.246   3.805  0.1252  0.6283 -0.0612
   74MOL   C17319299   1.545   5.142   3.861 -0.2278 -0.1456  0.2298
   74MOL   C17419300   1.454   5.053   3.779  0.6200  0.4788  0.6141
   74MOL   C17519301   1.580   5.092   3.996  0.1716  0.3517  0.4254
   74MOL   H17619302   1.731   5.289   3.628 -0.0932 -0.9805 -0.2702
   74MOL   H17719303   1.591   5.184   3.609 -2.5692 -1.8169  2.5505
   74MOL   H17819304   1.676   5.303   3.874  0.9668 -0.1985 -0.0931
   74MOL   H17919305   1.418   5.105   3.691  0.5677 -0.5343  0.0215
   74MOL   H18019306   1.362   5.035   3.834 -0.1522 -0.4476 -0.9336
   74MOL   H18119307   1.484   4.949   3.765 -0.0658  0.2519  0.8435
   74MOL   H18219308   1.671   5.134   4.038  0.9200 -1.1424  0.3128
   74MOL   H18319309   1.603   4.986   3.991  1.6716  0.7852 -3.2496
   74MOL   C18419310   1.454   5.119   4.091 -0.2164  0.5391  0.1501
   74MOL   C18519311   1.472   5.055   4.231 -0.3788  0.3874 -0.9433
   74MOL   C18619312   1.541   5.105   4.336 -0.3102  0.2722 -0.6277
   74MOL   C18719313   1.611   5.243   4.332  0.3380 -0.4916  0.5354
   74MOL   C18819314   1.525   5.038   4.473  0.2053 -0.4647 -0.3565
   74MOL   H18919315   1.359   5.079   4.055 -1.2123  1.9719  1.1166
   74MOL   H19019316   1.431   5.225   4.102  2.3286  0.9971  1.4362
   74MOL   H19119317   1.427   4.958   4.247 -0.1481  0.0601 -2.2332
   74MOL   H19219318   1.655   5.268   4.235  0.0420  0.4586  0.6464
   74MOL   H19319319   1.689   5.241   4.409  2.0714 -0.2122 -1.1606
   74MOL   H19419320   1.551   5.326   4.368  1.5228  0.2530  0.8340
   74MOL   H19519321   1.628   5.014   4.500 -0.4495 -0.6611  2.1296
   74MOL   H19619322   1.468   4.946   4.455  1.6175 -1.1342 -1.5605
   74MOL   C19719323   1.456   5.120   4.582  0.2467 -0.2648  0.0635
   74MOL   C19819324   1.440   5.054   4.719 -0.3097  0.5940 -0.0296
   74MOL   C19919325   1.485   5.098   4.834  0.2045 -0.4574 -0.2650
   74MOL   C20019326   1.572   5.225   4.855  0.3028  0.4238  0.0638
   74MOL   C20119327   1.444   5.024   4.957  0.0912 -0.3201 -0.4891
   74MOL   H20219328   1.351   5.127   4.556  0.9216 -2.5217 -3.5918
   74MOL   H20319329   1.503   5.219   4.584  1.2929 -0.7378 -0.6588
   74MOL   H20419330   1.387   4.960   4.719 -1.1577  1.0600 -0.2049
   74MOL   H20519331   1.611   5.277   4.767  0.5175 -2.8038 -1.8564
   74MOL   H20619332   1.655   5.189   4.915  1.3435 -1.3553 -2.3451
   74MOL   H20719333   1.522   5.300   4.915 -0.9745  2.4807 -3.4004
   74MOL   H20819334   1.363   4.952   4.940 -0.0341 -0.0941 -0.8319
   74MOL   H20919335   1.400   5.089   5.033  1.0034 -0.6804  0.3481
   74MOL   C21019336   1.559   4.939   5.016  0.2955 -0.1063 -0.4237
   74MOL   C21119337   1.620   4.831   4.922 -0.5118  0.3173  0.0986
   74MOL   C21219338   1.739   4.834   4.856  1.3816 -0.0694 -1.0672
   74MOL   C21319339   1.840   4.945   4.870 -0.1547  0.8798  0.4155
   74MOL   C21419340   1.767   4.725   4.760  0.7553 -0.3183  0.6968
   74MOL   H21519341   1.530   4.884   5.105  0.8538 -0.1353 -0.2533
   74MOL   H21619342   1.629   5.002   5.070  1.4375 -1.6823 -0.0183
   74MOL   H21719343   1.556   4.745   4.910 -0.4110  0.0561  1.2994
   74MOL   H21819344   1.852   4.999   4.776  1.3664 -0.0216  0.0728
   74MOL   H21919345   1.941   4.924   4.905 -0.3670 -1.5504 -0.3310
   74MOL   H22019346   1.819   5.011   4.954 -1.9580 -1.8010  2.1326
   74MOL   H22119347   1.782   4.774   4.664 -0.7319  0.2182  0.7283
   74MOL   H22219348   1.676   4.670   4.738  1.0640 -0.0538 -1.2909
   74MOL   C22319349   1.892   4.643   4.801 -0.0885  0.0456 -1.2838
   74MOL   C22419350   1.949   4.558   4.692 -0.2134 -0.1746 -0.0598
   74MOL   C22519351   2.043   4.593   4.610 -0.2324 -0.6555 -0.3736
   74MOL   C22619352   2.123   4.723   4.617 -0.4614  0.4071  0.3897
   74MOL   C22719353   2.078   4.509   4.491  0.1118  0.5806 -0.3932
   74MOL   H22819354   1.876   4.576   4.886 -3.8502  2.2736 -0.1115
   74MOL   H22919355   1.968   4.707   4.846  1.0296  0.0694 -3.1834
   74MOL   H23019356   1.890   4.472   4.663  0.5935 -0.6730 -0.2169
   74MOL   H23119357   2.221   4.682   4.641 -1.2026 -1.2882  0.5918
   74MOL   H23219358   2.096   4.786   4.701  1.1955  3.7143 -1.4583
   74MOL   H23319359   2.121   4.778   4.523 -0.9140 -1.4409 -0.7031
   74MOL   H23419360   2.038   4.408   4.495 -0.8126  0.8701 -1.9144
   74MOL   H23519361   2.185   4.489   4.497  0.3280  2.2670  2.5275
   74MOL   C23619362   2.036   4.577   4.361  0.4407 -0.6829  0.2259
   74MOL   C23719363   1.887   4.570   4.337 -0.2494  0.1796  0.1699
   74MOL   C23819364   1.798   4.668   4.319  0.0772  0.5803 -0.6982
   74MOL   C23919365   1.834   4.815   4.325  0.1543 -0.1723  0.8428
   74MOL   C24019366   1.653   4.634   4.302 -0.0374  0.6888  0.4511
   74MOL   H24119367   2.077   4.520   4.277  2.0010  1.9349 -0.8563
   74MOL   H24219368   2.074   4.679   4.347 -1.7289 -0.1006 -1.7973
   74MOL   H24319369   1.840   4.473   4.346 -1.8774  0.6611 -2.4458
   74MOL   H24419370   1.807   4.856   4.227 -2.4189  0.8088  1.9049
   74MOL   H24519371   1.940   4.830   4.343  0.0286 -1.0443  2.4534
   74MOL   H24619372   1.787   4.874   4.404  0.3605  0.2634  0.6408
   74MOL   H24719373   1.640   4.543   4.242 -1.0627  1.1796 -0.0749
   74MOL   H24819374   1.604   4.711   4.243  0.4047 -0.2156 -1.1359
   74MOL   C24919375   1.561   4.632   4.423  0.8800 -0.2780 -0.6647
   74MOL   C25019376   1.421   4.580   4.402  1.3081 -0.3525  0.4308
   74MOL   C25119377   1.353   4.471   4.452  0.0925  0.7494 -0.2268
   74MOL   C25219378   1.414   4.371   4.547 -0.8514  0.4806  0.2805
   74MOL   C25319379   1.214   4.439   4.416 -0.5471 -0.0940  0.1012
   74MOL   H25419380   1.558   4.733   4.462 -0.5475 -0.2895 -0.7203
   74MOL   H25519381   1.599   4.572   4.506  1.4732 -0.2640 -0.9222
   74MOL   H25619382   1.370   4.655   4.344  1.2473 -1.2728 -0.7320
   74MOL   H25719383   1.380   4.267   4.537  2.2306 -0.6527  1.0515
   74MOL   H25819384   1.399   4.404   4.649  0.6360  0.3886  0.5279
   74MOL   H25919385   1.522   4.379   4.537 -0.7815  0.7526  1.2051
   74MOL   H26019386   1.193   4.348   4.359  3.3145 -0.7755 -0.3984
   74MOL   H26119387   1.184   4.529   4.362  1.5818  1.5561  1.5918
   74MOL   H26219388   1.159   4.432   4.509 -0.4793  0.3437  0.1728
   75MOL     C119389   4.252   3.971   6.283  0.5467  0.4233  0.5252
   75MOL     C219390   4.243   4.114   6.315  0.1877  0.0674 -0.3865
   75MOL     C319391   4.167   4.212   6.261  0.4991 -0.2196  0.4395
   75MOL     C419392   4.061   4.195   6.150 -0.1161  0.4145 -0.5344
   75MOL     C519393   4.184   4.351   6.312 -0.8261 -0.4208  0.3396
   75MOL     H619394   4.264   3.925   6.381 -0.9632 -2.2390 -0.4641
   75MOL     H719395   4.162   3.922   6.245 -0.8221  0.9096  3.0149
   75MOL     H819396   4.319   4.134   6.390  1.3838  0.0069 -1.5581
   75MOL     H919397   3.964   4.233   6.184 -0.8310 -1.4920 -0.3490
   75MOL    H1019398   4.054   4.093   6.112  1.5906 -1.4370  3.7977
   75MOL    H1119399   4.093   4.263   6.072 -1.9534  1.1904 -0.6492
   75MOL    H1219400   4.219   4.336   6.414  0.6652 -0.4103 -0.1487
   75MOL    H1319401   4.082   4.388   6.321 -0.4892  0.5197  0.4030
   75MOL    H1419402   4.338   3.943   6.222 -1.5267  0.1732 -2.4023
   75MOL    C1519403   4.288   4.438   6.233  0.1078  0.1532 -0.0962
   75MOL    C1619404   4.298   4.579   6.292 -0.4994  0.5666 -0.4095
   75MOL    C1719405   4.410   4.622   6.348  0.3317  0.4183 -0.0640
   75MOL    C1819406   4.544   4.538   6.350  0.0867 -0.9233 -0.2661
   75MOL    C1919407   4.421   4.763   6.401  0.3473 -0.3238 -0.6372
   75MOL    H2019408   4.257   4.445   6.129  0.2704  0.2307 -0.1382
   75MOL    H2119409   4.375   4.373   6.224 -0.8563 -1.0031 -1.2478
   75MOL    H2219410   4.218   4.648   6.269 -0.1510  1.3184  0.5838
   75MOL    H2319411   4.523   4.442   6.396  3.1072 -0.8394  1.4685
   75MOL    H2419412   4.612   4.598   6.410  0.1504 -1.6251  0.3649
   75MOL    H2519413   4.591   4.533   6.252  1.5166  1.6415  0.2261
   75MOL    H2619414   4.361   4.837   6.348  0.9160 -0.7754 -1.9480
   75MOL    H2719415   4.526   4.791   6.407  0.7799 -2.0903  0.6374
   75MOL    C2819416   4.379   4.762   6.546  0.0876 -0.3780 -0.1701
   75MOL    C2919417   4.442   4.878   6.632  0.8910  0.0067 -0.2177
   75MOL    C3019418   4.378   4.993   6.666 -0.4250  0.1559 -0.0974
   75MOL    C3119419   4.238   5.033   6.623 -0.1246 -0.4479  0.9574
   75MOL    C3219420   4.432   5.092   6.760 -0.3028 -0.3278 -0.4310
   75MOL    H3319421   4.410   4.671   6.596  1.4585 -0.1273 -0.5479
   75MOL    H3419422   4.271   4.780   6.542  0.1924  0.3751  0.1437
   75MOL    H3519423   4.535   4.869   6.685  0.6739  3.3634  0.8800
   75MOL    H3619424   4.237   5.141   6.639 -1.3144 -0.4323  0.8216
   75MOL    H3719425   4.184   4.991   6.708 -0.6923 -1.7439 -0.0320
   75MOL    H3819426   4.219   5.003   6.520  2.8539 -2.2257  0.8593
   75MOL    H3919427   4.430   5.191   6.715 -3.6435 -0.1133  0.0795
   75MOL    H4019428   4.536   5.062   6.769 -0.2053 -0.2201 -1.1832
   75MOL    C4119429   4.365   5.077   6.900 -0.0920  0.1120  0.0306
   75MOL    C4219430   4.392   5.192   7.002 -0.7892  0.3299 -0.1237
   75MOL    C4319431   4.415   5.173   7.133  0.1831 -1.6935 -0.2555
   75MOL    C4419432   4.435   5.036   7.194  0.1622  0.3474  0.7150
   75MOL    C4519433   4.424   5.291   7.223 -0.4780 -0.5283 -0.1192
   75MOL    H4619434   4.375   4.973   6.930 -0.0226 -0.4592 -1.9429
   75MOL    H4719435   4.257   5.088   6.888  0.0922 -0.0521 -1.8177
   75MOL    H4819436   4.396   5.295   6.969  2.2167  0.2503 -0.1625
   75MOL    H4919437   4.413   4.949   7.133  2.2313 -0.4982  1.1528
   75MOL    H5019438   4.366   5.023   7.278 -1.7685 -1.6930 -1.1372
   75MOL    H5119439   4.541   5.027   7.217  0.9563  1.6044 -2.3195
   75MOL    H5219440   4.343   5.266   7.291 -0.9760  0.8735 -0.1942
   75MOL    H5319441   4.388   5.382   7.175  0.5123 -0.1450 -0.1416
   75MOL    C5419442   4.570   5.323   7.280 -0.6265  0.0242 -0.2531
   75MOL    C5519443   4.562   5.472   7.319 -0.3971 -0.3618 -0.2394
   75MOL    C5619444   4.591   5.528   7.441 -0.0037 -0.1325 -0.2163
   75MOL    C5719445   4.619   5.448   7.566 -0.3654 -0.1528 -0.1790
   75MOL    C5819446   4.608   5.680   7.449  0.1434 -0.5046  0.5494
   75MOL    H5919447   4.650   5.310   7.207  0.8592 -2.0906  1.6962
   75MOL    H6019448   4.583   5.256   7.365 -1.2225  1.6744  1.1851
   75MOL    H6119449   4.540   5.539   7.237  2.3503  0.9296  0.0113
   75MOL    H6219450   4.530   5.428   7.626  0.1194 -1.0769  0.2499
   75MOL    H6319451   4.676   5.507   7.637  1.1975 -0.1030 -1.4417
   75MOL    H6419452   4.661   5.349   7.546 -0.4186 -0.3887  0.8491
   75MOL    H6519453   4.620   5.726   7.351  2.9686 -1.1897  0.5324
   75MOL    H6619454   4.703   5.685   7.501  0.8240 -2.7365 -0.4176
   75MOL    C6719455   4.491   5.757   7.519  0.1945  0.0933 -0.2233
   75MOL    C6819456   4.504   5.905   7.497 -0.2696 -0.6193  0.6893
   75MOL    C6919457   4.422   5.985   7.423  0.3689  0.0388  0.2984
   75MOL    C7019458   4.284   5.938   7.370 -0.6894 -0.2813  0.4309
   75MOL    C7119459   4.451   6.125   7.411 -0.6813 -0.6272  0.9063
   75MOL    H7219460   4.498   5.738   7.626 -1.3489  0.9171  0.0467
   75MOL    H7319461   4.393   5.719   7.489 -0.9007  2.2959  0.4284
   75MOL    H7419462   4.588   5.955   7.543 -0.8024  0.7586  0.1837
   75MOL    H7519463   4.234   5.854   7.418 -1.4477 -0.2076 -0.2304
   75MOL    H7619464   4.292   5.915   7.264 -1.8664  2.4562 -0.2781
   75MOL    H7719465   4.210   6.017   7.373 -1.8079 -1.3535  1.6675
   75MOL    H7819466   4.559   6.131   7.422 -0.7674 -1.1969  2.1163
   75MOL    H7919467   4.407   6.188   7.488  0.3853  0.5293  0.5739
   75MOL    C8019468   4.415   6.175   7.270 -0.7177 -0.4781  0.9168
   75MOL    C8119469   4.482   6.311   7.239 -0.4805  1.2394  0.2820
   75MOL    C8219470   4.428   6.431   7.245 -0.3548  0.9503 -0.5490
   75MOL    C8319471   4.283   6.453   7.277  0.1058 -0.1519 -0.2798
   75MOL    C8419472   4.508   6.557   7.228  0.0031 -0.2488 -0.1512
   75MOL    H8519473   4.312   6.162   7.236  0.0151 -0.8609 -1.2942
   75MOL    H8619474   4.455   6.106   7.196  0.1052  0.7318  0.2095
   75MOL    H8719475   4.585   6.298   7.209 -0.4536 -0.5582  1.0473
   75MOL    H8819476   4.238   6.534   7.219  0.4465  0.3604  0.1584
   75MOL    H8919477   4.288   6.487   7.380  1.7974  1.0078 -0.7198
   75MOL    H9019478   4.216   6.368   7.266  1.4384 -1.1218 -1.1242
   75MOL    H9119479   4.463   6.631   7.295 -1.2193 -0.8381 -0.3273
   75MOL    H9219480   4.501   6.590   7.125  0.0839  2.6533  0.7211
   75MOL    C9319481   4.651   6.547   7.264 -0.0532  0.0323  0.1469
   75MOL    C9419482   4.729   6.676   7.295  0.8072  0.2374  0.1141
   75MOL    C9519483   4.855   6.706   7.264  0.0712  0.3705 -0.2741
   75MOL    C9619484   4.958   6.599   7.220 -0.1362  0.5930  0.0922
   75MOL    C9719485   4.915   6.832   7.307  0.2182  0.3267 -0.1525
   75MOL    H9819486   4.709   6.485   7.196  0.0868 -0.1974  0.4762
   75MOL    H9919487   4.655   6.504   7.364  1.3716 -1.0879 -0.3709
   75MOL   H10019488   4.676   6.745   7.360  1.0881  0.7025 -0.1491
   75MOL   H10119489   5.057   6.609   7.264  0.9003 -2.8289 -1.2858
   75MOL   H10219490   4.984   6.612   7.115 -1.3718  0.0526 -0.2984
   75MOL   H10319491   4.931   6.495   7.236 -1.2872  0.9014  0.2076
   75MOL   H10419492   4.997   6.807   7.375  0.8168  1.0819 -0.5809
   75MOL   H10519493   4.835   6.882   7.361 -2.0932  0.3654 -3.4182
   75MOL   C10619494   4.969   6.925   7.199  0.0219 -0.5891 -0.2138
   75MOL   C10719495   5.042   7.044   7.253 -0.2114 -0.1996  0.4440
   75MOL   C10819496   5.151   7.106   7.194 -0.2232  0.4244  0.1537
   75MOL   C10919497   5.217   7.062   7.066 -0.1860  0.0330  0.5769
   75MOL   C11019498   5.217   7.226   7.264  0.6137  0.0045  0.3556
   75MOL   H11119499   4.887   6.971   7.144 -0.3363 -0.6701  0.2492
   75MOL   H11219500   5.027   6.867   7.127  0.2654  0.0079 -0.5066
   75MOL   H11319501   5.008   7.082   7.348  0.2134 -0.0416  0.5373
   75MOL   H11419502   5.148   7.013   6.997 -0.1823  0.9816 -0.1139
   75MOL   H11519503   5.290   6.985   7.088  1.7578  1.4408 -0.8007
   75MOL   H11619504   5.264   7.144   7.013 -1.7271 -0.5819 -1.8173
   75MOL   H11719505   5.161   7.241   7.356 -0.5594  0.5117 -0.4288
   75MOL   H11819506   5.204   7.316   7.203  0.9126 -0.4746 -0.4157
   75MOL   C11919507   5.361   7.209   7.313 -0.1484 -0.6413  0.2428
   75MOL   C12019508   5.389   7.096   7.411  0.2053  0.0931 -0.5936
   75MOL   C12119509   5.488   7.005   7.405  0.2622 -0.0494  0.1455
   75MOL   C12219510   5.582   6.991   7.284 -0.2376 -0.5603 -0.1304
   75MOL   C12319511   5.497   6.897   7.514  0.4183 -0.5844  0.4051
   75MOL   H12419512   5.386   7.295   7.375  1.1180 -0.7952 -0.0395
   75MOL   H12519513   5.424   7.205   7.224 -1.4555  1.1145 -0.8244
   75MOL   H12619514   5.321   7.093   7.495 -1.3873 -2.0598 -1.8960
   75MOL   H12719515   5.678   7.022   7.325 -0.0751  0.5840 -1.3275
   75MOL   H12819516   5.564   7.062   7.203 -0.5737  0.6110  0.9717
   75MOL   H12919517   5.571   6.892   7.238 -0.5012 -0.7932  0.4402
   75MOL   H13019518   5.492   6.948   7.610 -0.0717  0.9948 -0.4231
   75MOL   H13119519   5.596   6.853   7.506  1.5366  2.0880 -1.3680
   75MOL   C13219520   5.381   6.795   7.512  0.1341 -0.2200  0.6224
   75MOL   C13319521   5.363   6.729   7.376 -0.5091 -0.0639  0.9047
   75MOL   C13419522   5.414   6.614   7.327  0.3615  0.5268 -1.2695
   75MOL   C13519523   5.521   6.528   7.402 -0.3917 -0.0503 -0.4028
   75MOL   C13619524   5.366   6.557   7.194 -0.1888 -0.0344 -0.3719
   75MOL   H13719525   5.281   6.832   7.533  1.3456  2.2806  2.1980
   75MOL   H13819526   5.407   6.717   7.583 -1.8095 -1.4933 -0.0214
   75MOL   H13919527   5.290   6.769   7.306  2.3296  1.6126 -1.1778
   75MOL   H14019528   5.505   6.421   7.399 -1.0348 -0.1038  2.8543
   75MOL   H14119529   5.530   6.568   7.503 -0.1497  1.3110 -0.9481
   75MOL   H14219530   5.620   6.535   7.357 -0.0954  2.8462  0.5670
   75MOL   H14319531   5.264   6.593   7.180 -0.8345 -1.2091  1.2444
   75MOL   H14419532   5.368   6.449   7.209  2.2027 -0.1094 -1.0061
   75MOL   C14519533   5.466   6.592   7.072 -0.2315  0.2093 -0.0063
   75MOL   C14619534   5.397   6.559   6.940  0.0195  0.3411  0.2101
   75MOL   C14719535   5.351   6.633   6.828  0.4073  1.4955 -0.6421
   75MOL   C14819536   5.382   6.777   6.811  0.2536 -0.1407  0.6070
   75MOL   C14919537   5.281   6.563   6.712  0.6496  0.8401  0.6603
   75MOL   H15019538   5.561   6.541   7.084 -1.5187 -2.0150  0.9378
   75MOL   H15119539   5.481   6.700   7.070 -1.9601  0.4918  0.6255
   75MOL   H15219540   5.376   6.453   6.927 -0.8557  0.3016  1.8384
   75MOL   H15319541   5.341   6.831   6.896  0.7750 -0.9413  1.3770
   75MOL   H15419542   5.343   6.813   6.716 -2.5121 -0.5133  1.5570
   75MOL   H15519543   5.488   6.800   6.815  0.3382 -0.4742  0.2397
   75MOL   H15619544   5.181   6.607   6.707  0.5648  0.5248 -0.7503
   75MOL   H15719545   5.272   6.455   6.724  0.0102  0.6210 -1.4195
   75MOL   C15819546   5.362   6.571   6.581  0.7837 -0.6569  0.5028
   75MOL   C15919547   5.301   6.476   6.471 -0.1320 -0.2850  0.2253
   75MOL   C16019548   5.355   6.360   6.435 -0.2012 -0.7515  0.0920
   75MOL   C16119549   5.473   6.295   6.502 -0.3700 -0.3440  0.7500
   75MOL   C16219550   5.277   6.279   6.333 -0.5408  0.7299 -0.4266
   75MOL   H16319551   5.466   6.545   6.602  1.3582  0.5933 -0.7191
   75MOL   H16419552   5.361   6.667   6.530  1.4730 -1.1272 -0.4044
   75MOL   H16519553   5.212   6.505   6.418  0.8900  0.8347 -0.9151
   75MOL   H16619554   5.536   6.372   6.547  2.7686 -2.8096  0.7714
   75MOL   H16719555   5.545   6.261   6.428 -0.5984  3.1668 -1.2024
   75MOL   H16819556   5.441   6.218   6.572 -1.2698 -2.1412 -1.5590
   75MOL   H16919557   5.185   6.335   6.314  0.8554  2.9280 -0.9757
   75MOL   H17019558   5.243   6.179   6.361  0.1502  0.7179  0.3820
   75MOL   C17119559   5.351   6.248   6.206  0.3081  0.0907  0.0947
   75MOL   C17219560   5.262   6.239   6.080 -0.4976 -0.6005 -1.2067
   75MOL   C17319561   5.273   6.314   5.975 -0.6247  0.6632  0.6360
   75MOL   C17419562   5.388   6.410   5.942  0.0496  0.9841  0.4170
   75MOL   C17519563   5.172   6.311   5.865 -0.4253  0.2417 -0.1035
   75MOL   H17619564   5.387   6.146   6.219 -0.2122 -0.0126  0.7368
   75MOL   H17719565   5.434   6.317   6.189 -1.3377  3.0738  3.5866
   75MOL   H17819566   5.171   6.181   6.082 -1.2315  0.5842  0.5040
   75MOL   H17919567   5.411   6.475   6.026  0.0444  2.7208 -0.8935
   75MOL   H18019568   5.376   6.462   5.847 -2.3596  1.6827  1.0538
   75MOL   H18119569   5.489   6.372   5.928 -1.0025 -1.2045 -1.6415
   75MOL   H18219570   5.221   6.255   5.785 -1.9205 -1.6336  0.2699
   75MOL   H18319571   5.153   6.413   5.830  0.9242  1.2274  1.9540
   75MOL   C18419572   5.038   6.245   5.889  0.2557 -0.1817  0.8173
   75MOL   C18519573   4.945   6.253   5.770 -0.1217 -1.1517 -0.1284
   75MOL   C18619574   4.860   6.348   5.728 -0.5193 -0.6677  0.1505
   75MOL   C18719575   4.847   6.477   5.806 -0.4991  0.2182 -0.7063
   75MOL   C18819576   4.776   6.338   5.603  0.1989  0.5996  0.0698
   75MOL   H18919577   4.982   6.289   5.971 -0.8040 -1.4625  0.7887
   75MOL   H19019578   5.050   6.139   5.911 -0.7085 -0.5953 -0.5867
   75MOL   H19119579   4.944   6.160   5.714  2.6633 -0.7280 -1.0056
   75MOL   H19219580   4.908   6.489   5.895 -1.6272 -2.1853  0.4338
   75MOL   H19319581   4.745   6.483   5.843 -0.9834 -0.3354 -1.9042
   75MOL   H19419582   4.861   6.558   5.734 -1.3572  0.6821 -0.3574
   75MOL   H19519583   4.806   6.255   5.540  2.8133  0.4848  1.3622
   75MOL   H19619584   4.782   6.426   5.539 -0.2584 -0.6878 -1.7724
   75MOL   C19719585   4.624   6.330   5.638 -0.1405  0.2324 -0.8237
   75MOL   C19819586   4.546   6.306   5.506  0.4898  0.0812 -0.6319
   75MOL   C19919587   4.469   6.203   5.468  0.1936  0.3864 -0.5497
   75MOL   C20019588   4.445   6.081   5.549 -0.1824  0.3575 -0.3085
   75MOL   C20119589   4.394   6.212   5.335 -0.1244 -0.1734  0.3513
   75MOL   H20219590   4.595   6.425   5.682 -2.2216 -1.1326  0.8916
   75MOL   H20319591   4.598   6.256   5.713 -0.8160  1.1680 -0.1233
   75MOL   H20419592   4.554   6.381   5.429  1.7181  0.8494  0.2317
   75MOL   H20519593   4.356   6.094   5.610  0.3369  3.0459 -0.0757
   75MOL   H20619594   4.530   6.060   5.613 -1.2916 -1.0049  0.7717
   75MOL   H20719595   4.428   5.997   5.480  1.4534  0.3722 -0.7366
   75MOL   H20819596   4.414   6.118   5.284  0.8164 -1.5094  3.1183
   75MOL   H20919597   4.435   6.293   5.273 -2.6896 -0.3111 -1.6303
   75MOL   C21019598   4.247   6.245   5.351 -0.3842  0.2943 -0.0992
   75MOL   C21119599   4.224   6.380   5.413 -0.3389 -0.7197 -0.9751
   75MOL   C21219600   4.232   6.508   5.359  0.1335 -0.4635  0.6337
   75MOL   C21319601   4.268   6.521   5.216 -0.3172  0.1922  0.7849
   75MOL   C21419602   4.208   6.647   5.423 -0.5817  0.7372  0.2352
   75MOL   H21519603   4.204   6.169   5.417 -0.2285  0.2339 -0.0648
   75MOL   H21619604   4.199   6.226   5.255 -0.4512  0.8244 -0.1697
   75MOL   H21719605   4.214   6.382   5.521  1.5376  0.8507 -0.7887
   75MOL   H21819606   4.359   6.580   5.213 -0.3773  0.2422 -0.4926
   75MOL   H21919607   4.185   6.571   5.165 -0.6681 -1.7115 -0.5651
   75MOL   H22019608   4.295   6.429   5.164  0.7986  0.3284  1.1301
   75MOL   H22119609   4.148   6.695   5.345 -1.8711 -2.4312 -0.8434
   75MOL   H22219610   4.307   6.691   5.417  0.5529 -1.8243 -0.9530
   75MOL   C22319611   4.144   6.646   5.557 -0.2475  0.7086 -0.5998
   75MOL   C22419612   4.137   6.783   5.613  0.4862  0.6430 -0.5337
   75MOL   C22519613   4.032   6.867   5.626  0.0452  0.4249 -0.5895
   75MOL   C22619614   3.893   6.826   5.569  0.1712  0.2739 -0.6172
   75MOL   C22719615   4.046   7.000   5.694 -0.2608  0.2718 -0.2893
   75MOL   H22819616   4.200   6.591   5.632  2.1014  0.8418 -2.1998
   75MOL   H22919617   4.051   6.591   5.565 -0.4845  1.2862  0.7896
   75MOL   H23019618   4.224   6.825   5.661 -0.1917  1.3073  0.1146
   75MOL   H23119619   3.909   6.778   5.473  2.8482 -0.6254  0.2292
   75MOL   H23219620   3.820   6.906   5.555 -0.5575 -0.4346 -0.9106
   75MOL   H23319621   3.841   6.755   5.634  0.8976  1.9084  1.8252
   75MOL   H23419622   4.137   6.989   5.752  0.5155 -0.6887 -1.6387
   75MOL   H23519623   3.973   7.016   5.773  0.7909 -1.5661  1.1037
   75MOL   C23619624   4.058   7.120   5.604  0.4069  0.1953  0.3328
   75MOL   C23719625   4.069   7.244   5.681  0.4752 -0.1023  0.9959
   75MOL   C23819626   3.982   7.351   5.686 -0.3960  0.1735 -0.7493
   75MOL   C23919627   3.846   7.363   5.616 -0.3438 -0.2196 -0.1290
   75MOL   C24019628   4.015   7.475   5.769  0.9261  0.2166  0.1994
   75MOL   H24119629   3.966   7.121   5.544  1.6715 -0.3356 -1.6605
   75MOL   H24219630   4.142   7.120   5.535  0.1492 -0.4860  0.0053
   75MOL   H24319631   4.159   7.264   5.738 -1.2749  3.0571  2.7986
   75MOL   H24419632   3.764   7.379   5.687  0.0242 -0.1207  0.2745
   75MOL   H24519633   3.810   7.275   5.562 -2.5703 -0.2953  1.4055
   75MOL   H24619634   3.854   7.435   5.534  1.4019 -0.4303 -0.1513
   75MOL   H24719635   4.095   7.444   5.835 -1.2028 -1.5865  2.0178
   75MOL   H24819636   3.929   7.505   5.829  1.4284  0.6721  0.6850
   75MOL   C24919637   4.053   7.588   5.676  0.3602 -0.1170 -0.2427
   75MOL   C25019638   4.074   7.717   5.758 -0.3597  0.0960  0.6725
   75MOL   C25119639   4.202   7.767   5.786 -0.2553 -0.2116 -0.5574
   75MOL   C25219640   4.331   7.714   5.724 -0.5808  0.0490 -0.5578
   75MOL   C25319641   4.218   7.875   5.885  0.2059 -0.2370 -0.4804
   75MOL   H25419642   3.980   7.617   5.600  1.0219 -0.7405 -1.1288
   75MOL   H25519643   4.143   7.556   5.623  1.3920 -0.6403  1.7569
   75MOL   H25619644   3.990   7.754   5.815 -0.0512 -1.1464  1.9290
   75MOL   H25719645   4.379   7.648   5.797 -0.9999 -0.0177 -0.3406
   75MOL   H25819646   4.393   7.804   5.723  1.0700 -1.0634 -0.8211
   75MOL   H25919647   4.334   7.683   5.620 -0.1151  2.7010 -1.3620
   75MOL   H26019648   4.243   0.090   5.845  0.2246  0.0714  0.2623
   75MOL   H26119649   4.288   7.840   5.962 -0.5578  0.2633  0.4597
   75MOL   H26219650   4.123   0.013   5.934 -0.0740 -3.7339  0.5745
   76MOL     C119651   3.671   7.694   5.725  0.7040 -0.4782  0.0555
   76MOL     C219652   3.533   7.675   5.785 -0.2339  0.6810 -0.1027
   76MOL     C319653   3.512   7.606   5.901 -0.5733  0.9362  0.1851
   76MOL     C419654   3.632   7.563   5.981  0.3987 -0.3113  0.0278
   76MOL     C519655   3.379   7.586   5.976 -1.0185  0.0808 -0.0172
   76MOL     H619656   3.654   7.763   5.643 -0.3103  2.2461  2.4877
   76MOL     H719657   3.749   7.740   5.786  0.0196  0.9102 -0.1123
   76MOL     H819658   3.440   7.697   5.734 -0.1383 -0.1651 -0.6485
   76MOL     H919659   3.607   7.475   6.040 -0.6071 -0.8847 -1.2232
   76MOL    H1019660   3.673   7.640   6.046  0.4252  1.4018 -1.9466
   76MOL    H1119661   3.711   7.523   5.916  0.8931  0.8428 -0.1092
   76MOL    H1219662   3.396   7.640   6.070 -1.1487 -2.4636  1.5128
   76MOL    H1319663   3.369   7.484   6.011  1.0729 -0.1470 -0.0228
   76MOL    H1419664   3.701   7.606   5.667  0.1410  0.0217 -1.0098
   76MOL    C1519665   3.254   7.641   5.906 -0.1699 -0.0227  0.1493
   76MOL    C1619666   3.217   7.545   5.790 -0.8882 -0.4987  0.0084
   76MOL    C1719667   3.096   7.543   5.724  0.1866  0.1672 -0.1429
   76MOL    C1819668   2.990   7.649   5.752 -0.6823 -0.4853  0.8436
   76MOL    C1919669   3.071   7.436   5.621 -0.3452  0.2804 -0.4562
   76MOL    H2019670   3.279   7.744   5.877  2.3106 -0.2623  1.3113
   76MOL    H2119671   3.172   7.648   5.977  1.0627  2.0614  1.4258
   76MOL    H2219672   3.298   7.473   5.782 -0.2735  0.1891 -0.0221
   76MOL    H2319673   2.970   7.701   5.658 -1.2065 -0.4601  0.9665
   76MOL    H2419674   3.006   7.730   5.823 -0.1953  3.1184 -3.1510
   76MOL    H2519675   2.901   7.598   5.788  0.0442 -1.7936  0.8033
   76MOL    H2619676   3.164   7.380   5.614  0.3194  1.0452  1.8632
   76MOL    H2719677   3.048   7.476   5.522 -1.3134  1.1427  0.1088
   76MOL    C2819678   2.970   7.332   5.661  0.6822 -0.1734  0.1472
   76MOL    C2919679   2.963   7.223   5.553  0.0383 -0.5581  0.1918
   76MOL    C3019680   2.863   7.223   5.458  0.0122 -0.1870  0.4250
   76MOL    C3119681   2.767   7.336   5.440 -0.3902  0.6847  0.0235
   76MOL    C3219682   2.838   7.109   5.367  0.1688 -0.3024  0.3805
   76MOL    H3319683   2.870   7.373   5.676  0.5514 -0.6173  0.5049
   76MOL    H3419684   3.000   7.287   5.756  0.6620 -1.2928 -0.3795
   76MOL    H3519685   3.036   7.144   5.559 -0.1930 -0.8356 -0.6625
   76MOL    H3619686   2.784   7.434   5.485  1.5168  1.1769 -1.7031
   76MOL    H3719687   2.663   7.318   5.468 -0.6666  0.8530 -0.8895
   76MOL    H3819688   2.771   7.346   5.332  0.0538 -0.7947 -0.0964
   76MOL    H3919689   2.866   7.153   5.271  1.5956 -0.3875  0.7499
   76MOL    H4019690   2.734   7.079   5.353 -0.5927  2.0848  0.7756
   76MOL    C4119691   2.931   6.991   5.386 -0.3672 -0.1950 -0.2908
   76MOL    C4219692   2.918   6.892   5.278  0.0821  0.3837 -0.2086
   76MOL    C4319693   2.862   6.763   5.270 -0.0341 -0.1745  0.4948
   76MOL    C4419694   2.806   6.677   5.387 -0.0656 -0.1164  0.5429
   76MOL    C4519695   2.852   6.692   5.132 -0.7545 -0.3823  0.4971
   76MOL    H4619696   2.889   6.933   5.469  1.2374 -0.6442  0.2364
   76MOL    H4719697   3.038   7.010   5.393 -0.1232 -2.0913  1.8637
   76MOL    H4819698   2.948   6.928   5.180 -0.8848  0.8926 -0.3330
   76MOL    H4919699   2.890   6.639   5.445 -0.0440  1.5814  1.6573
   76MOL    H5019700   2.743   6.598   5.346 -0.0935  0.2771 -0.2040
   76MOL    H5119701   2.751   6.740   5.457 -0.3497  3.9128 -3.0670
   76MOL    H5219702   2.897   6.594   5.150 -1.4134 -0.9209 -0.7550
   76MOL    H5319703   2.918   6.748   5.066 -0.4801 -1.0204  0.2203
   76MOL    C5419704   2.711   6.674   5.079 -0.4051  0.8527  1.1088
   76MOL    C5519705   2.705   6.630   4.933  0.1760 -0.1461 -0.0098
   76MOL    C5619706   2.598   6.576   4.876 -0.4565  0.8099  0.0339
   76MOL    C5719707   2.468   6.535   4.945  0.1117  0.1453  0.5266
   76MOL    C5819708   2.592   6.571   4.727  0.7435  0.1128 -0.2969
   76MOL    H5919709   2.672   6.775   5.069  0.0042  0.7985 -1.4540
   76MOL    H6019710   2.642   6.617   5.142 -1.2999 -0.5204 -1.0331
   76MOL    H6119711   2.780   6.669   4.866  0.4772 -1.2946 -0.3574
   76MOL    H6219712   2.490   6.499   5.045  1.2085 -0.3310  0.1159
   76MOL    H6319713   2.422   6.450   4.895 -0.0412 -0.1638  1.1862
   76MOL    H6419714   2.393   6.614   4.946 -0.9509 -0.8512 -0.1439
   76MOL    H6519715   2.600   6.466   4.699 -0.3313 -0.4238  1.3246
   76MOL    H6619716   2.686   6.600   4.679  0.0191  0.1961 -1.6854
   76MOL    C6719717   2.480   6.651   4.656  0.3534  0.9390 -0.1173
   76MOL    C6819718   2.453   6.615   4.513 -0.0731 -0.0362 -0.6684
   76MOL    C6919719   2.353   6.537   4.470  0.1524  0.0554  0.2772
   76MOL    C7019720   2.257   6.463   4.555  0.0487  0.1382  0.0044
   76MOL    C7119721   2.346   6.501   4.319 -0.2839  0.1410  0.0107
   76MOL    H7219722   2.507   6.756   4.660  0.6752  0.9014 -1.0072
   76MOL    H7319723   2.391   6.653   4.718  0.0443  4.6418 -0.6165
   76MOL    H7419724   2.524   6.662   4.446 -0.0085  0.4427 -0.2649
   76MOL    H7519725   2.268   6.490   4.660 -1.2006  2.5043 -0.4393
   76MOL    H7619726   2.255   6.358   4.524 -1.8117  0.2693 -0.3963
   76MOL    H7719727   2.154   6.497   4.541 -0.5756 -1.4441  0.5227
   76MOL    H7819728   2.387   6.401   4.307 -0.2063  0.2227 -0.4277
   76MOL    H7919729   2.417   6.567   4.269 -2.0617  0.3330 -2.3117
   76MOL    C8019730   2.215   6.521   4.253  0.1573  0.2855  0.6802
   76MOL    C8119731   2.206   6.461   4.115  0.1415  0.8283 -0.7953
   76MOL    C8219732   2.105   6.473   4.026 -0.0702  0.3579  0.0425
   76MOL    C8319733   1.980   6.554   4.049  0.7891 -0.2125 -0.4114
   76MOL    C8419734   2.118   6.411   3.885 -0.1316  0.1945  0.0489
   76MOL    H8519735   2.195   6.628   4.245  0.5080  0.2021 -1.4294
   76MOL    H8619736   2.138   6.476   4.317  1.6719 -3.0737  0.2407
   76MOL    H8719737   2.289   6.395   4.093  0.3954  1.2424 -1.0828
   76MOL    H8819738   2.003   6.650   4.003  2.8409 -0.6253 -0.2951
   76MOL    H8919739   1.951   6.561   4.154  0.6873 -1.6719 -0.3254
   76MOL    H9019740   1.892   6.503   4.009  0.4426  0.4747 -0.5203
   76MOL    H9119741   2.050   6.326   3.875  1.3304 -0.8210 -1.5975
   76MOL    H9219742   2.211   6.359   3.861 -0.1687  0.2221 -0.1544
   76MOL    C9319743   2.077   6.504   3.771 -0.9651  0.1051 -0.2631
   76MOL    C9419744   2.091   6.431   3.645 -0.0192  0.4746  1.1270
   76MOL    C9519745   2.004   6.362   3.571 -0.8110  0.4679 -1.0585
   76MOL    C9619746   1.859   6.344   3.602  1.0427  0.6216  0.5511
   76MOL    C9719747   2.055   6.282   3.452 -0.0136 -0.1533 -0.1911
   76MOL    H9819748   2.148   6.587   3.768 -0.3689 -0.3593  0.9092
   76MOL    H9919749   1.975   6.538   3.790 -0.7610 -0.2597  1.5696
   76MOL   H10019750   2.192   6.418   3.608 -1.4662 -1.1770 -2.5041
   76MOL   H10119751   1.818   6.416   3.673 -1.0717 -0.1009  0.1004
   76MOL   H10219752   1.833   6.244   3.636  0.6102  0.8676  0.9470
   76MOL   H10319753   1.798   6.369   3.516 -0.7924  0.1738  1.6870
   76MOL   H10419754   2.148   6.326   3.415  0.1164 -0.6632 -0.4622
   76MOL   H10519755   1.996   6.302   3.362  0.8650 -3.6001 -1.6197
   76MOL   C10619756   2.071   6.129   3.471 -0.1626  0.2943  0.6838
   76MOL   C10719757   2.157   6.093   3.590 -0.1207  1.1863  0.0029
   76MOL   C10819758   2.247   5.990   3.594 -0.0873 -0.4466 -0.5861
   76MOL   C10919759   2.266   5.883   3.489 -0.5004  0.1482  0.1457
   76MOL   C11019760   2.333   5.967   3.724 -0.1444  0.4367 -0.0225
   76MOL   H11119761   2.123   6.087   3.385  0.8761 -0.8834  1.8694
   76MOL   H11219762   1.972   6.083   3.477  0.6114 -1.4632  0.3067
   76MOL   H11319763   2.152   6.159   3.676 -0.0416 -0.6726  1.4488
   76MOL   H11419764   2.196   5.801   3.505 -2.0706  1.0179 -2.1733
   76MOL   H11519765   2.369   5.846   3.494 -0.0103  1.5247  0.5794
   76MOL   H11619766   2.263   5.911   3.384 -2.0010 -0.2287  0.0826
   76MOL   H11719767   2.314   5.867   3.762  0.6536  1.5378  3.4187
   76MOL   H11819768   2.295   6.029   3.804 -1.6131 -3.8189  2.7459
   76MOL   C11919769   2.479   6.003   3.693 -0.2492  0.0518  1.0300
   76MOL   C12019770   2.550   6.085   3.800 -0.2427  0.8903  0.1889
   76MOL   C12119771   2.567   6.219   3.793 -0.3566  1.0511 -0.0868
   76MOL   C12219772   2.512   6.303   3.677  0.0423  0.5668 -0.0013
   76MOL   C12319773   2.639   6.287   3.904  0.0272  0.1066 -0.0917
   76MOL   H12419774   2.497   6.038   3.592 -0.8093 -1.0024  0.5652
   76MOL   H12519775   2.527   5.905   3.685 -2.2705 -0.9961  1.3210
   76MOL   H12619776   2.589   6.028   3.883 -0.2064 -0.1714 -0.5586
   76MOL   H12719777   2.589   6.350   3.616  1.0651 -0.2207  0.6711
   76MOL   H12819778   2.453   6.383   3.723  1.7965  1.3383  0.9537
   76MOL   H12919779   2.447   6.245   3.612 -1.1500  1.8625  0.0068
   76MOL   H13019780   2.675   6.385   3.874 -2.9202  0.1843 -3.7894
   76MOL   H13119781   2.733   6.232   3.912  0.3231  0.5833 -0.2905
   76MOL   C13219782   2.574   6.292   4.044 -0.5845  0.5846 -0.6368
   76MOL   C13319783   2.681   6.300   4.152 -0.7033  0.8381  0.3592
   76MOL   C13419784   2.693   6.233   4.271 -0.1868  0.1604 -0.5064
   76MOL   C13519785   2.595   6.131   4.323  0.0551 -0.6327  0.1261
   76MOL   C13619786   2.816   6.258   4.359 -0.3723  0.0293  0.5593
   76MOL   H13719787   2.518   6.199   4.054  0.3455 -0.1679 -2.2773
   76MOL   H13819788   2.509   6.378   4.060 -1.3421 -0.4076  1.8752
   76MOL   H13919789   2.755   6.376   4.132 -0.4032 -0.2088 -2.7374
   76MOL   H14019790   2.636   6.033   4.299  0.3412 -0.2177 -1.1269
   76MOL   H14119791   2.491   6.139   4.289  0.1709 -0.1288 -0.1227
   76MOL   H14219792   2.591   6.137   4.432  0.0410 -1.0708  0.1501
   76MOL   H14319793   2.911   6.258   4.305  0.2444  0.1467  1.6328
   76MOL   H14419794   2.817   6.186   4.440 -3.9866  0.6143  1.2226
   76MOL   C14519795   2.803   6.398   4.435 -0.3602 -0.1504 -0.9221
   76MOL   C14619796   2.943   6.433   4.491  0.2865 -0.2562  0.4669
   76MOL   C14719797   2.992   6.412   4.618  0.3264 -0.0546  0.1332
   76MOL   C14819798   2.918   6.339   4.722  0.3891  0.2375 -0.3015
   76MOL   C14919799   3.130   6.463   4.658  0.3412  0.0898  0.3813
   76MOL   H15019800   2.726   6.396   4.512 -0.8296 -0.5021 -1.3912
   76MOL   H15119801   2.779   6.478   4.365 -1.4045  1.1967  0.9669
   76MOL   H15219802   3.006   6.480   4.417  0.4283 -0.1018  0.6858
   76MOL   H15319803   2.845   6.408   4.766 -2.2404 -1.6606 -1.5243
   76MOL   H15419804   2.993   6.304   4.792 -1.1938 -0.6887  0.9574
   76MOL   H15519805   2.872   6.251   4.677 -0.5024  0.8077 -0.5219
   76MOL   H15619806   3.167   6.526   4.576  1.0617  2.5691  2.5441
   76MOL   H15719807   3.206   6.387   4.677  0.9473  0.3266 -1.0054
   76MOL   C15819808   3.123   6.570   4.774 -0.3208 -0.2718 -0.2922
   76MOL   C15919809   3.264   6.613   4.816  0.5626  0.1100  0.0519
   76MOL   C16019810   3.320   6.614   4.940  0.0120 -0.5017  0.2834
   76MOL   C16119811   3.257   6.582   5.070  0.1053 -0.2544  0.5212
   76MOL   C16219812   3.473   6.656   4.957  0.3462  0.2688  0.2130
   76MOL   H16319813   3.087   6.514   4.861 -0.7129 -2.1042 -1.6148
   76MOL   H16419814   3.055   6.653   4.753 -1.5227 -1.1832 -0.1011
   76MOL   H16519815   3.322   6.652   4.734 -0.2107 -1.8706 -1.4815
   76MOL   H16619816   3.328   6.527   5.132 -0.6978  0.5044  2.1450
   76MOL   H16719817   3.171   6.515   5.064 -0.0238  0.0161 -0.7133
   76MOL   H16819818   3.208   6.666   5.119  0.2673  1.3993 -2.0547
   76MOL   H16919819   3.530   6.666   4.864  3.0833  0.2063  1.8373
   76MOL   H17019820   3.515   6.573   5.013  0.7309  0.8579  0.8055
   76MOL   C17119821   3.483   6.792   5.033  0.2733  0.3596 -0.0802
   76MOL   C17219822   3.628   6.844   5.023  0.1663  0.1865  0.2976
   76MOL   C17319823   3.729   6.837   5.114 -0.5649 -0.1170 -0.3406
   76MOL   C17419824   3.715   6.770   5.251 -0.1317  0.1973  0.1053
   76MOL   C17519825   3.863   6.903   5.090  0.5649  0.3269 -0.7102
   76MOL   H17619826   3.452   6.804   5.137  1.4999 -1.9495  0.5917
   76MOL   H17719827   3.419   6.861   4.978 -0.6978  0.1806  0.8119
   76MOL   H17819828   3.645   6.890   4.927 -2.1756  0.6077  0.0545
   76MOL   H17919829   3.615   6.730   5.270 -1.4853  3.3633  0.0365
   76MOL   H18019830   3.741   6.839   5.331 -0.7907  1.0351 -0.3851
   76MOL   H18119831   3.783   6.685   5.247  0.6875  0.9408 -2.8243
   76MOL   H18219832   3.889   6.965   5.175 -1.4033  0.1747  0.0334
   76MOL   H18319833   3.864   6.960   4.997 -1.3481  0.1557 -0.8617
   76MOL   C18419834   3.982   6.802   5.080 -0.6020  0.3430  0.3242
   76MOL   C18519835   3.969   6.710   4.963 -0.5147 -0.2178 -0.8814
   76MOL   C18619836   3.937   6.580   4.960  0.0269 -0.3862  0.1554
   76MOL   C18719837   3.909   6.497   5.086 -0.8475  0.7006  0.6621
   76MOL   C18819838   3.917   6.506   4.831 -0.3039  0.8612  0.5313
   76MOL   H18919839   3.993   6.747   5.173  0.8546  0.3663  0.1831
   76MOL   H19019840   4.081   6.848   5.073 -0.7182  0.6320  0.5861
   76MOL   H19119841   3.975   6.754   4.865  0.9569 -0.6797 -1.0211
   76MOL   H19219842   3.805   6.502   5.118 -0.4947  2.2405  1.6051
   76MOL   H19319843   3.960   6.542   5.171 -0.3040 -2.7036  2.1952
   76MOL   H19419844   3.939   6.393   5.076  0.0461  1.0127  0.0321
   76MOL   H19519845   3.984   6.420   4.839 -3.1566 -1.5444 -0.3779
   76MOL   H19619846   3.959   6.561   4.746  0.1371  0.7881  0.7045
   76MOL   C19719847   3.772   6.461   4.793 -0.4353  0.0772  0.4939
   76MOL   C19819848   3.770   6.436   4.642 -0.1334 -0.4565 -0.4042
   76MOL   C19919849   3.661   6.442   4.569 -0.9509  0.2802  0.5072
   76MOL   C20019850   3.523   6.466   4.621 -0.1366 -0.0998  0.5355
   76MOL   C20119851   3.666   6.436   4.409  0.7990 -0.4428  0.6471
   76MOL   H20219852   3.699   6.535   4.825 -0.6499  0.3957 -0.7167
   76MOL   H20319853   3.757   6.370   4.851  0.7232  0.6425  1.7085
   76MOL   H20419854   3.864   6.420   4.591  0.0011  1.0985 -0.6525
   76MOL   H20519855   3.447   6.400   4.579 -1.6427  0.4670  2.3205
   76MOL   H20619856   3.482   6.559   4.581 -1.4258 -0.6518  0.5345
   76MOL   H20719857   3.510   6.464   4.729 -2.0196 -0.0533  0.3192
   76MOL   H20819858   3.608   6.518   4.366  0.7562 -1.0337 -0.4332
   76MOL   H20919859   3.609   6.351   4.369 -1.1701  0.2282  1.9385
   76MOL   C21019860   3.803   6.450   4.340  0.9822 -0.5744  0.2378
   76MOL   C21119861   3.799   6.451   4.191  0.0011 -0.5656  0.0770
   76MOL   C21219862   3.896   6.424   4.098 -0.0829 -0.4116 -0.5107
   76MOL   C21319863   4.032   6.380   4.148  0.2595 -0.1941 -0.1130
   76MOL   C21419864   3.862   6.407   3.948  0.0307  0.1823  0.6961
   76MOL   H21519865   3.855   6.360   4.373 -1.8288 -1.3399  2.8896
   76MOL   H21619866   3.854   6.541   4.371  0.2602  0.9599 -2.9119
   76MOL   H21719867   3.699   6.455   4.150  0.5313 -1.0286 -1.2991
   76MOL   H21819868   4.056   6.280   4.110 -1.2024 -0.3572 -0.6268
   76MOL   H21919869   4.061   6.397   4.252  1.7223 -0.9182 -0.3760
   76MOL   H22019870   4.104   6.445   4.098  0.4205 -0.2653  0.0271
   76MOL   H22119871   3.756   6.431   3.938  0.3305  1.2270 -0.0830
   76MOL   H22219872   3.858   6.305   3.911 -1.7713 -0.1594  1.8029
   76MOL   C22319873   3.947   6.486   3.857  0.1310 -0.7739 -0.1518
   76MOL   C22419874   3.911   6.454   3.712 -0.4117 -0.0500  0.2304
   76MOL   C22519875   3.988   6.386   3.624 -0.2768 -0.0640  0.1229
   76MOL   C22619876   4.124   6.332   3.643 -0.1367  0.0914 -0.0562
   76MOL   C22719877   3.929   6.364   3.486 -0.5113  0.0895  0.0971
   76MOL   H22819878   4.053   6.469   3.877 -0.5201 -1.4307  3.2021
   76MOL   H22919879   3.922   6.589   3.879  0.2230 -1.0251  1.1960
   76MOL   H23019880   3.807   6.474   3.691 -0.9906 -3.3858 -0.4537
   76MOL   H23119881   4.152   6.254   3.571  1.3232  0.7250 -0.1839
   76MOL   H23219882   4.152   6.293   3.741  0.2869 -2.1073 -1.0248
   76MOL   H23319883   4.179   6.426   3.640 -0.9229  0.4995 -2.4304
   76MOL   H23419884   3.992   6.403   3.406 -1.3408 -2.0305 -1.6339
   76MOL   H23519885   3.837   6.422   3.482  0.4881  1.7137  0.3330
   76MOL   C23619886   3.899   6.216   3.463 -0.0959  0.9038  0.3804
   76MOL   C23719887   3.809   6.155   3.568 -0.1790  0.3863  0.2481
   76MOL   C23819888   3.803   6.026   3.597 -0.1700  0.1498 -0.0007
   76MOL   C23919889   3.907   5.919   3.556  0.2349  0.6718 -0.0157
   76MOL   C24019890   3.703   5.972   3.696 -0.0086 -0.0298  0.3413
   76MOL   H24119891   3.995   6.166   3.452 -1.0947 -0.7627 -1.1946
   76MOL   H24219892   3.849   6.198   3.367  1.5494  0.3086 -0.3833
   76MOL   H24319893   3.727   6.217   3.601 -1.3946 -1.2254  0.3211
   76MOL   H24419894   3.854   5.831   3.520  2.4964 -0.6430 -0.2621
   76MOL   H24519895   3.966   5.897   3.645 -1.7611 -0.6864  0.9948
   76MOL   H24619896   3.966   5.964   3.476  0.1853 -2.2574 -1.7739
   76MOL   H24719897   3.678   5.869   3.675  2.4170 -0.8824  1.4768
   76MOL   H24819898   3.613   6.034   3.694 -0.5002 -0.6304  2.0945
   76MOL   C24919899   3.756   5.983   3.843 -0.1565  0.5328  0.2778
   76MOL   C25019900   3.666   5.911   3.940 -0.1311 -0.5445 -0.5908
   76MOL   C25119901   3.577   5.968   4.018  0.3995 -0.1409 -0.7551
   76MOL   C25219902   3.554   6.121   4.025  0.1729  0.1662  0.4612
   76MOL   C25319903   3.497   5.879   4.111  0.2265 -1.2289 -0.3150
   76MOL   H25419904   3.766   6.088   3.870  1.9340  0.3613  0.2417
   76MOL   H25519905   3.855   5.937   3.851 -0.5139  0.0162  1.8901
   76MOL   H25619906   3.675   5.803   3.946 -0.3836 -0.5400 -0.1076
   76MOL   H25719907   3.479   6.144   3.949 -0.1220  1.0170  1.0003
   76MOL   H25819908   3.640   6.184   4.001  1.7447 -1.4833  1.6660
   76MOL   H25919909   3.533   6.150   4.128  1.6651 -2.3166  1.4842
   76MOL   H26019910   3.391   5.902   4.106  0.2853 -1.0245 -0.6935
   76MOL   H26119911   3.527   5.915   4.210 -2.3408 -1.2332  0.4796
   76MOL   H26219912   3.526   5.775   4.104  3.5648 -0.4597  0.9337
   77MOL     C119913   6.647   0.604   2.980  0.7251  0.4154  0.0183
   77MOL     C219914   6.577   0.492   2.897 -0.8183 -0.3154  0.5755
   77MOL     C319915   6.444   0.465   2.889 -0.3954  0.1420 -0.4118
   77MOL     C419916   6.344   0.554   2.964  0.3862  0.0120  0.2226
   77MOL     C519917   6.383   0.347   2.822  0.2171  0.2590 -1.2247
   77MOL     H619918   6.640   0.702   2.932 -1.5789 -0.3371 -1.2367
   77MOL     H719919   6.597   0.613   3.077  0.3613 -1.7544  0.0531
   77MOL     H819920   6.652   0.437   2.842 -1.1689  2.8651 -3.3617
   77MOL     H919921   6.383   0.651   2.995 -0.0902  0.9361 -2.0113
   77MOL    H1019922   6.293   0.513   3.051  2.8827 -2.7349  0.4885
   77MOL    H1119923   6.269   0.578   2.889 -1.1194  1.6484  2.1941
   77MOL    H1219924   6.460   0.289   2.772  0.6537 -0.0997 -0.1665
   77MOL    H1319925   6.319   0.391   2.746  2.3589  0.7752 -2.7642
   77MOL    H1419926   6.752   0.585   3.003  0.3611 -0.6970  0.8447
   77MOL    C1519927   6.301   0.252   2.911 -0.8641 -0.4508  0.6922
   77MOL    C1619928   6.297   0.112   2.845  0.1378 -0.3167 -0.4692
   77MOL    C1719929   6.199   0.021   2.863  0.1149 -0.0007 -0.1032
   77MOL    C1819930   6.068   0.042   2.942  0.0292 -0.0852  0.4785
   77MOL    C1919931   6.215   7.771   2.785 -0.1667  0.2039 -0.7776
   77MOL    H2019932   6.201   0.293   2.921 -0.7067  1.4788 -4.2380
   77MOL    H2119933   6.347   0.245   3.009  0.6799 -0.6495 -0.0246
   77MOL    H2219934   6.384   0.085   2.787  0.8383  0.5845  0.1416
   77MOL    H2319935   6.078   0.018   3.048  0.8865  1.6664  0.8074
   77MOL    H2419936   5.983   7.875   2.895 -0.4235  3.1682 -2.2984
   77MOL    H2519937   6.038   0.146   2.927  0.8077  0.0618 -0.0851
   77MOL    H2619938   6.210   7.687   2.854  0.5209  0.1899 -0.7451
   77MOL    H2719939   6.311   7.766   2.735 -0.0763  0.2651 -0.6121
   77MOL    C2819940   6.098   7.756   2.683 -0.0201  0.3266 -0.3841
   77MOL    C2919941   6.124   7.637   2.596  0.5642  0.4428  0.0531
   77MOL    C3019942   6.129   7.647   2.460  0.1164  0.1491  0.0225
   77MOL    C3119943   6.112   7.784   2.391 -0.0170  0.2904  0.4959
   77MOL    C3219944   6.130   7.518   2.381 -0.2367 -0.4027 -0.3475
   77MOL    H3319945   6.074   7.850   2.634  0.4464  0.7014  0.0964
   77MOL    H3419946   6.008   7.723   2.734  1.4005 -0.1292  1.9456
   77MOL    H3519947   6.125   7.544   2.651 -2.1296  0.4128  0.0813
   77MOL    H3619948   6.153   7.868   2.447  0.8553 -0.1621  0.5510
   77MOL    H3719949   6.005   7.800   2.378 -0.2238 -0.5196  1.1417
   77MOL    H3819950   6.164   7.778   2.296  1.8016 -1.5200  1.5620
   77MOL    H3919951   6.155   7.436   2.449 -0.4305 -0.2828 -0.1272
   77MOL    H4019952   6.198   7.536   2.298  0.5376 -1.6521  0.0008
   77MOL    C4119953   5.983   7.485   2.331 -0.0533 -0.0099 -0.4045
   77MOL    C4219954   5.989   7.366   2.246  1.2646  0.1332 -0.3585
   77MOL    C4319955   6.019   7.351   2.115  1.0938  0.0521 -0.1183
   77MOL    C4419956   6.050   7.469   2.023  0.6842 -0.2885  0.4317
   77MOL    C4519957   6.019   7.212   2.050  0.3713  0.3194  0.3214
   77MOL    H4619958   5.948   7.567   2.268 -0.1943  0.8571  0.8009
   77MOL    H4719959   5.912   7.480   2.413  0.0322 -1.4997 -0.4084
   77MOL    H4819960   5.960   7.273   2.293 -2.3495  1.5529  0.3952
   77MOL    H4919961   6.064   7.563   2.076  0.7944  0.8236 -1.5270
   77MOL    H5019962   5.974   7.488   1.947 -0.0423 -1.5636  0.8242
   77MOL    H5119963   6.149   7.455   1.979  0.7227  2.4702 -0.4163
   77MOL    H5219964   6.018   7.134   2.126  1.1704 -0.1424 -0.1291
   77MOL    H5319965   6.109   7.202   1.989 -2.0920  0.0452 -3.4429
   77MOL    C5419966   5.893   7.197   1.966 -0.3142  0.0627  0.1012
   77MOL    C5519967   5.897   7.066   1.882 -0.6837 -0.6343  0.3182
   77MOL    C5619968   5.817   7.042   1.776  0.2123  0.3359  0.6985
   77MOL    C5719969   5.710   7.138   1.728  0.4017 -0.0598  1.1598
   77MOL    C5819970   5.844   6.927   1.687  0.0101 -1.1287 -0.3826
   77MOL    H5919971   5.903   7.275   1.891 -0.0215  0.0505  0.1262
   77MOL    H6019972   5.799   7.211   2.019  0.0005 -1.5989  1.1263
   77MOL    H6119973   5.971   6.994   1.914  1.3802  1.7059  0.8921
   77MOL    H6219974   5.611   7.094   1.740  0.1631  0.0804 -0.3070
   77MOL    H6319975   5.720   7.161   1.622  1.2343 -3.0075  0.5443
   77MOL    H6419976   5.722   7.237   1.771 -1.2033  1.0832 -0.9582
   77MOL    H6519977   5.902   6.859   1.749 -1.5540 -3.0600 -0.9608
   77MOL    H6619978   5.899   6.967   1.603  2.0073 -0.3791  1.2556
   77MOL    C6719979   5.713   6.857   1.633  0.3468 -0.1373 -1.0395
   77MOL    C6819980   5.722   6.717   1.572 -0.7886 -0.9709 -0.5174
   77MOL    C6919981   5.730   6.687   1.443  0.1491  0.2477  0.3311
   77MOL    C7019982   5.747   6.790   1.336  0.3642 -0.3827 -0.2526
   77MOL    C7119983   5.724   6.543   1.394 -0.7127 -0.1713  0.5908
   77MOL    H7219984   5.656   6.921   1.566  1.0248  0.3805 -1.1232
   77MOL    H7319985   5.642   6.844   1.715 -1.0097 -0.0385 -2.1853
   77MOL    H7419986   5.729   6.635   1.642  1.7331 -0.5675 -0.2782
   77MOL    H7519987   5.841   6.767   1.287  1.2058 -0.2947  1.3116
   77MOL    H7619988   5.739   6.891   1.377 -2.7849  0.0126 -1.6664
   77MOL    H7719989   5.676   6.780   1.253  1.6301 -0.4228 -1.3490
   77MOL    H7819990   5.652   6.523   1.314  0.9335 -2.3552 -0.3937
   77MOL    H7919991   5.688   6.486   1.480  0.7192 -0.0268  1.2927
   77MOL    C8019992   5.861   6.487   1.357 -0.1349  0.0788  0.2209
   77MOL    C8119993   5.855   6.350   1.289 -0.0706  0.4830 -0.0114
   77MOL    C8219994   5.934   6.243   1.329 -0.1733 -0.0571 -0.5228
   77MOL    C8319995   6.052   6.248   1.426  0.1749 -0.0074  0.0666
   77MOL    C8419996   5.922   6.109   1.257 -0.2230  0.2653  0.0754
   77MOL    H8519997   5.931   6.493   1.440 -0.0655  1.0656  0.0986
   77MOL    H8619998   5.911   6.550   1.283 -1.6996 -0.1203 -1.0253
   77MOL    H8719999   5.782   6.334   1.211  2.8838  0.1106 -2.7689
   77MOL    H8820000   6.026   6.278   1.527  0.4380 -0.1410  0.1760
   77MOL    H8920001   6.134   6.316   1.405  0.0758  0.2925  0.6599
   77MOL    H9020002   6.084   6.144   1.427 -0.3645 -0.1751  0.2467
   77MOL    H9120003   6.018   6.108   1.205 -0.8013  0.5479 -1.0047
   77MOL    H9220004   5.845   6.103   1.179 -1.2391 -1.6717  1.1712
   77MOL    C9320005   5.878   5.992   1.347 -0.7666 -0.7268  0.5953
   77MOL    C9420006   5.904   5.862   1.281  0.1589 -0.6918  0.7630
   77MOL    C9520007   5.884   5.735   1.329  0.6334  0.0706  0.9022
   77MOL    C9620008   5.817   5.707   1.460 -0.3633 -1.2821  0.0674
   77MOL    C9720009   5.902   5.608   1.243  0.0126  0.9593 -0.1256
   77MOL    H9820010   5.778   5.988   1.392 -1.0195  0.1347  0.1229
   77MOL    H9920011   5.933   5.996   1.441 -3.1474  1.3480  1.9740
   77MOL   H10020012   5.942   5.868   1.180  1.2516  1.3641  1.2710
   77MOL   H10120013   5.799   5.794   1.523  0.1574 -0.4902 -0.8623
   77MOL   H10220014   5.884   5.648   1.523  0.9946 -0.0953 -0.2496
   77MOL   H10320015   5.723   5.653   1.446  1.5955 -5.1649  0.9732
   77MOL   H10420016   5.826   5.538   1.279  2.9074 -1.4325  1.5629
   77MOL   H10520017   5.983   5.555   1.292 -1.0008  0.2309  0.7983
   77MOL   C10620018   5.914   5.629   1.092  0.3307  0.7485  0.2530
   77MOL   C10720019   5.910   5.489   1.025  0.0829  0.7233 -0.5889
   77MOL   C10820020   6.011   5.433   0.956  0.1833 -0.2616 -0.1804
   77MOL   C10920021   6.136   5.504   0.915  0.1134  0.1000  0.9019
   77MOL   C11020022   5.998   5.301   0.895  0.1275 -0.8986  0.1324
   77MOL   H11120023   6.007   5.681   1.067  0.5639  0.1006 -0.2547
   77MOL   H11220024   5.836   5.691   1.047  0.8351 -0.7480 -2.8224
   77MOL   H11320025   5.816   5.436   1.035  0.7083 -0.6285 -1.7824
   77MOL   H11420026   6.121   5.601   0.867  0.2379  0.3326  1.3315
   77MOL   H11520027   6.208   5.448   0.854  0.7631  0.1796  1.5908
   77MOL   H11620028   6.191   5.527   1.006 -2.2131  0.4103  2.2658
   77MOL   H11720029   5.924   5.248   0.955 -0.0734 -0.8168 -0.0455
   77MOL   H11820030   6.089   5.245   0.917  1.3658  0.4723 -1.4151
   77MOL   C11920031   5.966   5.294   0.749  0.1569  0.3067 -0.4844
   77MOL   C12020032   5.958   5.149   0.700 -0.2494  0.2325  0.0886
   77MOL   C12120033   5.846   5.086   0.651 -0.6685 -0.8152 -0.1630
   77MOL   C12220034   5.717   5.159   0.629  1.0082 -0.0174  0.2539
   77MOL   C12320035   5.843   4.938   0.611  0.0111  0.3908  0.2057
   77MOL   H12420036   6.038   5.349   0.689  1.1832 -1.5165 -0.9628
   77MOL   H12520037   5.881   5.355   0.719  1.6812  2.6572 -0.2083
   77MOL   H12620038   6.056   5.104   0.705 -0.1744  0.4940  0.9483
   77MOL   H12720039   5.628   5.096   0.628  0.6863  0.4413 -1.1845
   77MOL   H12820040   5.713   5.205   0.530  1.2734  0.4035  0.4404
   77MOL   H12920041   5.692   5.232   0.705 -2.5060 -1.3266  0.4425
   77MOL   H13020042   5.851   4.938   0.502  0.6540 -0.1571  0.2469
   77MOL   H13120043   5.741   4.911   0.638  0.1571  0.7036  1.0807
   77MOL   C13220044   5.955   4.848   0.671  0.2470 -0.0824  0.7409
   77MOL   C13320045   5.936   4.705   0.601 -0.2096  0.3041 -0.2761
   77MOL   C13420046   5.949   4.582   0.648 -0.0188  0.0094 -0.3174
   77MOL   C13520047   5.992   4.556   0.790  0.1603 -0.3884 -0.2605
   77MOL   C13620048   5.928   4.454   0.568 -0.0225 -0.4640  0.0086
   77MOL   H13720049   5.958   4.838   0.780  1.8466 -2.7278  0.4996
   77MOL   H13820050   6.047   4.893   0.634 -0.6389  0.5119 -0.8051
   77MOL   H13920051   5.900   4.717   0.500  0.1878 -1.5793 -0.6612
   77MOL   H14020052   6.067   4.477   0.790 -0.2254 -0.7598 -0.0607
   77MOL   H14120053   5.903   4.522   0.844 -0.1459  1.8905  0.7104
   77MOL   H14220054   6.035   4.643   0.839  0.2466  0.4174 -1.7375
   77MOL   H14320055   5.862   4.379   0.612 -0.8120 -0.3279 -0.9323
   77MOL   H14420056   6.023   4.400   0.568  0.0728 -0.3005  0.5564
   77MOL   C14520057   5.871   4.477   0.428  0.3900  0.3440 -0.1676
   77MOL   C14620058   5.842   4.347   0.359  0.7976 -0.2156 -0.6706
   77MOL   C14720059   5.839   4.318   0.226 -0.4446 -0.2329 -0.1662
   77MOL   C14820060   5.878   4.408   0.111  0.0171  0.1979 -0.0089
   77MOL   C14920061   5.804   4.177   0.183  0.4630 -0.2746 -0.0963
   77MOL   H15020062   5.957   4.520   0.375  1.9274  0.6593  2.4781
   77MOL   H15120063   5.786   4.545   0.423 -0.1981 -0.5164 -2.1163
   77MOL   H15220064   5.810   4.263   0.418  2.8434  0.0297  0.8541
   77MOL   H15320065   5.957   4.365   0.050  1.2933  0.8992  1.1021
   77MOL   H15420066   5.890   4.514   0.136  2.6064  0.0682 -0.5244
   77MOL   H15520067   5.799   4.407   0.036 -1.2021 -0.7083  1.2698
   77MOL   H15620068   5.813   4.106   0.265  0.0935  2.2397  2.1909
   77MOL   H15720069   5.878   4.139   0.113 -0.1505 -0.3995 -0.6875
   77MOL   C15820070   5.661   4.188   0.128  0.2640 -0.4217 -0.5541
   77MOL   C15920071   5.603   4.060   0.076 -0.5182  0.3466  0.3620
   77MOL   C16020072   5.553   4.034   7.832  0.9253  0.1422 -0.3605
   77MOL   C16120073   5.554   4.130   7.717  0.7885 -0.5071  0.4035
   77MOL   C16220074   5.494   3.888   7.809 -0.0049 -0.5475 -0.4909
   77MOL   H16320075   5.646   4.257   0.045 -0.8075  1.6531  1.2965
   77MOL   H16420076   5.598   4.219   0.212 -1.8026 -0.2592 -2.1379
   77MOL   H16520077   5.603   3.978   0.146 -0.4841  0.8189  0.9169
   77MOL   H16620078   5.571   4.062   7.633  0.7338  1.8734 -1.6057
   77MOL   H16720079   5.627   4.211   7.721 -0.4221  0.6334 -0.2924
   77MOL   H16820080   5.456   4.177   7.703  1.4862  0.8209 -0.1932
   77MOL   H16920081   5.460   3.888   7.705  1.2802 -0.8598 -0.9183
   77MOL   H17020082   5.401   3.860   7.857 -0.9548 -0.3473 -2.1836
   77MOL   C17120083   5.588   3.772   7.848  0.2859 -0.2704 -0.7610
   77MOL   C17220084   5.727   3.786   7.790 -0.5016 -0.1309  0.4816
   77MOL   C17320085   5.786   3.702   7.707 -0.1708  0.1276  0.0474
   77MOL   C17420086   5.714   3.576   7.663  0.4551 -0.5787  0.0446
   77MOL   C17520087   5.926   3.727   7.664 -0.0514  0.7893 -0.3717
   77MOL   H17620088   5.538   3.677   7.829  1.0334 -0.7330 -0.4221
   77MOL   H17720089   5.603   3.769   0.074  0.3362 -1.9435 -0.7967
   77MOL   H17820090   5.780   3.868   7.835 -2.4985  1.7695 -0.5213
   77MOL   H17920091   5.627   3.596   7.601  1.7642  2.1708 -0.9659
   77MOL   H18020092   5.682   3.526   7.755 -1.0672  2.3216  1.1404
   77MOL   H18120093   5.779   3.502   7.617 -1.1563 -0.8913 -1.7822
   77MOL   H18220094   5.954   3.832   7.675 -0.3708  1.0345 -1.7714
   77MOL   H18320095   5.935   3.710   7.556  0.3825  3.8760 -0.8809
   77MOL   C18420096   6.028   3.628   7.738  0.6061  0.5439  0.1610
   77MOL   C18520097   6.185   3.660   7.728  0.6231  0.2439  1.1748
   77MOL   C18620098   6.286   3.577   7.715 -0.3510  0.4555  0.4646
   77MOL   C18720099   6.266   3.420   7.689 -0.1517 -0.5914 -0.4380
   77MOL   C18820100   6.422   3.628   7.697  0.2194 -0.2309  0.1117
   77MOL   H18920101   5.992   3.527   7.719  2.7751  0.0492 -1.6455
   77MOL   H19020102   6.015   3.636   7.846  0.7742 -2.9484  0.5019
   77MOL   H19120103   6.206   3.766   7.731 -0.2699  0.4411  0.7477
   77MOL   H19220104   6.178   3.399   7.629 -0.9599  0.0074  0.5346
   77MOL   H19320105   6.271   3.361   7.781 -1.2556  0.7797  0.5102
   77MOL   H19420106   6.343   3.383   7.620  2.6636  1.2728  1.5844
   77MOL   H19520107   6.499   3.557   7.729 -0.7357 -0.1987  2.5744
   77MOL   H19620108   6.433   3.716   7.761 -0.7222 -2.2571  3.1613
   77MOL   C19720109   6.469   3.659   7.552 -0.2229  0.4363 -0.6520
   77MOL   C19820110   6.621   3.693   7.550  0.5792 -0.9197 -0.5598
   77MOL   C19920111   6.718   3.602   7.555 -0.4826  0.0290  0.6488
   77MOL   C20020112   6.696   3.450   7.555 -0.8378 -0.0654 -0.0332
   77MOL   C20120113   6.863   3.645   7.576  0.4497  0.3565 -0.2197
   77MOL   H20220114   6.410   3.745   7.520 -1.5429  0.4769  1.7742
   77MOL   H20320115   6.442   3.580   7.481 -1.2149  1.4478 -1.4188
   77MOL   H20420116   6.656   3.795   7.560 -3.4594  0.3726  1.2284
   77MOL   H20520117   6.747   3.394   7.477 -0.6967 -2.4983  1.7342
   77MOL   H20620118   6.592   3.422   7.533 -1.3074 -0.1652  2.1903
   77MOL   H20720119   6.723   3.409   7.653  1.2283  2.8913  0.7145
   77MOL   H20820120   6.875   3.747   7.539 -2.1871  0.9590  0.4639
   77MOL   H20920121   6.920   3.585   7.505  0.2013  0.5348 -0.5747
   77MOL   C21020122   6.896   3.632   7.722  0.1032  0.7055 -0.4314
   77MOL   C21120123   6.836   3.737   7.813  0.8018  0.4020  0.3997
   77MOL   C21220124   6.752   3.724   0.030 -0.0494  0.2634 -0.3468
   77MOL   C21320125   6.698   3.589   0.070 -0.9005  0.4668 -0.6217
   77MOL   C21420126   6.695   3.846   0.121 -0.3140 -0.3174  0.0903
   77MOL   H21520127   7.002   3.636   7.748  0.8316  0.2774 -3.1402
   77MOL   H21620128   6.885   3.527   7.750  1.0520  0.0657 -2.3221
   77MOL   H21720129   6.873   3.836   7.788 -1.0621  1.2568  0.9312
   77MOL   H21820130   6.711   3.515   7.873 -1.0837  0.3991 -0.5899
   77MOL   H21920131   6.590   3.599   0.084 -0.7771  0.2530  0.5322
   77MOL   H22020132   6.745   3.543   0.157  0.0559 -0.8402 -1.8042
   77MOL   H22120133   6.770   3.861   0.198  1.0626  1.9136 -1.6254
   77MOL   H22220134   6.606   3.822   0.180  0.0641 -2.6302 -0.2144
   77MOL   C22320135   6.683   3.987   0.050  0.0671  0.0332 -0.6284
   77MOL   C22420136   6.567   3.992   7.842 -0.6133 -0.0556  0.3296
   77MOL   C22520137   6.567   4.035   7.708 -0.1636  0.1354 -0.1078
   77MOL   C22620138   6.694   4.080   7.639  0.3153  1.0010  0.0988
   77MOL   C22720139   6.440   4.044   7.624 -0.0041  0.7978  0.2321
   77MOL   H22820140   6.777   4.018   0.003  0.1226  0.6260 -0.1392
   77MOL   H22920141   6.665   4.061   0.128  0.4352 -1.8026  1.2496
   77MOL   H23020142   6.468   3.981   7.883 -1.6798  1.3173 -1.8190
   77MOL   H23120143   6.784   4.088   7.700 -0.0007  1.9533  0.4468
   77MOL   H23220144   6.679   4.182   7.603  2.0699  1.6202  1.0511
   77MOL   H23320145   6.712   4.017   7.551 -1.3942 -2.3815  2.0854
   77MOL   H23420146   6.354   3.998   7.674  0.6243  1.1974  1.7311
   77MOL   H23520147   6.455   3.991   7.531 -0.1228 -0.8373  1.1209
   77MOL   C23620148   6.387   4.185   7.611  0.4591 -0.7891 -0.0821
   77MOL   C23720149   6.263   4.195   7.525 -0.4148 -0.2436 -0.3712
   77MOL   C23820150   6.137   4.225   7.567 -0.0649 -0.1407  0.0688
   77MOL   C23920151   6.086   4.243   7.712  0.5053  0.4405  0.9261
   77MOL   C24020152   6.026   4.232   7.462  0.6662  0.1996  0.3719
   77MOL   H24120153   6.463   4.252   7.570  0.1758  0.1716  0.9692
   77MOL   H24220154   6.355   4.223   7.707  3.6904 -0.1781  0.8201
   77MOL   H24320155   6.282   4.177   7.420 -1.8371 -1.9173 -0.3576
   77MOL   H24420156   6.165   4.274   7.780  0.6509 -0.4566  1.1746
   77MOL   H24520157   6.031   4.155   7.745 -0.5835  0.8222  0.1761
   77MOL   H24620158   6.024   4.332   7.719  1.5362  1.2347  0.0312
   77MOL   H24720159   6.053   4.217   7.357  0.5765  0.9292  0.2408
   77MOL   H24820160   6.003   4.336   7.442  0.7341  0.2856  0.7494
   77MOL   C24920161   5.900   4.157   7.501  0.0119 -0.0468  0.1279
   77MOL   C25020162   5.807   4.155   7.386  0.1984  0.3646  0.1004
   77MOL   C25120163   5.737   4.050   7.334  0.2417 -0.4579 -0.3244
   77MOL   C25220164   5.734   3.909   7.384 -0.2237 -0.1081 -0.0880
   77MOL   C25320165   5.640   4.073   7.215 -0.7692 -0.5032 -0.4865
   77MOL   H25420166   5.846   4.223   7.569  0.8051  0.7553 -0.0086
   77MOL   H25520167   5.915   4.063   7.554  1.7803 -0.3859 -0.9228
   77MOL   H25620168   5.789   4.242   7.325 -0.2688 -1.0931 -1.8819
   77MOL   H25720169   5.808   3.897   7.464  0.2319 -0.0634 -0.4995
   77MOL   H25820170   5.764   3.852   7.296 -1.4799  1.3813 -1.5212
   77MOL   H25920171   5.631   3.883   7.410 -1.4819  2.4706 -2.3234
   77MOL   H26020172   5.660   4.167   7.163  1.0961 -0.7245 -0.1751
   77MOL   H26120173   5.536   4.070   7.249 -1.1342  0.3632 -1.4845
   77MOL   H26220174   5.654   3.985   7.153 -0.8106 -0.6643 -0.2672
   78MOL     C120175   7.879   2.595   2.573  0.5450  0.3079 -0.5795
   78MOL     C220176   0.050   2.528   2.709  0.2854 -0.2210  0.1934
   78MOL     C320177   0.170   2.549   2.770 -0.1279 -0.0632 -0.4772
   78MOL     C420178   0.270   2.649   2.717 -0.2291 -0.0557 -0.1949
   78MOL     C520179   0.202   2.497   2.906 -0.4268  0.6160 -0.0770
   78MOL     H620180   7.779   2.562   2.546 -0.1511  0.1806  1.9942
   78MOL     H720181   7.875   2.702   2.593 -2.1096 -0.3839  2.9323
   78MOL     H820182   7.863   2.460   2.754  0.2568 -0.9289 -0.8941
   78MOL     H920183   0.359   2.591   2.692 -0.4898 -0.7597  0.4777
   78MOL    H1020184   0.319   2.722   2.782  1.1357 -1.7282  0.7250
   78MOL    H1120185   0.243   2.702   2.626  0.7218  0.0466 -0.4223
   78MOL    H1220186   0.215   2.581   2.974 -0.1596  0.8039 -0.3601
   78MOL    H1320187   0.301   2.453   2.906 -0.5061  0.4405  0.2266
   78MOL    H1420188   0.065   2.572   2.491 -0.1643 -0.7490 -0.8837
   78MOL    C1520189   0.104   2.381   2.957 -0.5107  0.2290  0.1554
   78MOL    C1620190   0.162   2.327   3.085 -0.5435  0.3142  0.3859
   78MOL    C1720191   0.125   2.342   3.213  0.7110 -0.4573  0.4410
   78MOL    C1820192   0.007   2.428   3.260  0.1364 -0.8940 -0.8354
   78MOL    C1920193   0.204   2.276   3.321  0.2266 -0.2237  0.1369
   78MOL    H2020194   0.107   2.300   2.884 -1.0747  1.5122 -1.3239
   78MOL    H2120195   0.006   2.414   2.991 -0.4102  0.3587  0.3206
   78MOL    H2220196   0.247   2.264   3.059 -1.2353  0.3986 -2.2498
   78MOL    H2320197   7.878   2.522   3.206 -2.0946 -0.1306  0.8556
   78MOL    H2420198   0.013   2.462   3.363 -0.8070  0.2263 -1.1380
   78MOL    H2520199   7.796   2.374   3.241 -1.4026  1.4475 -0.1745
   78MOL    H2620200   0.268   2.198   3.277  1.3913  0.7404  0.0945
   78MOL    H2720201   0.128   2.227   3.382  0.8608  0.8749  1.8435
   78MOL    C2820202   0.279   2.388   3.404  0.7880  0.1039  0.1292
   78MOL    C2920203   0.328   2.316   3.524  0.1961 -0.2218 -0.3003
   78MOL    C3020204   0.280   2.325   3.656 -0.2224  0.3341  0.0078
   78MOL    C3120205   0.162   2.408   3.703 -0.2634  0.6607 -0.2754
   78MOL    C3220206   0.346   2.252   3.762  0.1741 -0.1326  0.6688
   78MOL    H3320207   0.217   2.474   3.428  1.7519  1.3965 -1.9592
   78MOL    H3420208   0.363   2.428   3.349  1.8621 -3.1559 -0.6933
   78MOL    H3520209   0.409   2.247   3.505 -1.0490 -1.5514 -0.8973
   78MOL    H3620210   0.108   2.454   3.620  2.4961  0.3690 -2.2890
   78MOL    H3720211   0.181   2.488   3.775  0.6184  1.6600 -1.5937
   78MOL    H3820212   0.105   2.340   3.765  1.1868 -1.3710 -1.1347
   78MOL    H3920213   0.364   2.330   3.836  2.8285  0.8410 -0.9461
   78MOL    H4020214   0.438   2.219   3.713 -0.9663 -0.2835 -1.4147
   78MOL    C4120215   0.268   2.124   3.812 -0.1758 -0.1710  0.4957
   78MOL    C4220216   0.336   2.043   3.919  0.3186  0.2516 -0.2060
   78MOL    C4320217   0.292   2.004   4.044 -0.4359  0.4700 -0.4967
   78MOL    C4420218   0.148   2.025   4.094  0.2272 -0.1426 -0.6081
   78MOL    C4520219   0.381   1.915   4.132  0.3352 -0.2442  0.3420
   78MOL    H4620220   0.234   2.069   3.724 -0.9121 -0.6553  1.0738
   78MOL    H4720221   0.176   2.159   3.860 -0.3047 -1.5287  1.2491
   78MOL    H4820222   0.429   2.001   3.886  1.1888  1.4210  0.6958
   78MOL    H4920223   0.139   2.037   4.202 -0.9884 -0.1928 -0.7050
   78MOL    H5020224   0.096   1.931   4.076 -1.2437  0.7270 -1.0000
   78MOL    H5120225   0.090   2.108   4.054 -1.0800 -1.6712 -1.9766
   78MOL    H5220226   0.443   1.847   4.074  1.0356  0.7837 -0.1234
   78MOL    H5320227   0.312   1.864   4.200  0.8918 -1.3034  0.1365
   78MOL    C5420228   0.483   2.003   4.215  0.1098 -0.2863 -0.8096
   78MOL    C5520229   0.555   1.915   4.324  0.2478 -0.3292  0.7861
   78MOL    C5620230   0.535   1.923   4.456 -0.2158 -0.4701  0.4819
   78MOL    C5720231   0.430   2.017   4.525  0.2046  0.3382  0.0847
   78MOL    C5820232   0.618   1.849   4.563 -0.1256  0.4846 -0.5538
   78MOL    H5920233   0.442   2.090   4.266 -1.7171 -0.6469 -1.5932
   78MOL    H6020234   0.561   2.028   4.144  0.4079 -1.6155 -0.9753
   78MOL    H6120235   0.640   1.859   4.288 -0.9904  0.0218 -2.9657
   78MOL    H6220236   0.348   2.054   4.463 -0.7424 -2.0517 -0.1354
   78MOL    H6320237   0.476   2.099   4.579 -2.1891  2.0964 -0.4738
   78MOL    H6420238   0.385   1.961   4.607 -2.3330 -0.2354 -1.6438
   78MOL    H6520239   0.555   1.772   4.607 -0.1438  0.4930 -0.5657
   78MOL    H6620240   0.644   1.918   4.644  2.0215 -1.5577  0.5712
   78MOL    C6720241   0.742   1.772   4.518 -0.1432  0.6004  0.2100
   78MOL    C6820242   0.817   1.718   4.635  0.0823 -0.2433  0.9006
   78MOL    C6920243   0.943   1.749   4.674 -0.5130  0.2981 -0.3477
   78MOL    C7020244   1.030   1.846   4.591  0.8886 -0.4842 -0.6380
   78MOL    C7120245   1.013   1.683   4.781  0.1765 -0.3965  0.3200
   78MOL    H7220246   0.806   1.830   4.452  1.4853  1.3271  2.3773
   78MOL    H7320247   0.714   1.693   4.447  0.5895 -0.4508  1.0794
   78MOL    H7420248   0.758   1.642   4.685 -0.9787  0.6775  1.0655
   78MOL    H7520249   0.976   1.923   4.536  1.6409  1.7856  1.7312
   78MOL    H7620250   1.100   1.792   4.527  3.0116  0.8825  0.4655
   78MOL    H7720251   1.100   1.899   4.656 -0.6080 -1.2476  1.6385
   78MOL    H7820252   0.936   1.654   4.853 -0.5877 -0.8289 -0.6524
   78MOL    H7920253   1.076   1.751   4.837  0.7458  1.4906 -2.5403
   78MOL    C8020254   1.100   1.559   4.741  0.1013 -0.2355 -0.5995
   78MOL    C8120255   1.153   1.491   4.865  0.1847 -0.2286  0.1339
   78MOL    C8220256   1.189   1.362   4.876 -0.2337  0.1577 -0.4611
   78MOL    C8320257   1.173   1.255   4.768 -0.0264  0.0595 -0.3451
   78MOL    C8420258   1.243   1.307   5.010 -0.0679  0.2404  0.6760
   78MOL    H8520259   1.191   1.572   4.682  0.3664  1.1122  0.0913
   78MOL    H8620260   1.031   1.497   4.683 -0.0175 -0.6992  0.0442
   78MOL    H8720261   1.189   1.542   4.952  0.8498 -1.4221  0.5635
   78MOL    H8820262   1.092   1.185   4.786 -0.8924  1.2344  0.3575
   78MOL    H8920263   1.265   1.198   4.752  1.0804  1.2181  1.6417
   78MOL    H9020264   1.148   1.303   4.673 -1.7820 -3.5923 -1.7956
   78MOL    H9120265   1.234   1.386   5.085 -0.6496 -1.3096  2.2682
   78MOL    H9220266   1.350   1.297   4.992  0.0038 -0.3163  1.4278
   78MOL    C9320267   1.181   1.170   5.061  0.4589 -0.1026 -0.2974
   78MOL    C9420268   1.039   1.192   5.110  0.0788 -0.2940 -0.1990
   78MOL    C9520269   0.989   1.172   5.235 -0.2735  0.5577 -0.8323
   78MOL    C9620270   1.060   1.116   5.353  0.7210  0.9275 -0.2598
   78MOL    C9720271   0.840   1.208   5.272 -0.1399  0.2222  0.0130
   78MOL    H9820272   1.243   1.124   5.137 -0.4421  0.8436  1.0270
   78MOL    H9920273   1.187   1.097   4.980 -0.0354 -0.4210 -0.0461
   78MOL   H10020274   0.966   1.222   5.035  0.1376  1.7785  0.5519
   78MOL   H10120275   1.152   1.063   5.328 -0.5651 -1.5447  0.0782
   78MOL   H10220276   0.994   1.036   5.387  0.0304  1.6751  0.1762
   78MOL   H10320277   1.070   1.184   5.438 -0.7540 -1.9668  2.2923
   78MOL   H10420278   0.805   1.111   5.308  0.0626 -0.0277 -0.4604
   78MOL   H10520279   0.788   1.234   5.180  0.8330 -0.4811 -0.7504
   78MOL   C10620280   0.828   1.324   5.369 -0.2097  0.3117  1.2980
   78MOL   C10720281   0.892   1.449   5.308  0.7783  0.0466  0.4885
   78MOL   C10820282   0.836   1.571   5.295 -0.3973 -0.5022 -0.4087
   78MOL   C10920283   0.689   1.601   5.343 -0.5853 -0.0829 -0.2032
   78MOL   C11020284   0.915   1.690   5.249  0.1139  0.2557 -0.4897
   78MOL   H11120285   0.870   1.294   5.465 -0.9363 -3.6457  0.4759
   78MOL   H11220286   0.724   1.342   5.397 -0.8327  0.6188 -1.1303
   78MOL   H11320287   0.994   1.435   5.275 -0.5337 -2.4201 -2.7470
   78MOL   H11420288   0.665   1.554   5.438 -1.1551  0.6056  0.0020
   78MOL   H11520289   0.611   1.574   5.272  0.1596 -0.5676 -0.8545
   78MOL   H11620290   0.678   1.709   5.358  0.2377  0.1406 -1.1555
   78MOL   H11720291   0.914   1.759   5.333 -0.4635 -1.2546  0.7592
   78MOL   H11820292   0.855   1.740   5.173 -0.3936 -1.5364 -1.3015
   78MOL   C11920293   1.064   1.660   5.201 -0.2054  0.5797 -0.8752
   78MOL   C12020294   1.126   1.777   5.131  0.7911 -0.3622  0.0190
   78MOL   C12120295   1.241   1.847   5.149 -0.4655 -0.2822  0.0514
   78MOL   C12220296   1.335   1.808   5.267 -0.7344 -0.3604  0.4101
   78MOL   C12320297   1.280   1.959   5.057  0.5648 -0.1588 -0.8794
   78MOL   H12420298   1.064   1.593   5.115 -1.5674 -2.0778  1.1245
   78MOL   H12520299   1.114   1.609   5.283 -3.7541  0.8032  1.5321
   78MOL   H12620300   1.068   1.809   5.046 -1.7578  0.9481  2.1716
   78MOL   H12720301   1.418   1.747   5.233  0.4046  0.3846  1.8451
   78MOL   H12820302   1.286   1.749   5.344  1.3055 -1.2618  1.0356
   78MOL   H12920303   1.384   1.891   5.317 -0.2844 -0.5363  0.2585
   78MOL   H13020304   1.221   1.946   4.967 -2.2275 -2.0153  1.1222
   78MOL   H13120305   1.382   1.933   5.026  0.8807 -0.3368  0.2804
   78MOL   C13220306   1.285   2.104   5.112 -0.4321  0.9076  0.0073
   78MOL   C13320307   1.176   2.127   5.206  0.5097 -0.5330 -0.5334
   78MOL   C13420308   1.178   2.149   5.340  0.3832 -0.3780  0.4811
   78MOL   C13520309   1.307   2.149   5.425 -0.5744  0.3947  0.5611
   78MOL   C13620310   1.045   2.156   5.413  0.4714  0.4978  0.1450
   78MOL   H13720311   1.297   2.170   5.027 -0.1596  0.3870 -0.3599
   78MOL   H13820312   1.376   2.118   5.171 -1.9575  0.9167  2.4298
   78MOL   H13920313   1.081   2.113   5.157  0.6595  0.4643 -1.1324
   78MOL   H14020314   1.304   2.210   5.516 -0.2507  0.3492  0.6029
   78MOL   H14120315   1.388   2.186   5.363  0.2201 -1.9835  0.1459
   78MOL   H14220316   1.332   2.051   5.466  2.3593 -0.2519 -2.5284
   78MOL   H14320317   0.969   2.138   5.337 -0.6955 -2.0590  1.8492
   78MOL   H14420318   1.029   2.258   5.449 -1.2773  0.8265 -1.4971
   78MOL   C14520319   1.037   2.052   5.520 -0.1583  0.1182 -0.1212
   78MOL   C14620320   0.902   2.061   5.596 -0.4579  0.6666  0.1656
   78MOL   C14720321   0.868   1.989   5.703  0.2059  0.4277 -0.4051
   78MOL   C14820322   0.957   1.903   5.779 -0.4420 -1.0894 -0.3076
   78MOL   C14920323   0.724   1.997   5.757 -0.1114 -0.1837  0.2329
   78MOL   H15020324   1.122   2.049   5.589 -2.1040  2.4852  2.5170
   78MOL   H15120325   1.041   1.961   5.462 -0.7839  0.5329 -0.8187
   78MOL   H15220326   0.832   2.125   5.546  2.4465  3.3731 -0.5653
   78MOL   H15320327   0.994   1.954   5.868  1.0322 -1.3996 -0.7326
   78MOL   H15420328   1.044   1.873   5.721  0.8348 -0.0607  1.0531
   78MOL   H15520329   0.911   1.813   5.820  0.6719 -2.2516 -1.5493
   78MOL   H15620330   0.674   2.066   5.689  1.2857  0.0942 -0.5216
   78MOL   H15720331   0.709   2.043   5.855 -0.7327  0.8294 -0.3348
   78MOL   C15820332   0.658   1.855   5.755  0.3542 -1.0839 -0.9086
   78MOL   C15920333   0.513   1.863   5.812  0.1917  0.3099  0.0334
   78MOL   C16020334   0.406   1.800   5.761  0.9892  0.3091  0.3025
   78MOL   C16120335   0.408   1.709   5.641  0.4581 -0.3406  0.3579
   78MOL   C16220336   0.270   1.824   5.820 -0.5786 -0.3196  0.0327
   78MOL   H16320337   0.704   1.783   5.823 -0.2016 -2.8427 -2.3570
   78MOL   H16420338   0.652   1.827   5.650 -2.7324 -0.9749 -0.8209
   78MOL   H16520339   0.503   1.933   5.893  0.7827  2.1760 -1.4563
   78MOL   H16620340   0.381   1.612   5.682  0.6949 -0.5056  0.1240
   78MOL   H16720341   0.501   1.714   5.585 -0.7582 -0.2133 -1.7116
   78MOL   H16820342   0.329   1.741   5.572  1.5850  0.4419 -0.5793
   78MOL   H16920343   0.243   1.720   5.841  1.0441 -0.9892 -1.0947
   78MOL   H17020344   0.201   1.861   5.744 -2.0427  0.9039  1.9087
   78MOL   C17120345   0.263   1.910   5.943  0.1013 -0.3452  0.5491
   78MOL   C17220346   0.120   1.925   5.985 -0.3461 -0.2085  0.5341
   78MOL   C17320347   0.049   1.854   6.076 -0.2918 -0.0661 -0.2487
   78MOL   C17420348   0.104   1.741   6.150  0.1549  0.3671  0.0113
   78MOL   C17520349   7.782   1.886   6.098 -0.5812  0.8591 -0.1581
   78MOL   H17620350   0.310   2.007   5.928  1.8638 -1.5807 -2.3644
   78MOL   H17720351   0.319   1.862   6.022  0.6550 -0.1583  0.2723
   78MOL   H17820352   0.061   1.990   5.922  2.0209  0.0832 -1.4415
   78MOL   H17920353   0.210   1.721   6.136 -0.0816 -0.6206 -0.3986
   78MOL   H18020354   0.045   1.656   6.116 -0.6734 -0.8162  4.1868
   78MOL   H18120355   0.077   1.757   6.254  2.3471  0.8869  0.5278
   78MOL   H18220356   7.738   1.787   6.087 -0.5248  0.6550  1.3672
   78MOL   H18320357   7.747   1.949   6.016 -1.6573 -1.1996 -1.3341
   78MOL   C18420358   7.732   1.946   6.230  0.4404 -0.9499  0.7760
   78MOL   C18520359   7.588   1.983   6.215 -0.6142 -0.3227  1.2535
   78MOL   C18620360   7.534   2.107   6.223  1.1221 -0.2743 -0.1784
   78MOL   C18720361   7.603   2.236   6.257 -0.3284  0.4752  0.8504
   78MOL   C18820362   7.383   2.119   6.184  0.2385  0.4507 -0.0939
   78MOL   H18920363   7.778   2.042   6.252  0.3574 -1.1043  1.6212
   78MOL   H19020364   7.740   1.884   6.319 -2.5057  0.3675  2.0279
   78MOL   H19120365   7.524   1.899   6.193 -0.1867 -0.0864 -0.9410
   78MOL   H19220366   7.597   2.303   6.171 -0.5980 -0.2091  0.3376
   78MOL   H19320367   7.706   2.234   6.291 -0.6852 -0.6614  1.9374
   78MOL   H19420368   7.549   2.276   6.343 -1.6780  0.8411 -0.1422
   78MOL   H19520369   7.342   2.145   6.281 -1.2118 -0.5371 -0.4348
   78MOL   H19620370   7.327   2.032   6.151  2.2500 -0.8509 -0.2015
   78MOL   C19720371   7.348   2.230   6.085 -0.9817  0.7857 -0.0822
   78MOL   C19820372   7.204   2.215   6.047  0.0774 -0.3952  0.4308
   78MOL   C19920373   7.156   2.197   5.920 -0.1414 -0.6423  0.3026
   78MOL   C20020374   7.242   2.201   5.796 -0.6087  0.4181  0.3526
   78MOL   C20120375   7.008   2.154   5.906  0.5403 -0.3338 -0.0245
   78MOL   H20220376   7.412   2.229   5.996 -0.0038 -2.0292  0.6023
   78MOL   H20320377   7.351   2.331   6.127  0.3901  2.5328 -4.0868
   78MOL   H20420378   7.141   2.214   6.134  0.8051  0.0269  0.9768
   78MOL   H20520379   7.172   2.229   5.717  0.7562 -1.0302 -1.3994
   78MOL   H20620380   7.272   2.097   5.785 -1.8862  0.1209 -0.4456
   78MOL   H20720381   7.319   2.276   5.813 -0.3037  0.8585 -2.6077
   78MOL   H20820382   6.957   2.235   5.854  0.3228  0.3644  1.2524
   78MOL   H20920383   6.966   2.152   6.006  0.5411 -0.5039 -0.0281
   78MOL   C21020384   6.991   2.025   5.815 -0.2869 -0.2583  0.2450
   78MOL   C21120385   6.862   1.955   5.830 -0.2024  0.0623 -1.1235
   78MOL   C21220386   6.818   1.858   5.741  0.3370 -0.2589 -0.0938
   78MOL   C21320387   6.902   1.822   5.616 -0.3019  0.3346 -0.0737
   78MOL   C21420388   6.677   1.801   5.751 -0.1364  0.0262 -0.5480
   78MOL   H21520389   7.065   1.955   5.854  1.0439  1.7485  1.3954
   78MOL   H21620390   7.023   2.047   5.713 -0.9679  1.1956  0.3366
   78MOL   H21720391   6.802   1.976   5.917 -1.1607 -1.9814 -1.2539
   78MOL   H21820392   6.877   1.719   5.591 -2.6754  0.1333  2.8020
   78MOL   H21920393   7.010   1.830   5.624 -0.0980 -0.5926 -1.7113
   78MOL   H22020394   6.865   1.876   5.529  1.8319 -1.2021 -1.9748
   78MOL   H22120395   6.643   1.822   5.853 -0.7882  1.5098 -1.0597
   78MOL   H22220396   6.677   1.692   5.749 -1.4428 -0.0546  1.8024
   78MOL   C22320397   6.582   1.865   5.645 -0.3030  0.3942 -0.0791
   78MOL   C22420398   6.445   1.809   5.674 -0.7245 -0.4645  0.0958
   78MOL   C22520399   6.384   1.707   5.607  0.1246  0.1141  0.4477
   78MOL   C22620400   6.428   1.658   5.472  0.3148  0.1824 -0.3765
   78MOL   C22720401   6.259   1.637   5.662 -0.6601  0.0001  0.5090
   78MOL   H22820402   6.620   1.849   5.544 -0.0481  0.2149  0.0453
   78MOL   H22920403   6.575   1.973   5.659  0.8346  0.7798 -2.2759
   78MOL   H23020404   6.410   1.834   5.773 -0.2298 -1.7382  0.6099
   78MOL   H23120405   6.535   1.671   5.453  0.6192 -0.7111  0.6316
   78MOL   H23220406   6.356   1.693   5.398 -2.1405 -2.1258  0.8376
   78MOL   H23320407   6.430   1.549   5.478 -0.8809  0.0220 -2.5908
   78MOL   H23420408   6.284   1.535   5.690 -2.2272 -0.0339  1.8743
   78MOL   H23520409   6.200   1.639   5.570  1.0876  3.8106 -0.6457
   78MOL   C23620410   6.176   1.711   5.777 -0.3834  0.2364  0.5385
   78MOL   C23720411   6.053   1.635   5.820  0.3798 -0.3322 -0.3488
   78MOL   C23820412   5.990   1.649   5.941 -0.1842  0.5298  0.4953
   78MOL   C23920413   6.031   1.752   6.046 -0.2442 -0.3531  0.2386
   78MOL   C24020414   5.878   1.553   5.984  0.6512 -0.5176  0.3789
   78MOL   H24120415   6.144   1.809   5.741 -0.9318 -0.3972 -0.7016
   78MOL   H24220416   6.248   1.726   5.858 -0.0026 -0.7406  0.3799
   78MOL   H24320417   6.017   1.554   5.758 -0.2290  1.0178 -1.8118
   78MOL   H24420418   5.945   1.800   6.094 -1.8391 -0.0207 -2.8794
   78MOL   H24520419   6.107   1.821   6.012 -3.4172  3.0489 -0.2921
   78MOL   H24620420   6.079   1.697   6.127  3.2013  0.7772 -0.9589
   78MOL   H24720421   5.876   1.530   6.091  1.4571 -1.6270  0.1597
   78MOL   H24820422   5.882   1.463   5.924 -0.1693 -0.3923  0.1209
   78MOL   C24920423   5.742   1.617   5.963 -0.0575 -0.5265 -0.2749
   78MOL   C25020424   5.627   1.541   6.030 -0.5439  0.3479  0.5417
   78MOL   C25120425   5.583   1.560   6.154 -0.0475 -0.4507 -0.5065
   78MOL   C25220426   5.657   1.654   6.243 -0.7726 -0.3326  0.1666
   78MOL   C25320427   5.461   1.491   6.213 -0.1211  0.8064  0.0681
   78MOL   H25420428   5.723   1.613   5.855  0.5595  2.3106 -0.5119
   78MOL   H25520429   5.745   1.725   5.973  1.1746 -0.7697  2.1653
   78MOL   H25620430   5.563   1.485   5.964 -2.2351 -0.6944  2.9989
   78MOL   H25720431   5.749   1.695   6.200 -0.7670 -0.5787 -0.0641
   78MOL   H25820432   5.686   1.599   6.332  1.3017 -0.3375 -0.4695
   78MOL   H25920433   5.603   1.738   6.285 -0.5657 -1.0197  1.8250
   78MOL   H26020434   5.374   1.543   6.173 -1.2644  0.0534  1.5742
   78MOL   H26120435   5.452   1.509   6.320  0.9561 -0.9331  0.4751
   78MOL   H26220436   5.460   1.383   6.204  0.2985  0.7719  0.3989
   79MOL     C120437   4.895   5.957   1.249 -0.7283 -0.1195  0.3877
   79MOL     C220438   4.934   5.870   1.364  0.0523 -0.4657 -0.0958
   79MOL     C320439   4.987   5.905   1.479  0.5006 -0.7577 -0.6348
   79MOL     C420440   5.019   6.046   1.524 -0.9550 -0.0609 -0.4600
   79MOL     C520441   5.000   5.799   1.591  0.0514 -0.7655 -0.1003
   79MOL     H620442   4.951   6.050   1.261 -0.6138 -0.2627  0.9622
   79MOL     H720443   4.916   5.906   1.154 -1.7490  0.5772 -0.2200
   79MOL     H820444   4.906   5.768   1.347  0.4048 -0.0722 -3.3402
   79MOL     H920445   5.067   6.063   1.621 -0.7999 -1.4382 -0.2780
   79MOL    H1020446   4.928   6.105   1.535 -1.8237 -1.2893 -0.9444
   79MOL    H1120447   5.088   6.091   1.453 -1.1500  0.8870 -0.0525
   79MOL    H1220448   5.083   5.830   1.654 -1.5306  0.7937  1.2786
   79MOL    H1320449   5.042   5.716   1.535  1.5172  0.6689 -1.1716
   79MOL    H1420450   4.790   5.985   1.249 -0.2986  1.6940 -1.6806
   79MOL    C1520451   4.861   5.770   1.665 -0.1913 -0.2812  0.0223
   79MOL    C1620452   4.872   5.713   1.800  0.5029  0.0565 -1.0334
   79MOL    C1720453   4.804   5.611   1.854 -0.7235 -0.3057 -0.2548
   79MOL    C1820454   4.693   5.536   1.788  0.7901 -0.2637  0.4935
   79MOL    C1920455   4.822   5.575   1.996  0.0718 -0.1826 -0.4005
   79MOL    H2020456   4.800   5.709   1.598 -0.8374 -0.5861  0.8836
   79MOL    H2120457   4.819   5.870   1.674  1.5843  0.7139 -2.1323
   79MOL    H2220458   4.951   5.761   1.857  0.3814  0.0439 -0.8550
   79MOL    H2320459   4.641   5.599   1.715 -1.9785  1.3555  3.7004
   79MOL    H2420460   4.624   5.491   1.860 -0.7133 -1.9484 -1.9475
   79MOL    H2520461   4.742   5.459   1.729  1.4234 -0.2290  0.9641
   79MOL    H2620462   4.914   5.608   2.044 -0.1308  1.3770 -1.0453
   79MOL    H2720463   4.823   5.466   2.001  2.7115 -0.1385  0.8021
   79MOL    C2820464   4.705   5.632   2.083 -0.0135  0.1053 -0.2282
   79MOL    C2920465   4.708   5.785   2.083  0.1806 -0.3961  0.0592
   79MOL    C3020466   4.732   5.870   2.186 -0.1365 -0.1907  0.0338
   79MOL    C3120467   4.791   5.824   2.317 -0.1226 -0.5597 -0.2129
   79MOL    C3220468   4.702   6.022   2.165 -0.3812 -0.1061 -0.3195
   79MOL    H3320469   4.713   5.604   2.188  2.7148  0.4388 -0.2891
   79MOL    H3420470   4.609   5.594   2.049 -0.0926  0.0294  0.0752
   79MOL    H3520471   4.684   5.821   1.985 -0.8773 -1.0401  0.0786
   79MOL    H3620472   4.874   5.881   2.358  0.7879 -0.6680 -1.8627
   79MOL    H3720473   4.855   5.737   2.307  3.6142  1.8868  1.1934
   79MOL    H3820474   4.714   5.807   2.392 -0.0844 -0.6044 -0.1843
   79MOL    H3920475   4.634   6.067   2.237  0.0837  1.8505 -1.0610
   79MOL    H4020476   4.652   6.032   2.069 -0.0544 -0.9063 -0.5833
   79MOL    C4120477   4.817   6.110   2.147  0.0415  0.0773  0.1536
   79MOL    C4220478   4.782   6.252   2.094  0.3094  0.2825  0.1193
   79MOL    C4320479   4.803   6.291   1.964  0.5675 -0.2825 -0.6426
   79MOL    C4420480   4.871   6.207   1.854  0.1395 -0.2926  0.1364
   79MOL    C4520481   4.757   6.426   1.916 -0.6117 -0.4296  0.2637
   79MOL    H4620482   4.887   6.059   2.080  0.8959  0.0629  1.0442
   79MOL    H4720483   4.862   6.121   2.245  0.8858 -0.1471 -0.2047
   79MOL    H4820484   4.724   6.311   2.164 -0.8575  0.4218 -0.9355
   79MOL    H4920485   4.831   6.229   1.755 -0.8707  1.8308  0.9916
   79MOL    H5020486   4.859   6.100   1.871  1.4116 -0.4877 -0.1216
   79MOL    H5120487   4.976   6.232   1.843  0.3395 -0.8598  0.7186
   79MOL    H5220488   4.694   6.474   1.991  1.0440 -0.2211  1.5612
   79MOL    H5320489   4.691   6.411   1.831  2.1531 -0.2383 -2.0110
   79MOL    C5420490   4.875   6.513   1.876  0.8073  0.0855 -0.2709
   79MOL    C5520491   4.841   6.634   1.788 -0.1687 -0.1780  0.8171
   79MOL    C5620492   4.849   6.642   1.655  0.4604  0.3502  0.0037
   79MOL    C5720493   4.891   6.527   1.559  0.7346  0.0843 -0.2583
   79MOL    C5820494   4.799   6.774   1.588 -0.2934  0.1080  0.7459
   79MOL    H5920495   4.952   6.458   1.822  0.1137  2.5554 -3.9916
   79MOL    H6020496   4.925   6.555   1.964 -0.5249  0.1316  0.4690
   79MOL    H6120497   4.798   6.717   1.843  0.9579  0.6717  0.4256
   79MOL    H6220498   4.916   6.437   1.614 -2.2560 -2.0277 -2.1925
   79MOL    H6320499   4.985   6.557   1.512  0.4309  0.5559 -0.5703
   79MOL    H6420500   4.823   6.515   1.475  0.6297  0.0027 -0.1627
   79MOL    H6520501   4.776   6.847   1.665 -0.5533 -0.0572  0.8242
   79MOL    H6620502   4.705   6.755   1.537 -0.3166  1.3432  0.3207
   79MOL    C6720503   4.906   6.836   1.497  0.6338 -0.0531  0.0905
   79MOL    C6820504   4.880   6.983   1.496  0.7379  0.3051  0.2818
   79MOL    C6920505   4.921   7.064   1.398  0.2321 -0.1962  0.3306
   79MOL    C7020506   5.006   7.017   1.279 -0.3328  0.0697  0.6397
   79MOL    C7120507   4.888   7.215   1.396  0.2702 -0.0736 -0.1145
   79MOL    H7220508   4.904   6.790   1.398  0.9458 -2.4375  1.1652
   79MOL    H7320509   5.004   6.826   1.543 -0.0586  0.9768  1.8537
   79MOL    H7420510   4.824   7.025   1.578 -0.6828 -0.6778 -0.1708
   79MOL    H7520511   5.107   7.057   1.295  0.1189 -0.0057 -1.9077
   79MOL    H7620512   4.972   7.050   1.181  2.1193 -0.8131 -0.5629
   79MOL    H7720513   5.021   6.909   1.270  2.3078  0.4728 -0.3230
   79MOL    H7820514   4.974   7.272   1.362 -1.8129  0.9005 -3.9302
   79MOL    H7920515   4.864   7.236   1.500 -1.0416  0.1368 -0.4523
   79MOL    C8020516   4.773   7.261   1.307 -0.9468  0.4046 -0.1462
   79MOL    C8120517   4.767   7.412   1.293 -0.5042  0.8601 -0.0896
   79MOL    C8220518   4.817   7.486   1.197 -0.1626  0.0772 -0.7676
   79MOL    C8320519   4.885   7.430   1.076  0.5317  0.1239  0.1512
   79MOL    C8420520   4.811   7.639   1.190  0.1290  0.3484 -0.3932
   79MOL    H8520521   4.681   7.224   1.352  0.4129 -0.8911  1.6738
   79MOL    H8620522   4.777   7.204   1.214  1.0560 -2.2151  1.4584
   79MOL    H8720523   4.716   7.468   1.371  0.4694  0.4520  0.8432
   79MOL    H8820524   4.839   7.462   0.982  1.6045  0.0060 -0.4139
   79MOL    H8920525   4.882   7.321   1.078  0.5520  0.0666 -1.6104
   79MOL    H9020526   4.989   7.462   1.065 -0.0498  1.4571 -1.9727
   79MOL    H9120527   4.863   7.671   1.100 -1.0734 -0.0655 -1.2407
   79MOL    H9220528   4.861   7.690   1.273 -1.0652  0.6889  0.1246
   79MOL    C9320529   4.660   7.681   1.199 -0.1306 -0.0141 -0.2156
   79MOL    C9420530   4.582   7.651   1.069  0.2494  0.1945  0.0548
   79MOL    C9520531   4.465   7.583   1.061  0.1441 -0.2178 -0.3856
   79MOL    C9620532   4.374   7.545   1.183 -0.6774  0.2507  0.4472
   79MOL    C9720533   4.405   7.548   0.922  0.6889  0.7363 -1.0119
   79MOL    H9820534   4.659   7.789   1.215 -0.2900  0.3625 -2.5133
   79MOL    H9920535   4.604   7.637   1.281 -0.1728  1.8776  0.7922
   79MOL   H10020536   4.638   7.678   0.981  1.5832  1.9869  1.4202
   79MOL   H10120537   4.280   7.592   1.156 -0.8670 -0.5749 -0.3730
   79MOL   H10220538   4.395   7.584   1.282 -1.2510 -0.1965  0.7513
   79MOL   H10320539   4.366   7.436   1.190 -0.1974  0.1839  0.0330
   79MOL   H10420540   4.468   7.588   0.842  1.6787  1.3459  0.0607
   79MOL   H10520541   4.308   7.597   0.918 -0.2490 -0.9305  0.5358
   79MOL   C10620542   4.399   7.393   0.899  0.2079 -0.1619  0.0737
   79MOL   C10720543   4.529   7.320   0.915 -0.5348  0.4327 -0.3799
   79MOL   C10820544   4.587   7.231   0.827  0.3541  0.6277 -0.8469
   79MOL   C10920545   4.523   7.194   0.685  0.2198  0.2014  0.3265
   79MOL   C11020546   4.708   7.142   0.867  0.1188  0.9058  0.2509
   79MOL   H11120547   4.347   7.361   0.809  0.4405  0.6980 -0.3716
   79MOL   H11220548   4.338   7.351   0.978 -1.1897  0.1792 -0.7942
   79MOL   H11320549   4.578   7.335   1.011  2.0504 -0.8985 -1.4204
   79MOL   H11420550   4.454   7.274   0.657 -2.3838 -1.4651  1.7795
   79MOL   H11520551   4.475   7.097   0.694  1.4979 -0.5860 -1.2173
   79MOL   H11620552   4.606   7.185   0.615 -0.7583 -4.6550 -0.3518
   79MOL   H11720553   4.744   7.187   0.960  0.7147 -1.3183  1.1446
   79MOL   H11820554   4.791   7.163   0.799  0.5666 -0.1227  0.4694
   79MOL   C11920555   4.675   6.996   0.889  0.3355  0.5872 -0.4468
   79MOL   C12020556   4.796   6.918   0.902 -0.5335 -0.2478  0.1866
   79MOL   C12120557   4.819   6.826   0.998 -0.3359 -0.7467 -0.2202
   79MOL   C12220558   4.721   6.784   1.101  0.1835 -0.6103 -0.0489
   79MOL   C12320559   4.952   6.757   1.009  0.0257  0.5221 -0.2208
   79MOL   H12420560   4.613   6.952   0.811  0.0006  1.4031 -0.6420
   79MOL   H12520561   4.604   6.994   0.971  1.6883 -0.5429  0.7206
   79MOL   H12620562   4.874   6.940   0.830 -0.7022 -0.2107  0.0159
   79MOL   H12720563   4.704   6.677   1.102  0.5472 -0.6681  0.2131
   79MOL   H12820564   4.627   6.833   1.077  0.3344  0.5962  1.7230
   79MOL   H12920565   4.742   6.818   1.202 -1.3967  0.8624 -0.1898
   79MOL   H13020566   4.982   6.736   1.112  1.5648  1.0740 -0.5419
   79MOL   H13120567   5.025   6.833   0.983  1.4377 -0.4488  0.8597
   79MOL   C13220568   4.974   6.626   0.933 -0.1472 -0.5604 -0.3692
   79MOL   C13320569   5.111   6.563   0.947  0.6464  0.6049  0.5391
   79MOL   C13420570   5.147   6.450   1.008 -0.1006 -0.9288  0.4233
   79MOL   C13520571   5.054   6.342   1.062  0.3340 -0.5984  0.7472
   79MOL   C13620572   5.302   6.414   1.002  0.0088 -0.2002  0.8491
   79MOL   H13720573   4.959   6.647   0.827  1.4492  0.1022 -0.4675
   79MOL   H13820574   4.888   6.560   0.950  0.7075 -1.8123 -0.8393
   79MOL   H13920575   5.185   6.631   0.905 -1.6208  3.3062  0.7518
   79MOL   H14020576   4.956   6.389   1.070  1.4315  1.9839 -0.3765
   79MOL   H14120577   5.087   6.296   1.155  1.9177 -2.1095 -0.5119
   79MOL   H14220578   5.046   6.260   0.991 -3.1302 -0.8998  1.3797
   79MOL   H14320579   5.342   6.448   0.906 -4.2425  1.9140 -0.2997
   79MOL   H14420580   5.307   6.305   0.999 -0.1560 -0.2621  2.3108
   79MOL   C14520581   5.369   6.467   1.132 -0.9284 -0.1565 -0.0646
   79MOL   C14620582   5.389   6.617   1.129  0.4410 -0.4322  0.1947
   79MOL   C14720583   5.325   6.706   1.207 -0.3942  0.1859  0.1255
   79MOL   C14820584   5.214   6.657   1.301 -0.1637  0.2225  0.2635
   79MOL   C14920585   5.357   6.856   1.196  1.1648 -0.5085 -0.1392
   79MOL   H15020586   5.466   6.418   1.145 -1.6649 -1.4430  0.6659
   79MOL   H15120587   5.296   6.439   1.208 -2.0916 -1.4017 -1.5878
   79MOL   H15220588   5.450   6.652   1.048 -1.0797  1.5972 -0.1242
   79MOL   H15320589   5.140   6.737   1.309 -0.4983 -0.2928  2.7380
   79MOL   H15420590   5.248   6.635   1.402  3.3700 -1.0897 -1.1559
   79MOL   H15520591   5.142   6.582   1.268 -2.2360  0.9382  2.8959
   79MOL   H15620592   5.264   6.903   1.165 -0.3031 -2.7640  0.7153
   79MOL   H15720593   5.430   6.881   1.119  0.1765  2.3443 -0.2032
   79MOL   C15820594   5.400   6.921   1.339 -0.1450 -0.1560 -0.2608
   79MOL   C15920595   5.424   7.074   1.320 -0.2367  0.0369 -0.1533
   79MOL   C16020596   5.402   7.171   1.415  0.2600  0.2755  0.1271
   79MOL   C16120597   5.334   7.150   1.547 -0.0800  1.2041 -0.0693
   79MOL   C16220598   5.424   7.320   1.378 -0.3946  0.0896 -0.5592
   79MOL   H16320599   5.493   6.884   1.381  1.1764  1.1663 -1.9540
   79MOL   H16420600   5.334   6.904   1.424  0.1427 -0.3838 -0.0869
   79MOL   H16520601   5.456   7.096   1.219  2.7473  0.6442  0.8766
   79MOL   H16620602   5.398   7.089   1.611 -1.1237  0.9741  0.7839
   79MOL   H16720603   5.238   7.100   1.531 -0.2238  2.1691 -2.3963
   79MOL   H16820604   5.305   7.238   1.605 -2.0489  0.4334  0.1779
   79MOL   H16920605   5.334   7.371   1.410 -1.0083  0.2050 -2.4172
   79MOL   H17020606   5.430   7.332   1.270 -3.3121 -0.4446 -0.8278
   79MOL   C17120607   5.545   7.372   1.450 -0.4563 -0.4264 -0.2156
   79MOL   C17220608   5.572   7.513   1.403 -0.1859 -0.8662  0.1592
   79MOL   C17320609   5.595   7.618   1.488  0.1441 -0.0467  0.6668
   79MOL   C17420610   5.620   7.604   1.632  0.2084 -0.3212  0.4578
   79MOL   C17520611   5.599   7.754   1.431  0.2938 -0.1744  0.0522
   79MOL   H17620612   5.632   7.311   1.423 -0.7478 -1.9639  2.1680
   79MOL   H17720613   5.530   7.370   1.557 -1.4315 -0.4577 -0.3521
   79MOL   H17820614   5.557   7.539   1.300 -0.6489  0.7775  0.6300
   79MOL   H17920615   5.522   7.622   1.676 -0.5475 -0.0084 -1.3548
   79MOL   H18020616   5.692   7.677   1.668 -1.0943  1.1992  0.0262
   79MOL   H18120617   5.668   7.513   1.669  0.1972  0.2617  1.9349
   79MOL   H18220618   5.528   7.811   1.491 -2.1064 -0.9649 -1.9201
   79MOL   H18320619   5.556   7.751   1.330  0.8565  1.5926 -0.2682
   79MOL   C18420620   5.739   7.821   1.419 -0.4827 -0.3703 -0.1749
   79MOL   C18520621   5.737   0.073   1.361 -1.0325 -0.2210 -0.0863
   79MOL   C18620622   5.779   0.112   1.236 -0.3306 -0.7612 -0.2433
   79MOL   C18720623   5.840   0.022   1.123  0.0500  0.1306 -0.5381
   79MOL   C18820624   5.767   0.264   1.197  0.4348  0.3127 -0.0557
   79MOL   H18920625   5.796   7.752   1.358 -1.3427 -1.3086  0.0731
   79MOL   H19020626   5.775   7.821   1.522 -0.7521  2.1967 -0.0385
   79MOL   H19120627   5.699   0.140   1.437  0.2782 -0.5721  0.9070
   79MOL   H19220628   5.934   0.070   1.095  3.1210 -3.5275  2.8147
   79MOL   H19320629   5.780   0.007   1.033  0.8086 -0.1364 -1.0055
   79MOL   H19420630   5.869   7.806   1.160  0.1166 -0.3819 -1.9429
   79MOL   H19520631   5.736   0.323   1.284 -1.7070 -2.2532  1.0187
   79MOL   H19620632   5.683   0.268   1.127  1.4633  0.9853 -1.2627
   79MOL   C19720633   5.895   0.326   1.137  0.3213  0.5777 -0.0052
   79MOL   C19820634   5.877   0.483   1.135  0.5166 -0.5530  0.4996
   79MOL   C19920635   5.926   0.569   1.228 -0.3322 -0.9745  0.7012
   79MOL   C20020636   6.012   0.539   1.343  0.1247 -0.4068  1.0046
   79MOL   C20120637   5.892   0.717   1.212  0.1155  0.4953 -0.2435
   79MOL   H20220638   5.912   0.303   1.032  2.5901  0.4047  0.3588
   79MOL   H20320639   5.984   0.294   1.192  0.0534 -0.2450 -0.0549
   79MOL   H20420640   5.814   0.524   1.057 -1.0443 -0.2447  1.9006
   79MOL   H20520641   6.075   0.624   1.371  0.1099 -0.5773  1.5540
   79MOL   H20620642   6.080   0.461   1.310 -0.8356 -0.8129 -0.0361
   79MOL   H20720643   5.951   0.507   1.427 -1.6909 -2.4449 -1.0489
   79MOL   H20820644   5.843   0.737   1.116 -0.2761 -0.7822 -0.3164
   79MOL   H20920645   5.973   0.788   1.229  1.8353 -1.8849  1.8382
   79MOL   C21020646   5.787   0.762   1.324  0.1802  0.3484 -0.2911
   79MOL   C21120647   5.646   0.716   1.298 -0.2979 -0.1895  0.4054
   79MOL   C21220648   5.573   0.626   1.373 -0.0451  0.0196  0.7442
   79MOL   C21320649   5.625   0.547   1.490  0.6385 -0.1095  0.1718
   79MOL   C21420650   5.429   0.582   1.327  0.6266 -0.5206 -0.7464
   79MOL   H21520651   5.775   0.871   1.324  1.4382  0.4907  0.6581
   79MOL   H21620652   5.832   0.735   1.419  0.4927 -2.2657 -1.1600
   79MOL   H21720653   5.612   0.764   1.208  1.6495 -0.0604 -0.2923
   79MOL   H21820654   5.544   0.491   1.535  2.6176 -0.1736  3.8820
   79MOL   H21920655   5.667   0.610   1.569  0.3686 -1.4782  1.4250
   79MOL   H22020656   5.706   0.484   1.452  0.9966  0.5387 -0.1592
   79MOL   H22120657   5.389   0.656   1.258 -0.6274 -1.3617 -0.9329
   79MOL   H22220658   5.367   0.587   1.416  1.6081  3.0302 -0.1917
   79MOL   C22320659   5.423   0.446   1.254  0.6486 -0.1208 -0.5036
   79MOL   C22420660   5.282   0.386   1.237  0.7679  0.5387 -0.0065
   79MOL   C22520661   5.214   0.316   1.334 -1.1011  0.4850  0.3825
   79MOL   C22620662   5.275   0.288   1.477 -0.0529 -0.2584  0.2553
   79MOL   C22720663   5.078   0.249   1.309 -0.5663 -0.1178  0.0672
   79MOL   H22820664   5.495   0.371   1.286  0.5308 -1.5536 -3.4450
   79MOL   H22920665   5.454   0.470   1.152 -1.2003  0.2132 -1.0204
   79MOL   H23020666   5.239   0.403   1.139 -0.3044  0.4541  0.4436
   79MOL   H23120667   5.227   0.352   1.550  0.1721  2.1008 -1.5902
   79MOL   H23220668   5.383   0.299   1.479 -0.0604  0.2628 -1.2519
   79MOL   H23320669   5.248   0.185   1.498 -2.2132 -0.0354 -1.2170
   79MOL   H23420670   5.018   0.283   1.394 -2.0516 -1.4441 -0.4133
   79MOL   H23520671   5.087   0.141   1.311  0.1078 -0.0681 -0.4403
   79MOL   C23620672   5.018   0.294   1.170 -0.5115  0.0166 -0.1499
   79MOL   C23720673   5.039   0.197   1.055  0.0709  0.0279 -0.8012
   79MOL   C23820674   5.047   0.228   0.925  0.1343  0.0783 -0.4857
   79MOL   C23920675   5.064   0.369   0.885 -0.5156  0.3554  0.3513
   79MOL   C24020676   5.035   0.113   0.818  0.4612  0.0617 -1.1069
   79MOL   H24120677   5.032   0.397   1.137  0.2392  0.2851  0.9563
   79MOL   H24220678   4.911   0.289   1.186 -0.5097  1.0746  0.2296
   79MOL   H24320679   5.032   0.094   1.084 -1.4468  0.6094  0.9451
   79MOL   H24420680   4.973   0.427   0.901 -1.5350 -0.8382 -0.9899
   79MOL   H24520681   5.100   0.391   0.784  0.7119 -0.4312  0.6002
   79MOL   H24620682   5.150   0.395   0.947 -0.4158  0.3287  0.2231
   79MOL   H24720683   4.946   0.132   0.759 -2.0548 -1.8367  1.9153
   79MOL   H24820684   5.032   0.017   0.871 -0.3132  0.7630  0.1302
   79MOL   C24920685   5.155   0.116   0.725  0.5492 -0.1295  0.0318
   79MOL   C25020686   5.133   0.027   0.609  0.8650  0.1755 -0.8731
   79MOL   C25120687   5.203   7.803   0.570 -0.4086  0.4149 -0.3023
   79MOL   C25220688   5.318   7.743   0.642 -0.0058  0.6589  0.5932
   79MOL   C25320689   5.154   7.716   0.450  1.1192 -0.2609  0.1691
   79MOL   H25420690   5.249   0.084   0.769  0.3324  0.5113  0.9755
   79MOL   H25520691   5.168   0.215   0.683 -1.6849  0.1075 -0.1788
   79MOL   H25620692   5.049   0.049   0.545 -0.8665 -3.8479 -0.1307
   79MOL   H25720693   5.305   7.642   0.681 -0.5100 -0.2334 -1.7988
   79MOL   H25820694   5.358   7.798   0.727 -0.2257  0.7140  0.6607
   79MOL   H25920695   5.399   7.749   0.570  0.6880  2.7050  1.5122
   79MOL   H26020696   5.179   7.767   0.357  0.0386  1.0305  0.5872
   79MOL   H26120697   5.047   7.699   0.464  0.6591  1.6882 -0.8921
   79MOL   H26220698   5.195   7.615   0.440  1.2555 -0.1962  0.0630
   80MOL     C120699   5.935   0.933   2.836 -0.6274 -0.3315  0.3377
   80MOL     C220700   6.077   0.984   2.853 -0.3178  0.1990 -0.1352
   80MOL     C320701   6.191   0.948   2.795 -0.1447 -0.3397 -0.6126
   80MOL     C420702   6.210   0.830   2.699 -1.1330 -0.1229 -0.2026
   80MOL     C520703   6.321   1.025   2.824 -0.1234 -0.6158  0.1674
   80MOL     H620704   5.928   0.870   2.748  1.0357  0.0150 -0.0505
   80MOL     H720705   5.897   0.872   2.919  0.8229 -1.5833  0.1108
   80MOL     H820706   6.087   1.062   2.927  1.8511  1.3489 -1.6141
   80MOL     H920707   6.289   0.764   2.735 -0.4894  0.6027 -0.2683
   80MOL    H1020708   6.241   0.862   2.599  2.9133 -1.0170  0.6705
   80MOL    H1120709   6.117   0.773   2.693  0.1149 -2.3865  0.9767
   80MOL    H1220710   6.399   0.953   2.847 -0.7589 -1.4183 -0.1469
   80MOL    H1320711   6.305   1.086   2.913  1.9379  1.5472 -0.8747
   80MOL    H1420712   5.859   1.011   2.828  1.1362  1.3443 -0.2865
   80MOL    C1520713   6.348   1.125   2.713 -0.7157 -0.3608 -0.0262
   80MOL    C1620714   6.457   1.233   2.746  0.3701 -0.2806 -1.0531
   80MOL    C1720715   6.482   1.334   2.663  0.4403 -0.3243  0.1375
   80MOL    C1820716   6.413   1.355   2.532  0.1823  0.5742 -0.8604
   80MOL    C1920717   6.582   1.436   2.696  0.4225 -0.5370  0.1240
   80MOL    H2020718   6.253   1.156   2.670 -1.4883 -1.8152  0.5859
   80MOL    H2120719   6.398   1.074   2.630  0.4787 -1.6359  1.4668
   80MOL    H2220720   6.520   1.221   2.834 -0.4619  1.8344 -0.1497
   80MOL    H2320721   6.315   1.307   2.534  1.0288 -1.1809 -1.3938
   80MOL    H2420722   6.474   1.312   2.453  1.3030 -0.3011  0.4784
   80MOL    H2520723   6.398   1.461   2.511  0.9408  1.0201  0.8005
   80MOL    H2620724   6.635   1.400   2.785  2.6117 -3.1621 -2.1534
   80MOL    H2720725   6.527   1.529   2.712  0.0958 -0.9216  1.3025
   80MOL    C2820726   6.689   1.454   2.585  0.3734  0.0130  0.3722
   80MOL    C2920727   6.780   1.331   2.556 -0.2917 -1.2391 -0.6197
   80MOL    C3020728   6.909   1.315   2.598  0.3430 -0.1849  0.0732
   80MOL    C3120729   6.997   1.405   2.695  0.0958  0.2750  0.3996
   80MOL    C3220730   6.996   1.212   2.524 -0.1839  0.3068 -0.2941
   80MOL    H3320731   6.754   1.539   2.607  0.7411 -1.1203  4.0509
   80MOL    H3420732   6.639   1.483   2.493 -1.7801  2.2522  2.1969
   80MOL    H3520733   6.740   1.271   2.475 -1.4628 -1.6528  0.2479
   80MOL    H3620734   7.057   1.353   2.770  1.3041 -0.6524 -1.1968
   80MOL    H3720735   6.929   1.475   2.744 -1.4579 -0.4956 -0.5975
   80MOL    H3820736   7.065   1.467   2.638  0.7713  2.7616  3.7705
   80MOL    H3920737   7.019   1.127   2.588 -0.1831  0.6469  0.1602
   80MOL    H4020738   7.095   1.254   2.505 -0.4467 -0.5768 -3.9042
   80MOL    C4120739   6.949   1.173   2.384 -0.8927 -0.3353 -0.2095
   80MOL    C4220740   6.935   1.295   2.292  1.0467  0.0079 -0.2414
   80MOL    C4320741   6.840   1.310   2.194 -0.5759 -0.1157 -0.2014
   80MOL    C4420742   6.723   1.216   2.158 -0.2911  0.2615  0.1829
   80MOL    C4520743   6.829   1.443   2.116 -0.0801  0.1744 -0.6024
   80MOL    H4620744   6.861   1.108   2.389 -1.0150 -0.0803  1.1562
   80MOL    H4720745   7.032   1.116   2.341 -0.4893  0.2702 -0.2441
   80MOL    H4820746   7.006   1.374   2.311  0.0669  0.6298  0.8649
   80MOL    H4920747   6.626   1.264   2.166 -1.1045 -1.4128  0.6401
   80MOL    H5020748   6.716   1.120   2.209 -0.1339  0.5500  0.7521
   80MOL    H5120749   6.732   1.196   2.051  2.3834 -1.1054  0.6217
   80MOL    H5220750   6.854   1.425   2.012  3.6537 -2.5812  0.6312
   80MOL    H5320751   6.914   1.502   2.151 -0.1306 -2.1938  3.8631
   80MOL    C5420752   6.699   1.526   2.140 -0.5705 -0.3659  0.5979
   80MOL    C5520753   6.693   1.661   2.090  0.2966  0.4474 -0.0612
   80MOL    C5620754   6.682   1.769   2.171  0.0345 -0.0142  0.0877
   80MOL    C5720755   6.711   1.762   2.321 -0.4410  0.6363 -0.4479
   80MOL    C5820756   6.669   1.912   2.111 -0.2978  0.0469  0.4791
   80MOL    H5920757   6.688   1.524   2.248 -2.3378 -0.1365  0.4262
   80MOL    H6020758   6.608   1.478   2.106  0.7406 -1.0959 -2.0414
   80MOL    H6120759   6.681   1.674   1.984 -0.0309 -1.2547 -0.2414
   80MOL    H6220760   6.814   1.757   2.358  0.5013 -0.6048 -3.0916
   80MOL    H6320761   6.655   1.689   2.378 -2.2860  4.6001  3.0336
   80MOL    H6420762   6.672   1.855   2.360  2.1462  1.7440 -0.3669
   80MOL    H6520763   6.585   1.969   2.151  1.2473  1.5987  1.6006
   80MOL    H6620764   6.650   1.908   2.004 -0.8964 -3.4037  0.6630
   80MOL    C6720765   6.792   1.995   2.141  0.4995  1.0069  0.4262
   80MOL    C6820766   6.782   2.140   2.106 -0.3647  0.2493 -0.6351
   80MOL    C6920767   6.812   2.204   1.992  0.3999 -0.6668  0.0054
   80MOL    C7020768   6.874   2.133   1.870  0.2576  0.7970 -0.6918
   80MOL    C7120769   6.802   2.362   1.985  0.3591 -0.0129 -0.4574
   80MOL    H7220770   6.879   1.948   2.095  0.3867  0.8615  0.3608
   80MOL    H7320771   6.809   1.997   2.249 -1.0849  0.4882  0.7051
   80MOL    H7420772   6.760   2.203   2.191  0.5250 -1.6283  1.0292
   80MOL    H7520773   6.802   2.125   1.788  0.7327 -0.7680 -0.9704
   80MOL    H7620774   6.896   2.031   1.903 -1.8078  0.3694 -0.5491
   80MOL    H7720775   6.969   2.171   1.831  1.0948 -1.3856 -0.8738
   80MOL    H7820776   6.756   2.381   1.888  1.0557  1.2006 -0.5682
   80MOL    H7920777   6.904   2.400   1.972 -0.4758  1.9515 -1.3864
   80MOL    C8020778   6.741   2.446   2.104 -0.1891  0.1902  0.5142
   80MOL    C8120779   6.797   2.589   2.096 -0.4285  0.2411 -0.2037
   80MOL    C8220780   6.800   2.681   2.195 -0.2948  0.5146  1.1909
   80MOL    C8320781   6.747   2.650   2.335  0.6093  0.7412  0.4518
   80MOL    C8420782   6.848   2.832   2.171  0.5783 -0.0173 -0.0801
   80MOL    H8520783   6.773   2.407   2.201 -0.0025 -0.5078  0.1781
   80MOL    H8620784   6.632   2.454   2.109 -0.4190 -2.3277  0.5531
   80MOL    H8720785   6.834   2.616   1.998 -1.2375 -3.4464 -1.5980
   80MOL    H8820786   6.755   2.545   2.364  0.3180  0.7831  0.6900
   80MOL    H8920787   6.650   2.698   2.349  0.5539  0.8584 -0.3478
   80MOL    H9020788   6.817   2.708   2.396  1.8220  0.7530 -0.9385
   80MOL    H9120789   6.790   2.905   2.227 -0.4258 -1.0794  0.3028
   80MOL    H9220790   6.854   2.852   2.064 -1.3841  1.2115  0.0282
   80MOL    C9320791   6.991   2.845   2.215 -0.1295 -0.1189  0.2816
   80MOL    C9420792   7.033   2.990   2.204 -0.0373 -0.4681  0.6198
   80MOL    C9520793   7.063   3.073   2.303  0.0190 -0.3384 -0.3849
   80MOL    C9620794   7.048   3.051   2.448 -0.3698 -0.0032 -0.1847
   80MOL    C9720795   7.088   3.221   2.277 -0.0062 -0.5498  0.2303
   80MOL    H9820796   7.061   2.786   2.155  1.7410 -0.0501  2.3327
   80MOL    H9920797   7.013   2.807   2.315 -0.2734 -1.1562 -0.0701
   80MOL   H10020798   7.052   3.034   2.107 -1.9036  0.0955  0.5021
   80MOL   H10120799   7.151   3.031   2.479 -0.2875  1.3471  0.4401
   80MOL   H10220800   6.982   2.966   2.466 -1.4753  0.3011 -2.5156
   80MOL   H10320801   7.009   3.140   2.496 -0.4688 -0.4475  0.5674
   80MOL   H10420802   7.186   3.240   2.320 -0.0558  0.3579 -0.0366
   80MOL   H10520803   7.024   3.286   2.336  1.6821  2.0321 -0.6836
   80MOL   C10620804   7.080   3.279   2.137  0.3281  0.4415 -0.5881
   80MOL   C10720805   7.106   3.425   2.140 -0.2650 -0.3856  0.0351
   80MOL   C10820806   7.037   3.526   2.079  1.0376 -0.2766 -0.4465
   80MOL   C10920807   6.906   3.512   2.001  0.6940 -0.0383  0.1654
   80MOL   C11020808   7.063   3.668   2.114 -1.0939 -0.6355 -0.3207
   80MOL   H11120809   6.990   3.258   2.079 -0.2140  0.3032  0.3052
   80MOL   H11220810   7.159   3.238   2.074  1.4908  1.2257  0.3503
   80MOL   H11320811   7.186   3.455   2.206 -1.4299  1.2470  0.7409
   80MOL   H11420812   6.820   3.556   2.053  0.0064 -0.1656 -0.8529
   80MOL   H11520813   6.869   3.416   1.964 -0.1836  0.1161  0.6129
   80MOL   H11620814   6.909   3.582   1.917  0.8346  2.2785  2.0427
   80MOL   H11720815   6.978   3.707   2.170  0.8158 -1.1743  3.0856
   80MOL   H11820816   7.076   3.728   2.024  2.5273  1.6381  1.6169
   80MOL   C11920817   7.202   3.696   2.187 -0.0669 -0.1627 -0.2333
   80MOL   C12020818   7.180   3.676   2.340  0.3762  0.0473  0.7242
   80MOL   C12120819   7.248   3.599   2.431 -0.5084 -0.3223 -0.3320
   80MOL   C12220820   7.364   3.512   2.386  0.7386  0.3455 -0.1615
   80MOL   C12320821   7.213   3.588   2.585 -0.0664  0.1610  0.1367
   80MOL   H12420822   7.233   3.800   2.184  1.4172 -0.5378  1.1605
   80MOL   H12520823   7.290   3.647   2.147  0.8488 -0.8393  2.5198
   80MOL   H12620824   7.098   3.735   2.377 -0.6050 -0.1543 -1.0474
   80MOL   H12720825   7.335   3.407   2.386  2.4477 -0.1453  0.6943
   80MOL   H12820826   7.451   3.521   2.452 -0.3205 -0.6735  1.4257
   80MOL   H12920827   7.406   3.536   2.289 -2.7805  0.5625 -1.7073
   80MOL   H13020828   7.135   3.656   2.617 -0.6205 -0.0527 -0.7456
   80MOL   H13120829   7.307   3.620   2.630 -0.4609  0.8453  0.4803
   80MOL   C13220830   7.181   3.444   2.624  0.2073  0.0561  0.3041
   80MOL   C13320831   7.200   3.432   2.776 -0.1314  0.2969 -0.0597
   80MOL   C13420832   7.102   3.410   2.864  0.8759  0.0657  0.1942
   80MOL   C13520833   6.955   3.391   2.833 -0.0996 -0.0547 -0.0126
   80MOL   C13620834   7.125   3.379   3.015 -0.2076 -0.3512  0.5901
   80MOL   H13720835   7.235   3.363   2.576 -0.9504  0.7558 -2.2907
   80MOL   H13820836   7.081   3.418   2.590 -0.4329 -0.2843  2.3559
   80MOL   H13920837   7.302   3.427   2.811  0.5721 -0.8172 -2.2203
   80MOL   H14020838   6.907   3.471   2.777  1.7120  1.9223  1.1569
   80MOL   H14120839   6.880   3.386   2.912 -0.4787 -1.5405 -0.4440
   80MOL   H14220840   6.926   3.302   2.777 -4.2080 -0.7869  2.9963
   80MOL   H14320841   7.128   3.272   3.035  2.1873 -0.7695 -1.7286
   80MOL   H14420842   7.038   3.412   3.071  0.1696 -0.0361  0.9909
   80MOL   C14520843   7.247   3.439   3.078 -0.1983  0.3427  0.2689
   80MOL   C14620844   7.264   3.391   3.226  0.2731  0.6723 -0.1094
   80MOL   C14720845   7.319   3.468   3.321  1.0325  0.6662  0.0269
   80MOL   C14820846   7.359   3.611   3.309 -0.4689  0.0857  0.4688
   80MOL   C14920847   7.350   3.399   3.457  0.3579 -0.2966 -0.0740
   80MOL   H15020848   7.244   3.548   3.079  3.0034  0.5173 -0.9920
   80MOL   H15120849   7.336   3.421   3.017 -1.0450  0.9899 -1.2085
   80MOL   H15220850   7.243   3.288   3.247 -0.1218  1.2026  2.3096
   80MOL   H15320851   7.447   3.628   3.371  0.5064  0.0805 -0.8837
   80MOL   H15420852   7.289   3.681   3.356  0.9105  1.8841 -0.0895
   80MOL   H15520853   7.369   3.644   3.206 -1.0297 -1.1460  0.0139
   80MOL   H15620854   7.257   3.391   3.514  1.1335  0.9710  1.3790
   80MOL   H15720855   7.407   3.463   3.523  2.5776  1.0800 -3.1953
   80MOL   C15820856   7.447   3.271   3.452 -0.3791 -0.4155 -0.2915
   80MOL   C15920857   7.366   3.143   3.447 -0.3017 -0.2172  0.2754
   80MOL   C16020858   7.410   3.016   3.440  0.2079  1.1017 -0.0681
   80MOL   C16120859   7.558   2.986   3.410  0.2246 -0.2903  0.1803
   80MOL   C16220860   7.319   2.900   3.443 -0.2206  0.0171 -0.3357
   80MOL   H16320861   7.489   3.263   3.552 -0.2299  0.0825 -0.3136
   80MOL   H16420862   7.526   3.280   3.378 -1.1556  0.0081 -1.0889
   80MOL   H16520863   7.260   3.154   3.466 -1.0662 -1.8672 -2.6327
   80MOL   H16620864   7.611   2.969   3.504  0.7816  1.4544  0.2114
   80MOL   H16720865   7.613   3.070   3.368 -0.2682  1.5798  3.1169
   80MOL   H16820866   7.552   2.894   3.352 -0.8480 -0.6620  0.8694
   80MOL   H16920867   7.324   2.845   3.349 -0.5407 -0.2568 -0.1918
   80MOL   H17020868   7.217   2.939   3.449  0.3499  1.1528  2.9954
   80MOL   C17120869   7.358   2.799   3.546  0.2033  0.5967 -0.5917
   80MOL   C17220870   7.259   2.685   3.553 -0.4131 -0.6480  0.4443
   80MOL   C17320871   7.252   2.602   3.663  0.6591 -0.3628  0.2492
   80MOL   C17420872   7.319   2.610   3.797  0.3171 -0.4365 -0.3008
   80MOL   C17520873   7.157   2.490   3.654  0.4297  0.2135 -0.0026
   80MOL   H17620874   7.376   2.832   3.649  2.2823 -1.3330 -0.2844
   80MOL   H17720875   7.455   2.759   3.515  0.6731 -0.2601  1.8341
   80MOL   H17820876   7.201   2.670   3.463 -2.0483  0.0806  1.3636
   80MOL   H17920877   7.411   2.555   3.781  0.8497 -0.2635  2.0494
   80MOL   H18020878   7.262   2.562   3.877 -2.0525 -0.8741 -2.1873
   80MOL   H18120879   7.353   2.712   3.816 -0.6458 -0.3150  0.8683
   80MOL   H18220880   7.084   2.503   3.574 -0.0840 -1.6479  0.1316
   80MOL   H18320881   7.102   2.501   3.747 -1.2762  0.8834 -1.0714
   80MOL   C18420882   7.217   2.346   3.619  0.2917  0.1479  0.2900
   80MOL   C18520883   7.140   2.257   3.527  0.6759 -0.3044  0.0098
   80MOL   C18620884   7.188   2.175   3.431  0.7628  0.1784 -0.0876
   80MOL   C18720885   7.338   2.164   3.418  0.4969  0.2111  0.5425
   80MOL   C18820886   7.101   2.096   3.342 -0.0838 -0.0935  0.0447
   80MOL   H18920887   7.205   2.286   3.709 -0.4561 -1.8513 -1.0893
   80MOL   H19020888   7.321   2.356   3.588 -0.5203  0.0901 -2.6510
   80MOL   H19120889   7.033   2.265   3.532  0.6478 -0.6540  0.0017
   80MOL   H19220890   7.390   2.162   3.513  1.7011  2.7629 -0.0219
   80MOL   H19320891   7.363   2.253   3.360 -1.5170  0.0064 -0.7230
   80MOL   H19420892   7.372   2.076   3.363  0.0384 -0.4359  1.2847
   80MOL   H19520893   7.004   2.070   3.384 -0.5876 -0.3808 -1.2567
   80MOL   H19620894   7.155   2.001   3.343  1.4954  0.7225 -2.2701
   80MOL   C19720895   7.091   2.142   3.194  0.0535  0.1679 -0.0237
   80MOL   C19820896   7.041   2.280   3.178 -1.3474 -0.3155  0.1459
   80MOL   C19920897   6.927   2.318   3.123  0.6937  0.0182 -0.1607
   80MOL   C20020898   6.824   2.224   3.058 -0.6495 -0.2915 -0.4314
   80MOL   C20120899   6.882   2.464   3.118 -0.3464 -0.1237 -0.2093
   80MOL   H20220900   7.052   2.068   3.124 -0.2467  0.7701 -0.4894
   80MOL   H20320901   7.194   2.142   3.159  0.0190 -0.0634 -0.1285
   80MOL   H20420902   7.090   2.370   3.212  0.1912 -0.4447 -1.6935
   80MOL   H20520903   6.732   2.217   3.116  0.0692 -2.5407  0.4953
   80MOL   H20620904   6.870   2.126   3.049 -0.5276 -0.1121 -1.8028
   80MOL   H20720905   6.799   2.250   2.956  0.3280  0.5998 -0.4561
   80MOL   H20820906   6.811   2.482   3.037 -0.2559 -2.8018 -0.9395
   80MOL   H20920907   6.975   2.517   3.099 -0.1559 -0.0576  0.8807
   80MOL   C21020908   6.822   2.514   3.243  0.2238  0.0618  0.9402
   80MOL   C21120909   6.785   2.660   3.231  0.1908  0.0258  0.1603
   80MOL   C21220910   6.873   2.757   3.211  0.5913 -0.0513 -0.4790
   80MOL   C21320911   7.022   2.750   3.230 -0.1961  0.2412  0.3173
   80MOL   C21420912   6.823   2.897   3.200  0.3695  0.2649  0.3577
   80MOL   H21520913   6.900   2.511   3.320 -0.2601  0.7513  1.4707
   80MOL   H21620914   6.740   2.446   3.264 -0.5250  0.2540 -1.2938
   80MOL   H21720915   6.680   2.681   3.219  0.1818 -0.6623 -1.0904
   80MOL   H21820916   7.063   2.656   3.266 -2.4249 -1.0596 -0.4288
   80MOL   H21920917   7.073   2.830   3.283  0.6008 -0.3765  0.4886
   80MOL   H22020918   7.075   2.771   3.136  1.3566 -0.7103  0.9710
   80MOL   H22120919   6.876   2.966   3.266  0.8398  0.4877 -0.2428
   80MOL   H22220920   6.722   2.896   3.242  1.0192 -1.1763  1.9500
   80MOL   C22320921   6.801   2.956   3.053 -0.3045 -0.6474  0.0253
   80MOL   C22420922   6.932   3.013   2.991  0.0508 -0.0142 -0.0845
   80MOL   C22520923   6.997   2.961   2.890 -0.0544 -0.1135  0.2771
   80MOL   C22620924   6.960   2.837   2.812 -0.2087 -0.0795 -0.4728
   80MOL   C22720925   7.121   3.034   2.830  0.0382 -1.2265 -0.1595
   80MOL   H22820926   6.733   3.041   3.051  0.6338  0.0832 -2.3857
   80MOL   H22920927   6.746   2.884   2.993 -1.5817  2.5142 -2.7316
   80MOL   H23020928   6.967   3.104   3.037  0.3469  0.8522 -1.9643
   80MOL   H23120929   6.865   2.794   2.841  0.8269 -2.2870 -0.2233
   80MOL   H23220930   7.032   2.759   2.838  0.6407  0.4500 -1.1691
   80MOL   H23320931   6.971   2.862   2.706  0.3120  0.3439 -0.3249
   80MOL   H23420932   7.092   3.137   2.852 -1.0848 -1.2935 -1.3059
   80MOL   H23520933   7.125   3.027   2.721 -1.7169  0.5452 -0.3750
   80MOL   C23620934   7.245   2.993   2.915 -0.3599 -0.0261 -0.3238
   80MOL   C23720935   7.368   3.070   2.867 -0.3349  0.3381  0.3454
   80MOL   C23820936   7.464   3.126   2.946  0.1619  0.7227 -0.4629
   80MOL   C23920937   7.476   3.118   3.098  0.1648 -0.0557 -0.1385
   80MOL   C24020938   7.573   3.212   2.879  0.2744 -0.2805  0.7493
   80MOL   H24120939   7.260   2.886   2.901  0.2535 -0.2537  1.8792
   80MOL   H24220940   7.239   2.992   3.023  1.9127  0.5019 -0.1751
   80MOL   H24320941   7.370   3.084   2.760 -0.7554  1.0817  0.4325
   80MOL   H24420942   7.553   3.046   3.125  1.7038  1.1156 -1.2811
   80MOL   H24520943   7.385   3.094   3.152  0.1335 -1.3628 -0.7588
   80MOL   H24620944   7.510   3.219   3.123 -1.5291  0.6377 -0.5277
   80MOL   H24720945   7.571   3.312   2.921  2.1157 -0.0904  0.4231
   80MOL   H24820946   7.547   3.233   2.775  1.4420  1.0485  0.7208
   80MOL   C24920947   7.707   3.143   2.906 -0.2361 -0.1896  0.5438
   80MOL   C25020948   7.810   3.202   2.814 -0.4313 -0.2769 -0.1343
   80MOL   C25120949   7.880   3.138   2.716 -0.7021 -0.1670 -0.3580
   80MOL   C25220950   7.872   2.993   2.695 -0.5503  0.9783 -0.3434
   80MOL   C25320951   0.078   3.217   2.614 -0.6235  0.5729  0.5429
   80MOL   H25420952   7.695   3.036   2.889  0.6349 -0.1329 -0.5206
   80MOL   H25520953   7.748   3.154   3.006  0.1163 -0.8717  0.4754
   80MOL   H25620954   7.823   3.309   2.823  0.6827 -0.3953 -0.1853
   80MOL   H25720955   7.845   2.940   2.786 -1.1565  0.2591 -0.9333
   80MOL   H25820956   0.088   2.963   2.659 -0.4903  3.0511 -2.0072
   80MOL   H25920957   7.803   2.965   2.615 -0.9649 -2.4258  1.0890
   80MOL   H26020958   0.057   3.323   2.627 -1.1697  0.5446 -0.0869
   80MOL   H26120959   0.061   3.181   2.513 -3.1525  0.6708  0.9123
   80MOL   H26220960   0.180   3.200   2.650 -0.6366 -0.3995  0.1438
   81MOL     C120961   7.423   2.056   4.749 -0.0168  0.6043  0.4132
   81MOL     C220962   7.376   1.919   4.797  0.1047  0.1057  0.2918
   81MOL     C320963   7.453   1.836   4.869 -0.7159  0.5655  0.5841
   81MOL     C420964   7.596   1.867   4.898  0.5264  0.3972 -0.1840
   81MOL     C520965   7.392   1.724   4.948 -0.7907  0.0507 -0.4933
   81MOL     H620966   7.334   2.098   4.701  1.5381 -0.8410 -3.9871
   81MOL     H720967   7.453   2.124   4.829  0.2214 -0.2750  1.0715
   81MOL     H820968   7.271   1.899   4.785  0.2065 -1.3957  1.6221
   81MOL     H920969   7.651   1.776   4.875  0.4890 -0.1841  1.8966
   81MOL    H1020970   7.614   1.908   4.997  0.6545 -1.0374  0.3998
   81MOL    H1120971   7.636   1.927   4.816  0.0241  2.8344  1.3189
   81MOL    H1220972   7.458   1.637   4.939 -2.3507 -1.6113  3.0993
   81MOL    H1320973   7.296   1.704   4.900 -0.8140  0.8840 -0.7966
   81MOL    H1420974   7.489   2.053   4.662  0.7700  1.7514  0.9671
   81MOL    C1520975   7.368   1.751   5.095  0.2951 -0.5744  0.8039
   81MOL    C1620976   7.339   1.624   5.176 -0.0239 -0.6232  0.9897
   81MOL    C1720977   7.239   1.605   5.267  0.0150  0.2470 -1.0260
   81MOL    C1820978   7.138   1.711   5.295  0.9604  0.4255 -0.6310
   81MOL    C1920979   7.224   1.475   5.352 -0.1615 -0.0745 -0.8964
   81MOL    H2020980   7.311   1.840   5.121 -0.8766 -1.3981  1.0753
   81MOL    H2120981   7.468   1.782   5.126  1.3503 -1.0467 -1.9908
   81MOL    H2220982   7.416   1.549   5.164  1.6724  0.6337  3.4626
   81MOL    H2320983   7.145   1.759   5.392 -0.3257  1.2254 -0.9221
   81MOL    H2420984   7.042   1.661   5.286  1.3013 -0.4183  0.3258
   81MOL    H2520985   7.131   1.798   5.229 -2.1540  0.2219 -0.6322
   81MOL    H2620986   7.142   1.414   5.314 -1.5128  1.4980 -0.5617
   81MOL    H2720987   7.198   1.509   5.452  2.7467 -0.3145 -0.0213
   81MOL    C2820988   7.346   1.375   5.353 -1.1922  0.6229 -0.0099
   81MOL    C2920989   7.320   1.282   5.469  0.7543 -0.4794 -0.7238
   81MOL    C3020990   7.268   1.160   5.454  0.6802  0.4306 -0.5851
   81MOL    C3120991   7.230   1.095   5.320  0.3656 -0.0577  0.2216
   81MOL    C3220992   7.240   1.066   5.577  0.0753 -0.4301 -0.2654
   81MOL    H3320993   7.441   1.425   5.371 -1.6207  1.9901 -1.4038
   81MOL    H3420994   7.360   1.320   5.261  1.3567 -1.5927  1.6278
   81MOL    H3520995   7.323   1.325   5.568 -0.1365  1.3865 -1.4846
   81MOL    H3620996   7.231   1.168   5.239  1.2405  0.4493  0.6713
   81MOL    H3720997   7.127   1.060   5.324  0.1421  0.4294 -1.0482
   81MOL    H3820998   7.308   1.023   5.298  0.2560 -0.1188  0.0379
   81MOL    H3920999   7.140   1.025   5.561 -0.8198  0.2144  3.2362
   81MOL    H4021000   7.234   1.138   5.659  0.5948  0.8631 -1.3462
   81MOL    C4121001   7.340   0.954   5.591  0.2052 -0.5054 -0.1363
   81MOL    C4221002   7.470   1.009   5.634 -0.5464  0.2764 -0.7140
   81MOL    C4321003   7.512   1.035   5.758 -0.2317  0.3871 -1.0335
   81MOL    C4421004   7.430   0.989   5.877  0.3376  0.7095 -0.0202
   81MOL    C4521005   7.641   1.110   5.783 -0.1931 -0.1682 -0.0129
   81MOL    H4621006   7.355   0.886   5.507  1.4217  0.7715 -0.9792
   81MOL    H4721007   7.305   0.893   5.675 -0.9349  2.2164  1.4123
   81MOL    H4821008   7.525   1.040   5.546  0.0327 -1.9237 -1.1657
   81MOL    H4921009   7.365   0.902   5.864  2.9075 -1.2612 -0.2537
   81MOL    H5021010   7.372   1.065   5.929 -1.9513 -2.3310  2.0430
   81MOL    H5121011   7.511   0.963   5.946  0.2816 -1.7355 -0.8040
   81MOL    H5221012   7.720   1.042   5.814 -0.0991  1.0907  2.7009
   81MOL    H5321013   7.616   1.173   5.868  1.8863 -0.7556  1.0622
   81MOL    C5421014   7.683   1.207   5.672 -0.1133 -0.2630 -0.4481
   81MOL    C5521015   7.786   1.311   5.729  0.4586  0.7046  0.4152
   81MOL    C5621016   0.029   1.330   5.681 -0.5358 -0.0574  0.1772
   81MOL    C5721017   0.081   1.254   5.556 -0.1470 -0.7174 -0.6087
   81MOL    C5821018   0.132   1.432   5.746 -1.2719  0.0741 -1.3748
   81MOL    H5921019   7.598   1.269   5.644 -0.1123  0.3262  0.8171
   81MOL    H6021020   7.712   1.147   5.586 -1.4147 -0.7780 -0.5367
   81MOL    H6121021   7.758   1.374   5.812 -0.6431  2.2833 -1.1218
   81MOL    H6221022   0.183   1.217   5.559 -0.0952 -0.5580 -0.4272
   81MOL    H6321023   0.078   1.313   5.464 -3.9936 -0.8794 -0.6824
   81MOL    H6421024   0.027   1.162   5.531 -0.5071 -0.1167 -2.1015
   81MOL    H6521025   0.103   1.536   5.728  0.1099  0.2273 -2.8934
   81MOL    H6621026   0.224   1.421   5.689 -2.0564 -1.7977 -2.3211
   81MOL    C6721027   0.175   1.409   5.891 -0.2478 -0.1185 -0.6656
   81MOL    C6821028   0.226   1.266   5.911 -0.4242  0.8522 -0.5387
   81MOL    C6921029   0.182   1.166   5.987  0.3207  0.3675 -0.2547
   81MOL    C7021030   0.052   1.172   6.063  0.2599 -0.0549  0.1823
   81MOL    C7121031   0.258   1.038   6.011 -0.2976  0.3886 -0.4411
   81MOL    H7221032   0.090   1.431   5.956  1.2326  0.7634  1.0096
   81MOL    H7321033   0.254   1.483   5.907 -1.7193  1.4019 -0.2577
   81MOL    H7421034   0.320   1.246   5.860  0.0336 -0.9640  0.9368
   81MOL    H7521035   0.095   1.170   6.163  0.6004  0.7072  0.0569
   81MOL    H7621036   7.869   1.086   6.050 -0.1690  0.0109  1.8312
   81MOL    H7721037   7.875   1.262   6.054  1.6007  1.1698  2.8808
   81MOL    H7821038   0.193   0.954   6.036  0.3773 -0.0280 -0.0561
   81MOL    H7921039   0.316   1.053   6.102 -2.9603 -0.2357  1.4014
   81MOL    C8021040   0.340   0.988   5.891 -0.1914 -0.4752 -0.8133
   81MOL    C8121041   0.471   1.063   5.882  0.1346 -0.5786  0.0910
   81MOL    C8221042   0.542   1.100   5.773  0.5751  0.1705 -0.0930
   81MOL    C8321043   0.504   1.081   5.629 -0.0604 -0.5835 -0.0657
   81MOL    C8421044   0.671   1.172   5.799 -0.5544 -0.3757  0.5027
   81MOL    H8521045   0.278   0.999   5.802 -2.0654  0.2567  0.5620
   81MOL    H8621046   0.362   0.883   5.907  0.3688 -0.4909 -1.6278
   81MOL    H8721047   0.522   1.094   5.972  2.3098  1.4438 -1.7840
   81MOL    H8821048   0.579   1.053   5.555  0.2464  0.8159 -0.2909
   81MOL    H8921049   0.472   1.182   5.604  1.2727  0.7986  3.4431
   81MOL    H9021050   0.418   1.014   5.639 -1.8132  0.9965 -3.6689
   81MOL    H9121051   0.751   1.139   5.733 -0.3297  0.4537  0.3653
   81MOL    H9221052   0.706   1.129   5.892 -1.3192  0.1080  1.0213
   81MOL    C9321053   0.655   1.326   5.799 -0.5906 -0.4046 -0.2757
   81MOL    C9421054   0.776   1.396   5.868  0.3307  0.2134  0.3696
   81MOL    C9521055   0.767   1.501   5.955  0.5773  0.4122 -1.2390
   81MOL    C9621056   0.634   1.561   6.009  0.3358  0.2845 -0.1850
   81MOL    C9721057   0.895   1.556   6.014  0.1199 -0.3130  0.4147
   81MOL    H9821058   0.568   1.354   5.859 -0.4919  0.9317 -0.7545
   81MOL    H9921059   0.633   1.357   5.697  1.8619 -1.1004 -1.0445
   81MOL   H10021060   0.870   1.352   5.839  0.7947  1.1621  0.4516
   81MOL   H10121061   0.555   1.549   5.936 -0.2237 -1.3664  0.6690
   81MOL   H10221062   0.650   1.665   6.037  1.3057  0.2129 -0.4339
   81MOL   H10321063   0.605   1.510   6.101  1.2055 -0.6281 -0.4118
   81MOL   H10421064   0.895   1.665   6.021  0.7893  0.0102 -3.4076
   81MOL   H10521065   0.978   1.526   5.949  1.2841 -0.3320  1.8705
   81MOL   C10621066   0.921   1.491   6.151  0.2089 -0.2809  0.3937
   81MOL   C10721067   1.060   1.527   6.201 -0.0745  0.3750  0.7865
   81MOL   C10821068   1.091   1.605   6.299 -0.1777 -0.1728 -0.8069
   81MOL   C10921069   0.988   1.680   6.380  0.0113  0.1289  0.2857
   81MOL   C11021070   1.240   1.629   6.339 -0.2263  0.0438  0.4977
   81MOL   H11121071   0.922   1.383   6.139 -0.5539 -0.2606  0.1541
   81MOL   H11221072   0.847   1.515   6.227  0.0456  1.9176 -0.4041
   81MOL   H11321073   1.138   1.486   6.139 -0.1336  0.3987  0.6962
   81MOL   H11421074   0.988   1.651   6.486  0.7469 -0.6401  0.0812
   81MOL   H11521075   0.884   1.687   6.350 -0.0055  4.7446  1.1182
   81MOL   H11621076   1.011   1.785   6.368  1.7086  0.0298  2.2027
   81MOL   H11721077   1.280   1.730   6.345  1.9086 -0.4998 -2.7651
   81MOL   H11821078   1.285   1.590   6.247  0.1655  4.2915 -1.2320
   81MOL   C11921079   1.285   1.533   6.450  0.2156  0.2831  0.3842
   81MOL   C12021080   1.428   1.553   6.499  0.4433  0.5199 -0.9623
   81MOL   C12121081   1.532   1.464   6.494 -0.6819  0.2200  0.2888
   81MOL   C12221082   1.506   1.317   6.461 -0.4067 -0.3663  0.2906
   81MOL   C12321083   1.677   1.506   6.537 -0.1870 -0.1254 -0.4751
   81MOL   H12421084   1.276   1.433   6.407 -1.8603  0.3175  0.6839
   81MOL   H12521085   1.224   1.534   6.540 -1.1027 -0.1396 -0.4945
   81MOL   H12621086   1.453   1.653   6.531  1.6829 -0.0345 -0.1580
   81MOL   H12721087   1.537   1.301   6.357 -2.3178 -0.6054 -0.2736
   81MOL   H12821088   1.404   1.281   6.479 -0.5672  0.5993  1.3697
   81MOL   H12921089   1.578   1.254   6.512 -0.6998 -0.2431  0.8613
   81MOL   H13021090   1.695   1.468   6.637 -1.7069 -1.0309 -0.5311
   81MOL   H13121091   1.696   1.612   6.554  2.0254  0.1567 -4.1003
   81MOL   C13221092   1.784   1.464   6.444 -0.0421  0.6002  0.8022
   81MOL   C13321093   1.916   1.522   6.472  0.3690  0.3298  0.7503
   81MOL   C13421094   2.015   1.533   6.380 -0.0397  0.1999 -0.2736
   81MOL   C13521095   1.997   1.483   6.238  0.0394 -0.1279  0.0919
   81MOL   C13621096   2.151   1.594   6.415 -0.0703  0.0625 -0.2137
   81MOL   H13721097   1.750   1.485   6.342 -1.2210  0.3199  1.1243
   81MOL   H13821098   1.789   1.355   6.451  1.9299  0.7899  2.6951
   81MOL   H13921099   1.935   1.554   6.573 -1.7744  2.7735  0.4202
   81MOL   H14021100   1.995   1.562   6.164 -0.5705 -0.3629 -0.1441
   81MOL   H14121101   1.917   1.410   6.229 -0.7244  0.5471  1.2797
   81MOL   H14221102   2.080   1.415   6.217 -1.1679 -1.1103 -1.5810
   81MOL   H14321103   2.135   1.661   6.500  0.2330 -0.3487  0.1686
   81MOL   H14421104   2.178   1.670   6.342 -1.1707  0.7421  0.0722
   81MOL   C14521105   2.255   1.495   6.443  0.8379 -0.1353  0.0926
   81MOL   C14621106   2.240   1.421   6.574 -0.5719  0.6827 -0.1895
   81MOL   C14721107   2.308   1.439   6.687 -0.2453 -0.0558 -0.0076
   81MOL   C14821108   2.427   1.533   6.697 -0.0325  0.6058  0.0746
   81MOL   C14921109   2.288   1.361   6.822  0.2965  0.2469 -0.0049
   81MOL   H15021110   2.352   1.544   6.441  0.9216 -0.3056 -0.0838
   81MOL   H15121111   2.263   1.422   6.361 -1.1628 -0.3881  0.0930
   81MOL   H15221112   2.162   1.348   6.558 -0.3950 -0.0176  1.9872
   81MOL   H15321113   2.413   1.618   6.763  0.0974  0.4781  0.2678
   81MOL   H15421114   2.469   1.568   6.603  0.2471 -1.4750 -0.6082
   81MOL   H15521115   2.518   1.481   6.729  0.6397  2.4181  1.1562
   81MOL   H15621116   2.254   1.430   6.899  1.9002 -0.3743  1.3056
   81MOL   H15721117   2.378   1.331   6.875 -0.9826 -2.1496  0.8709
   81MOL   C15821118   2.185   1.247   6.811 -0.2831  0.4211 -0.1085
   81MOL   C15921119   2.187   1.168   6.940 -0.7213 -1.1191  0.4215
   81MOL   C16021120   2.219   1.043   6.966 -0.8856 -0.4220 -0.1764
   81MOL   C16121121   2.286   0.945   6.861  0.7496 -0.2443 -0.2072
   81MOL   C16221122   2.200   0.982   7.100 -0.1704 -0.6083 -0.2224
   81MOL   H16321123   2.214   1.183   6.728  0.4325  1.4987 -0.6978
   81MOL   H16421124   2.084   1.280   6.787 -0.4632  0.5313  0.7643
   81MOL   H16521125   2.147   1.224   7.024 -1.8032  0.9855 -1.4329
   81MOL   H16621126   2.263   0.843   6.891  0.3678 -0.3667 -0.9089
   81MOL   H16721127   2.393   0.968   6.863  0.8673 -0.8129  2.1699
   81MOL   H16821128   2.236   0.957   6.765 -0.4392 -0.5657  0.3709
   81MOL   H16921129   2.158   0.882   7.094  0.5413 -1.0609  1.9263
   81MOL   H17021130   2.126   1.041   7.154  1.1724 -0.1998  1.2025
   81MOL   C17121131   2.335   0.970   7.174 -0.3530 -0.0465 -0.4162
   81MOL   C17221132   2.301   0.963   7.317  0.4936  0.1552 -0.9584
   81MOL   C17321133   2.277   0.850   7.392 -0.5064 -0.5155 -0.0153
   81MOL   C17421134   2.290   0.717   7.329  0.3958  0.0001  0.8154
   81MOL   C17521135   2.225   0.861   7.537  0.3475 -0.2076  0.4878
   81MOL   H17621136   2.401   1.055   7.159  0.5415 -0.4694  1.0558
   81MOL   H17721137   2.395   0.884   7.144  1.1417  1.3450 -1.4679
   81MOL   H17821138   2.284   1.056   7.368  0.7822 -0.3748  0.1221
   81MOL   H17921139   2.199   0.682   7.280  0.9439  0.3390 -0.4692
   81MOL   H18021140   2.318   0.636   7.397 -0.0533 -0.4413  0.4828
   81MOL   H18121141   2.369   0.706   7.255 -0.7069 -0.9405 -0.2478
   81MOL   H18221142   2.232   0.968   7.556 -0.5203  0.8890 -4.5164
   81MOL   H18321143   2.292   0.815   7.610  1.1982  1.0936  0.5451
   81MOL   C18421144   2.082   0.804   7.550  0.0715  0.4489  0.2596
   81MOL   C18521145   2.093   0.655   7.560 -0.0913 -0.1402 -0.1993
   81MOL   C18621146   2.026   0.561   7.490 -0.3829 -0.8309 -0.0639
   81MOL   C18721147   1.913   0.593   7.393  0.1756  0.6550  0.1883
   81MOL   C18821148   2.055   0.411   7.497 -0.0183  0.0836 -0.0215
   81MOL   H18921149   2.020   0.841   7.468  1.6553  0.3860 -0.9724
   81MOL   H19021150   2.039   0.830   7.647  0.3477 -0.5090  0.6416
   81MOL   H19121151   2.165   0.619   7.633 -1.1577  1.5449  1.7288
   81MOL   H19221152   1.916   0.534   7.301  1.3545  2.7685 -1.1689
   81MOL   H19321153   1.907   0.696   7.360  1.9859  0.6904 -0.0488
   81MOL   H19421154   1.817   0.580   7.443 -0.5234  2.9724 -0.4909
   81MOL   H19521155   2.077   0.383   7.394  0.5927 -0.7489  0.3317
   81MOL   H19621156   1.973   0.351   7.536 -1.0995  1.9376  0.6376
   81MOL   C19721157   2.185   0.361   7.567  0.3512  0.4302 -0.3354
   81MOL   C19821158   2.204   0.213   7.542 -0.1514  1.4333  0.5297
   81MOL   C19921159   2.296   0.156   7.461  0.1495  0.2795 -0.0978
   81MOL   C20021160   2.404   0.232   7.382 -0.0593 -0.1201 -0.5987
   81MOL   C20121161   2.310   0.005   7.452 -0.0557 -0.8053 -0.3210
   81MOL   H20221162   2.180   0.377   7.675 -2.4806 -2.7569  0.0862
   81MOL   H20321163   2.260   0.428   7.524  1.6968 -0.5712  0.3955
   81MOL   H20421164   2.144   0.146   7.601 -1.8751  2.0915 -0.4452
   81MOL   H20521165   2.385   0.334   7.350 -1.9343  0.0922  1.1162
   81MOL   H20621166   2.429   0.178   7.290 -1.0794 -0.9023 -0.4315
   81MOL   H20721167   2.494   0.229   7.444 -0.4092 -1.3362 -0.1246
   81MOL   H20821168   2.242   7.844   7.525  0.4817  0.6081  1.0263
   81MOL   H20921169   2.409   7.874   7.495 -0.2413 -0.9987  0.0481
   81MOL   C21021170   2.289   7.827   7.311 -0.1215  1.0053 -0.2206
   81MOL   C21121171   2.261   7.682   7.321  0.0518  0.3298  0.2943
   81MOL   C21221172   2.202   7.599   7.233 -0.3232 -0.3614 -0.2759
   81MOL   C21321173   2.160   7.635   7.094  0.3424  0.3005  0.4080
   81MOL   C21421174   2.162   7.457   7.273 -0.5078  0.1848 -0.1151
   81MOL   H21521175   2.383   7.839   7.257 -0.3076  1.1482 -0.5174
   81MOL   H21621176   2.204   7.878   7.264 -1.2666 -1.7109 -1.1583
   81MOL   H21721177   2.276   7.648   7.422 -0.6532  0.6924  0.5270
   81MOL   H21821178   2.052   7.642   7.096  0.2964  0.8579 -2.0949
   81MOL   H21921179   2.176   7.552   7.025  1.8479  0.8981  0.0108
   81MOL   H22021180   2.192   7.731   7.055 -0.3473  0.8885  1.2734
   81MOL   H22121181   2.081   7.431   7.206 -1.4889  0.4345  0.9543
   81MOL   H22221182   2.116   7.451   7.371 -1.2544  3.0768 -0.2264
   81MOL   C22321183   2.286   7.360   7.260 -0.5265 -0.0178  0.1195
   81MOL   C22421184   2.252   7.215   7.297  0.1439  0.1707  0.3062
   81MOL   C22521185   2.303   7.096   7.248  0.1880 -0.1918 -0.5680
   81MOL   C22621186   2.410   7.098   7.144 -0.5280 -0.7941 -0.4128
   81MOL   C22721187   2.253   6.962   7.306  0.2384 -0.3405  0.3847
   81MOL   H22821188   2.383   7.391   7.300  1.1673  0.0907 -3.8891
   81MOL   H22921189   2.297   7.367   7.152 -4.8987 -0.8253 -0.4839
   81MOL   H23021190   2.175   7.210   7.373 -0.8828  2.3098 -0.5329
   81MOL   H23121191   2.431   7.198   7.107 -0.4304 -1.3653 -1.9790
   81MOL   H23221192   2.380   7.036   7.059  1.5560 -2.8563  0.2925
   81MOL   H23321193   2.499   7.066   7.198 -1.3234 -1.9497  0.2424
   81MOL   H23421194   2.220   6.966   7.409 -1.1721 -1.6300 -0.0003
   81MOL   H23521195   2.337   6.893   7.313  1.4886  1.2489  1.3810
   81MOL   C23621196   2.134   6.900   7.229 -0.2373  0.1100 -0.4686
   81MOL   C23721197   2.086   6.789   7.316 -0.4681 -0.8741  0.6508
   81MOL   C23821198   2.079   6.658   7.291  0.2362 -0.1406  0.5219
   81MOL   C23921199   2.140   6.590   7.169 -0.8854 -0.6764  0.1990
   81MOL   C24021200   2.024   6.553   7.386 -0.0107  0.7458  0.2092
   81MOL   H24121201   2.164   6.868   7.129  0.0878 -0.3111 -0.2338
   81MOL   H24221202   2.051   6.968   7.209  0.0496 -0.0629 -2.3846
   81MOL   H24321203   2.042   6.822   7.409  1.3494 -0.9330  1.5506
   81MOL   H24421204   2.210   6.518   7.212  0.3584  1.6792  2.2445
   81MOL   H24521205   2.200   6.654   7.105  1.0536 -1.2362  1.4160
   81MOL   H24621206   2.064   6.533   7.115 -0.5511  0.2174 -1.2380
   81MOL   H24721207   1.948   6.487   7.343 -0.5257  1.2241  0.3694
   81MOL   H24821208   1.962   6.610   7.455  0.2163  0.2735  0.8125
   81MOL   C24921209   2.134   6.479   7.471  0.0599  0.0913 -0.3013
   81MOL   C25021210   2.091   6.346   7.532  0.6304  0.5806 -0.2603
   81MOL   C25121211   2.118   6.220   7.490  0.3866  0.3705 -0.5098
   81MOL   C25221212   2.198   6.182   7.364 -0.0571 -0.3904 -0.8476
   81MOL   C25321213   2.053   6.105   7.560  0.4326 -0.0858  0.0585
   81MOL   H25421214   2.160   6.555   7.544 -1.5590  1.4563 -1.1242
   81MOL   H25521215   2.235   6.466   7.433  0.8663  1.4279  1.3592
   81MOL   H25621216   2.032   6.360   7.622 -0.3351 -0.3087 -0.7451
   81MOL   H25721217   2.292   6.136   7.394  0.6171  1.1096 -0.6000
   81MOL   H25821218   2.221   6.266   7.299 -0.4244  0.1363 -0.3017
   81MOL   H25921219   2.134   6.116   7.306  0.0503 -2.4753  1.3393
   81MOL   H26021220   1.957   6.131   7.605  1.2791  0.9781  1.2909
   81MOL   H26121221   2.131   6.061   7.622  0.8054  1.2511  0.5701
   81MOL   H26221222   2.028   6.028   7.487 -0.0296 -1.5983  1.7647
   82MOL     C121223   4.725   0.036   2.062  0.4247  1.1715 -1.2638
   82MOL     C221224   4.733   7.773   2.117  0.5259 -0.2333 -0.2559
   82MOL     C321225   4.678   7.666   2.054 -0.0722  0.0115 -0.1888
   82MOL     C421226   4.593   7.683   1.933  0.3444  0.4521 -0.5368
   82MOL     C521227   4.690   7.523   2.093  0.3389 -0.7376  0.0709
   82MOL     H621228   4.726   0.114   2.139  1.0932 -1.9991  2.1066
   82MOL     H721229   4.806   0.052   1.991  2.1220  2.1176  0.8261
   82MOL     H821230   4.784   7.761   2.212  1.8841 -3.2394 -1.2982
   82MOL     H921231   4.605   7.770   1.868  1.2498 -0.4429 -1.6187
   82MOL    H1021232   4.491   7.681   1.971  1.5264 -2.8860  2.7941
   82MOL    H1121233   4.616   7.610   1.855  3.6644  0.8421  0.0069
   82MOL    H1221234   4.590   7.482   2.108  0.0192  0.1272  0.3322
   82MOL    H1321235   4.740   7.520   2.190 -2.2013  2.3362  1.5580
   82MOL    H1421236   4.626   0.051   2.018 -0.3905  0.2332  0.2021
   82MOL    C1521237   4.756   7.422   1.997  1.0097  0.7723  1.0390
   82MOL    C1621238   4.790   7.298   2.068 -0.3519  0.1263 -0.4230
   82MOL    C1721239   4.849   7.190   2.008 -0.1228  0.1914  0.2354
   82MOL    C1821240   4.882   7.179   1.853  0.4503 -0.5908  0.6407
   82MOL    C1921241   4.901   7.071   2.091 -0.0508 -0.0905 -0.6969
   82MOL    H2021242   4.838   7.464   1.938  2.5929 -2.5417  0.7986
   82MOL    H2121243   4.683   7.406   1.917  1.0743  0.8634  0.9606
   82MOL    H2221244   4.792   7.295   2.176  0.3256  1.4116 -0.3835
   82MOL    H2321245   4.847   7.081   1.821  0.7758 -0.7776  0.8639
   82MOL    H2421246   4.990   7.172   1.838  0.4260 -1.0995  0.6799
   82MOL    H2521247   4.835   7.264   1.804  1.1452 -1.1296 -1.0185
   82MOL    H2621248   4.894   7.097   2.196 -1.3455 -2.1492 -0.2460
   82MOL    H2721249   5.002   7.048   2.057  0.3745 -0.1451  0.5795
   82MOL    C2821250   4.815   6.945   2.082 -0.5917  0.6336 -0.7450
   82MOL    C2921251   4.847   6.835   2.189  0.6720 -0.2011 -0.2233
   82MOL    C3021252   4.792   6.828   2.316 -0.2372 -0.5019 -0.3565
   82MOL    C3121253   4.693   6.932   2.371 -0.6394  0.1019  0.2685
   82MOL    C3221254   4.838   6.727   2.414 -0.0291  0.4190 -0.0959
   82MOL    H3321255   4.840   6.889   1.992 -0.6473 -1.5038  0.5246
   82MOL    H3421256   4.709   6.971   2.077 -0.6523  0.4689 -0.3055
   82MOL    H3521257   4.934   6.773   2.172  0.0554 -0.5860 -2.0901
   82MOL    H3621258   4.745   6.997   2.442 -1.8446  1.3531  0.0163
   82MOL    H3721259   4.603   6.890   2.416  0.6417 -0.4258  2.4573
   82MOL    H3821260   4.657   6.995   2.290 -0.0075  0.9318  0.6195
   82MOL    H3921261   4.901   6.774   2.489  0.4937 -0.3642 -0.0462
   82MOL    H4021262   4.913   6.668   2.363  0.4512  0.4344  0.5912
   82MOL    C4121263   4.729   6.635   2.470 -0.6432  0.2753  0.0328
   82MOL    C4221264   4.792   6.527   2.547 -0.5094 -0.6295  0.0846
   82MOL    C4321265   4.737   6.411   2.598 -0.4253  0.7148  0.1151
   82MOL    C4421266   4.588   6.377   2.592  0.3554  0.6449  0.1348
   82MOL    C4521267   4.825   6.304   2.656  0.1209 -0.1650 -0.5842
   82MOL    H4621268   4.667   6.591   2.392  1.0314 -0.5763 -0.8443
   82MOL    H4721269   4.670   6.692   2.542  0.2425  0.7562  0.3707
   82MOL    H4821270   4.898   6.537   2.567 -0.7035 -0.6586  1.1678
   82MOL    H4921271   4.573   6.274   2.561 -0.6420  0.4980  1.0667
   82MOL    H5021272   4.527   6.441   2.528  0.8652  0.2591 -0.7542
   82MOL    H5121273   4.545   6.376   2.692  0.5984 -1.3554  0.2350
   82MOL    H5221274   4.784   6.274   2.752  3.1490 -2.0599  0.1943
   82MOL    H5321275   4.919   6.354   2.681  1.2398 -0.6883 -3.5435
   82MOL    C5421276   4.867   6.181   2.581  0.0181  0.5316 -0.2438
   82MOL    C5521277   4.994   6.194   2.495  0.0904  0.3216 -0.1577
   82MOL    C5621278   5.101   6.111   2.481  0.4343  0.4942  0.1949
   82MOL    C5721279   5.115   5.973   2.555  0.0810 -0.9603 -0.2008
   82MOL    C5821280   5.208   6.148   2.374  0.0033 -0.3396  0.6344
   82MOL    H5921281   4.777   6.160   2.523 -0.1461  0.4554  0.0361
   82MOL    H6021282   4.877   6.102   2.655  1.3735 -0.0157 -0.9995
   82MOL    H6121283   4.998   6.283   2.434  1.1907  1.1516  1.1095
   82MOL    H6221284   5.220   5.956   2.579  0.1882  2.4930  2.3267
   82MOL    H6321285   5.074   5.891   2.496  0.5320  1.1631 -3.6452
   82MOL    H6421286   5.064   5.977   2.651  2.2946 -2.9763  1.0949
   82MOL    H6521287   5.308   6.117   2.406  0.1291 -1.8418 -1.1364
   82MOL    H6621288   5.221   6.256   2.370 -1.0742 -0.1257  2.4492
   82MOL    C6721289   5.176   6.075   2.245 -0.1717 -0.7084  0.2187
   82MOL    C6821290   5.252   6.139   2.130 -0.2055 -0.3281  0.0159
   82MOL    C6921291   5.299   6.074   2.023  0.3044 -0.2399  0.2305
   82MOL    C7021292   5.276   5.933   1.985 -0.2345 -0.6639 -0.8167
   82MOL    C7121293   5.380   6.153   1.922  0.1418  0.3526  0.1986
   82MOL    H7221294   5.071   6.078   2.219 -0.4272  0.8901  1.4040
   82MOL    H7321295   5.216   5.974   2.260  2.5425  0.4225  1.0090
   82MOL    H7421296   5.283   6.240   2.150  2.6367 -1.4951  2.0341
   82MOL    H7521297   5.209   5.935   1.899  0.7305 -1.0041 -1.5821
   82MOL    H7621298   5.225   5.872   2.060  0.9912 -0.4407  0.2214
   82MOL    H7721299   5.372   5.882   1.971 -0.1653 -0.5057 -0.9210
   82MOL    H7821300   5.365   6.261   1.928  0.0493  0.4167 -1.1438
   82MOL    H7921301   5.335   6.126   1.827 -0.1341  0.9136  0.1655
   82MOL    C8021302   5.535   6.126   1.930 -0.2290  0.0797 -0.0549
   82MOL    C8121303   5.619   6.246   1.891 -0.8044  0.0362  0.0790
   82MOL    C8221304   5.716   6.257   1.798 -0.1319  0.3759  0.6316
   82MOL    C8321305   5.781   6.147   1.720 -0.1405  0.2289 -0.0244
   82MOL    C8421306   5.781   6.392   1.774  0.5887  0.4121  0.0040
   82MOL    H8521307   5.556   6.046   1.860  1.5403  0.3187  0.1905
   82MOL    H8621308   5.561   6.088   2.029  0.2652  1.0997  0.2103
   82MOL    H8721309   5.593   6.340   1.937 -1.1025  0.1292 -0.2808
   82MOL    H8821310   5.730   6.053   1.742 -0.4925  0.4673  0.1617
   82MOL    H8921311   5.889   6.130   1.719 -0.0965  0.5444 -0.4684
   82MOL    H9021312   5.762   6.168   1.615 -2.5226  2.6066  0.8514
   82MOL    H9121313   5.700   6.464   1.778  1.6393  1.5236  3.2640
   82MOL    H9221314   5.821   6.383   1.673 -0.1889 -0.1345 -0.2534
   82MOL    C9321315   5.903   6.418   1.863  0.1103  1.0429  0.2921
   82MOL    C9421316   5.989   6.525   1.798 -0.1941 -0.3270 -0.2384
   82MOL    C9521317   6.120   6.538   1.825  0.5108  0.9839  0.1434
   82MOL    C9621318   6.197   6.431   1.890 -0.2991 -0.9641  0.2819
   82MOL    C9721319   6.196   6.657   1.774  0.0543 -0.4450 -0.0743
   82MOL    H9821320   5.960   6.326   1.853  1.0486  1.7402 -0.8221
   82MOL    H9921321   5.891   6.442   1.969  0.5065  0.0650  0.5672
   82MOL   H10021322   5.938   6.606   1.748  0.2814 -0.0252 -0.2437
   82MOL   H10121323   6.202   6.341   1.828 -2.2004 -1.1277  0.3318
   82MOL   H10221324   6.137   6.402   1.976  1.0265 -1.7293  0.9712
   82MOL   H10321325   6.296   6.472   1.911 -1.0852  0.4331  1.2848
   82MOL   H10421326   6.234   6.712   1.860  0.1487 -0.7813  0.1049
   82MOL   H10521327   6.124   6.724   1.726  1.5375  0.4292 -1.1085
   82MOL   C10621328   6.297   6.619   1.665 -0.6500  0.9625  0.1854
   82MOL   C10721329   6.378   6.739   1.626  0.5884 -0.0103  0.4693
   82MOL   C10821330   6.337   6.832   1.540  0.1829  0.1688  0.2552
   82MOL   C10921331   6.191   6.825   1.484  0.2452 -0.2135 -0.2635
   82MOL   C11021332   6.421   6.949   1.500  0.3314  0.2737 -0.4072
   82MOL   H11121333   6.238   6.581   1.581  1.8162 -2.7280  0.0146
   82MOL   H11221334   6.379   6.550   1.685 -0.6510  0.7869 -0.4052
   82MOL   H11321335   6.467   6.762   1.683  0.2336  0.1179  0.9764
   82MOL   H11421336   6.155   6.725   1.463  1.9830 -0.4330 -2.3195
   82MOL   H11521337   6.193   6.872   1.385  1.6102 -0.6061 -0.4317
   82MOL   H11621338   6.120   6.877   1.549 -1.0997 -1.1352 -0.9715
   82MOL   H11721339   6.404   6.965   1.394 -1.0530  1.5998 -0.0067
   82MOL   H11821340   6.526   6.931   1.524  0.4301  1.2356 -0.0786
   82MOL   C11921341   6.371   7.077   1.584  0.3503 -0.4989  0.6320
   82MOL   C12021342   6.424   7.207   1.531  1.4086  0.4495  0.4972
   82MOL   C12121343   6.454   7.325   1.595  0.6001 -0.1722  0.1650
   82MOL   C12221344   6.435   7.334   1.747  0.3904 -0.1178 -0.3076
   82MOL   C12321345   6.526   7.443   1.533  0.0532  0.0399  0.4485
   82MOL   H12421346   6.407   7.060   1.685 -3.5908 -2.9767  1.7207
   82MOL   H12521347   6.263   7.090   1.586  0.4969  0.4870  2.8555
   82MOL   H12621348   6.444   7.210   1.426 -1.6804  1.8046 -0.1279
   82MOL   H12721349   6.355   7.272   1.786  0.3654  0.6724  0.9170
   82MOL   H12821350   6.423   7.439   1.774 -1.4205 -0.1232 -1.0324
   82MOL   H12921351   6.532   7.311   1.792 -0.6130 -2.2650  0.8039
   82MOL   H13021352   6.573   7.406   1.442  1.1880 -0.8454  1.3719
   82MOL   H13121353   6.612   7.475   1.593  0.3729 -2.0739  1.1759
   82MOL   C13221354   6.432   7.556   1.499  0.1250  0.0776 -0.7091
   82MOL   C13321355   6.506   7.674   1.443 -0.0407  0.3911  0.6471
   82MOL   C13421356   6.552   7.784   1.506  0.1134 -0.8072 -0.1840
   82MOL   C13521357   6.551   7.789   1.654 -0.7550  0.6047 -0.1245
   82MOL   C13621358   6.619   0.019   1.445  0.4001 -0.0363 -0.3716
   82MOL   H13721359   6.372   7.602   1.578  2.6512  0.8176  0.8285
   82MOL   H13821360   6.354   7.521   1.432 -0.5037  1.1323 -0.5435
   82MOL   H13921361   6.531   7.670   1.339 -2.2769 -0.9303  0.1282
   82MOL   H14021362   6.530   7.694   1.704  0.4754 -0.6972 -2.0182
   82MOL   H14121363   6.475   7.860   1.687  0.8475  3.4944 -2.3420
   82MOL   H14221364   6.652   7.813   1.685 -0.7788 -1.5751  1.7191
   82MOL   H14321365   6.604   0.025   1.337  0.1555  0.3819 -0.3180
   82MOL   H14421366   6.725   0.024   1.469  0.1160 -1.9898  1.3891
   82MOL   C14521367   6.572   0.155   1.507  0.2918 -0.6971  0.8381
   82MOL   C14621368   6.424   0.187   1.482  0.2320 -0.1734 -0.3772
   82MOL   C14721369   6.322   0.231   1.561  0.1416  0.1775  0.3477
   82MOL   C14821370   6.348   0.266   1.702 -0.1213  0.2774 -0.5150
   82MOL   C14921371   6.176   0.265   1.507  0.0417 -0.5525  0.2772
   82MOL   H15021372   6.619   0.239   1.457  1.1145 -2.2070 -0.9881
   82MOL   H15121373   6.589   0.171   1.614  0.0177 -1.7328  1.0428
   82MOL   H15221374   6.406   0.174   1.376  4.0293 -0.9897 -1.0116
   82MOL   H15321375   6.262   0.228   1.757  0.6116 -0.4439  0.1547
   82MOL   H15421376   6.351   0.374   1.704  0.0563  0.2924 -1.2719
   82MOL   H15521377   6.441   0.235   1.751 -1.5798 -0.5769  1.7836
   82MOL   H15621378   6.168   0.287   1.401 -0.1681 -0.6116  0.2804
   82MOL   H15721379   6.154   0.359   1.559  2.6605  0.7000 -0.8016
   82MOL   C15821380   6.064   0.176   1.556  0.3406  0.0979 -0.1488
   82MOL   C15921381   6.059   0.044   1.481 -0.2468  0.2551 -0.1994
   82MOL   C16021382   6.070   7.797   1.529 -0.7074  0.3465  0.4723
   82MOL   C16121383   6.113   7.769   1.672  0.4235  0.9998 -0.8846
   82MOL   C16221384   6.072   7.677   1.438  0.5179 -0.1494 -0.0084
   82MOL   H16321385   5.972   0.223   1.523  0.0708  0.5301  1.1738
   82MOL   H16421386   6.051   0.168   1.664  2.0079 -0.9121 -0.0074
   82MOL   H16521387   6.033   0.061   1.377  0.5319  2.6580 -0.0311
   82MOL   H16621388   6.180   7.684   1.670  2.3828  2.3856  1.8650
   82MOL   H16721389   6.027   7.748   1.736  1.4654 -1.0967 -0.1275
   82MOL   H16821390   6.172   7.855   1.703  3.4094 -0.9363 -1.0733
   82MOL   H16921391   6.177   7.653   1.419  0.3250 -1.7383  0.8413
   82MOL   H17021392   6.030   7.701   1.340 -2.2676 -3.9514  0.1299
   82MOL   C17121393   5.984   7.561   1.481  0.5187 -0.0352 -0.2947
   82MOL   C17221394   5.994   7.444   1.391 -0.0759 -0.1756 -0.3791
   82MOL   C17321395   6.017   7.319   1.435 -0.2575 -0.2569 -0.4227
   82MOL   C17421396   6.042   7.275   1.580 -0.4074  0.1078 -0.3366
   82MOL   C17521397   5.998   7.202   1.333  0.6541 -0.0956 -0.4412
   82MOL   H17621398   5.882   7.600   1.474  0.4157  0.0579  1.4676
   82MOL   H17721399   5.996   7.538   1.587  0.6439  3.3260  0.4925
   82MOL   H17821400   5.957   7.456   1.290 -0.5128 -0.1021 -0.2134
   82MOL   H17921401   6.126   7.324   1.630 -0.8423 -0.4010  0.8915
   82MOL   H18021402   6.064   7.170   1.596  0.3795  0.3250  0.0079
   82MOL   H18121403   5.949   7.286   1.636 -0.9698  2.6070 -1.6590
   82MOL   H18221404   5.946   7.229   1.241 -0.3900  2.1452  0.7569
   82MOL   H18321405   5.932   7.128   1.377 -0.4530  0.6801 -0.7769
   82MOL   C18421406   6.126   7.134   1.285  0.1038 -0.0720 -0.2447
   82MOL   C18521407   6.103   7.017   1.196  0.3693  0.5555 -0.0185
   82MOL   C18621408   6.174   6.966   1.088 -0.6964  0.1842  0.4456
   82MOL   C18721409   6.318   7.012   1.056  0.1804  0.5416  0.5560
   82MOL   C18821410   6.117   6.851   1.011  0.0875  0.0359 -0.3640
   82MOL   H18921411   6.188   7.110   1.371  0.4956 -0.9929 -0.7769
   82MOL   H19021412   6.190   7.206   1.236 -0.4760  0.6253  0.0093
   82MOL   H19121413   6.011   6.963   1.211 -1.3708  2.8025 -2.1350
   82MOL   H19221414   6.365   6.927   1.103 -0.2599 -0.9589 -1.6209
   82MOL   H19321415   6.346   7.110   1.094 -2.0406  1.3784  0.1712
   82MOL   H19421416   6.333   7.029   0.949  0.7536  3.4195  1.0417
   82MOL   H19521417   6.121   6.886   0.908  2.5254 -2.1421 -1.0615
   82MOL   H19621418   6.012   6.831   1.034  0.8138  0.1722  3.3781
   82MOL   C19721419   6.201   6.729   1.026  0.1366  0.6089 -0.2762
   82MOL   C19821420   6.119   6.592   1.014 -0.4902 -0.1883 -0.5138
   82MOL   C19921421   6.162   6.470   0.990  0.2909  0.0696  0.2834
   82MOL   C20021422   6.306   6.442   0.957 -0.1743 -0.7935 -0.1997
   82MOL   C20121423   6.068   6.344   0.976  0.1975 -0.9120  0.0898
   82MOL   H20221424   6.252   6.742   1.121  0.0865  1.2982 -0.3402
   82MOL   H20321425   6.287   6.721   0.959  1.4995 -0.1027  1.4992
   82MOL   H20421426   6.012   6.604   1.022 -0.3264  1.5317 -0.7196
   82MOL   H20521427   6.322   6.337   0.934 -0.6199 -0.8313 -0.3363
   82MOL   H20621428   6.370   6.462   1.042  0.1796 -0.1387 -0.6087
   82MOL   H20721429   6.346   6.503   0.876  1.4415 -0.6092  0.7249
   82MOL   H20821430   5.971   6.364   1.021 -0.0528  0.8657 -1.2038
   82MOL   H20921431   6.114   6.262   1.030  1.7434  0.7714  1.4160
   82MOL   C21021432   6.026   6.299   0.836  0.4310 -0.9355  0.1494
   82MOL   C21121433   5.960   6.165   0.836  0.0551 -0.4524  0.4622
   82MOL   C21221434   5.832   6.122   0.851 -0.6216  0.3439  0.5581
   82MOL   C21321435   5.711   6.214   0.844  0.3450  0.6623  0.4763
   82MOL   C21421436   5.796   5.974   0.829 -0.3422 -0.0968 -0.0411
   82MOL   H21521437   6.115   6.283   0.776  0.5183  0.4873 -0.1145
   82MOL   H21621438   5.961   6.363   0.776 -0.1400  0.0441  1.7684
   82MOL   H21721439   6.029   6.083   0.830 -1.2075 -1.5503  0.7150
   82MOL   H21821440   5.628   6.175   0.903  2.3306 -1.3376  2.0883
   82MOL   H21921441   5.687   6.215   0.738  1.3458 -0.1537  0.2322
   82MOL   H22021442   5.735   6.316   0.874 -0.4808  0.9888  0.0359
   82MOL   H22121443   5.697   5.951   0.869  0.4851 -2.4533  0.7750
   82MOL   H22221444   5.868   5.914   0.884 -1.4530  0.3656  1.9693
   82MOL   C22321445   5.819   5.948   0.678  1.0141 -0.3260  0.2246
   82MOL   C22421446   5.823   5.803   0.642  0.3772  0.5515  0.1658
   82MOL   C22521447   5.729   5.739   0.568  0.0066 -0.0589 -0.0226
   82MOL   C22621448   5.589   5.795   0.545  0.1235 -0.0401  0.3051
   82MOL   C22721449   5.755   5.599   0.502 -0.1809 -0.2462 -0.3973
   82MOL   H22821450   5.917   5.985   0.648 -0.4937  1.7931 -2.2656
   82MOL   H22921451   5.738   5.998   0.626  0.7130  0.5693  1.5359
   82MOL   H23021452   5.914   5.755   0.673 -0.1469 -0.3274  0.3740
   82MOL   H23121453   5.518   5.713   0.543  0.1521 -0.0248 -3.2824
   82MOL   H23221454   5.572   5.835   0.446 -3.4236 -3.3407 -0.5300
   82MOL   H23321455   5.552   5.866   0.620 -0.1256 -1.3934  1.4892
   82MOL   H23421456   5.703   5.600   0.406 -0.1527 -0.5741 -0.4186
   82MOL   H23521457   5.699   5.527   0.563  1.1995 -0.9997 -0.0153
   82MOL   C23621458   5.906   5.562   0.484  0.4075  0.4249  0.0249
   82MOL   C23721459   5.925   5.428   0.426 -0.1283  0.3642 -0.5678
   82MOL   C23821460   6.005   5.391   0.325 -0.3790 -0.4239  1.0509
   82MOL   C23921461   6.075   5.493   0.233  0.2243  0.1439  0.1326
   82MOL   C24021462   6.042   5.248   0.309  0.4300 -0.4939 -0.3060
   82MOL   H24121463   5.962   5.553   0.577 -0.8508 -1.6299  0.6376
   82MOL   H24221464   5.957   5.640   0.427  3.1715 -2.5058 -1.6674
   82MOL   H24321465   5.881   5.354   0.491 -1.0985  0.5894 -0.9652
   82MOL   H24421466   6.042   5.474   0.131  1.2383  0.8795 -0.3428
   82MOL   H24521467   6.183   5.482   0.242  0.5295  2.6362 -0.1692
   82MOL   H24621468   6.052   5.597   0.254 -1.3813  0.3812 -2.5093
   82MOL   H24721469   6.026   5.204   0.408 -1.7207 -2.9530 -1.6713
   82MOL   H24821470   6.147   5.241   0.281  0.1358  3.8269 -2.8104
   82MOL   C24921471   5.962   5.176   0.207  0.4103  0.4345 -0.0245
   82MOL   C25021472   5.977   5.022   0.209 -0.1810  0.3295 -0.2894
   82MOL   C25121473   5.874   4.934   0.190  0.0264 -0.1625  0.3147
   82MOL   C25221474   5.734   4.970   0.146  0.1850  0.1672  0.0556
   82MOL   C25321475   5.912   4.789   0.197  0.5824  0.5209 -0.2002
   82MOL   H25421476   5.998   5.206   0.109 -1.6028  0.8578 -0.6634
   82MOL   H25521477   5.856   5.202   0.218  0.6255  0.5464  1.8428
   82MOL   H25621478   6.076   4.980   0.215 -0.9708 -1.6774 -1.0600
   82MOL   H25721479   5.646   4.913   0.177 -0.7627  1.4334 -0.2498
   82MOL   H25821480   5.719   4.977   0.038 -0.9727 -1.5464  0.0837
   82MOL   H25921481   5.719   5.069   0.188 -0.4307  0.0908  0.0238
   82MOL   H26021482   5.947   4.743   0.105  2.3655 -0.3518  0.8902
   82MOL   H26121483   5.822   4.728   0.208 -0.1312  1.3424 -1.3934
   82MOL   H26221484   5.982   4.767   0.277  1.3006  1.3924 -0.5879
   83MOL     C121485   3.262   2.645   1.009 -0.3161 -0.1892  0.2316
   83MOL     C221486   3.376   2.582   0.931 -0.3764  0.1299 -0.0693
   83MOL     C321487   3.506   2.626   0.917  0.4663 -0.3394  0.3726
   83MOL     C421488   3.563   2.748   0.980 -0.7124 -0.2982 -0.6613
   83MOL     C521489   3.611   2.549   0.831 -0.3266 -0.2292 -0.2087
   83MOL     H621490   3.236   2.585   1.096  1.9464  1.0910  1.8145
   83MOL     H721491   3.289   2.742   1.048 -1.2173 -0.9993  2.9686
   83MOL     H821492   3.339   2.497   0.875  2.5688  0.9757 -3.5285
   83MOL     H921493   3.658   2.728   1.029 -2.2368  0.3391  2.6891
   83MOL    H1021494   3.502   2.787   1.061  1.3471 -1.8274  1.6696
   83MOL    H1121495   3.580   2.831   0.911 -0.9787  0.3413  0.0345
   83MOL    H1221496   3.571   2.455   0.791  0.5371  0.0570 -1.7998
   83MOL    H1321497   3.689   2.509   0.895 -0.6845 -1.2732 -0.3978
   83MOL    H1421498   3.166   2.662   0.959  0.3917  2.2888 -0.3462
   83MOL    C1521499   3.678   2.641   0.722 -0.0506 -0.0610  0.4861
   83MOL    C1621500   3.742   2.570   0.606  0.4263  1.1778  0.0547
   83MOL    C1721501   3.868   2.531   0.587 -0.6208  0.2852 -0.2245
   83MOL    C1821502   3.968   2.547   0.699 -0.0548  0.0286  1.0699
   83MOL    C1921503   3.923   2.448   0.474 -0.2862 -0.3095 -0.5934
   83MOL    H2021504   3.748   2.715   0.762  1.3134  0.0776 -2.0146
   83MOL    H2121505   3.601   2.707   0.683  0.0310 -1.0827 -1.5174
   83MOL    H2221506   3.673   2.544   0.527 -0.4107  2.4006  0.3775
   83MOL    H2321507   3.917   2.579   0.790 -0.2235  1.2746  0.5400
   83MOL    H2421508   4.046   2.621   0.680 -0.7187  1.0234  2.1627
   83MOL    H2521509   4.021   2.453   0.720 -1.0887 -0.1905  2.7841
   83MOL    H2621510   3.842   2.394   0.426 -1.3053 -0.9931  1.8007
   83MOL    H2721511   3.974   2.363   0.520  0.0768  0.2890  0.1188
   83MOL    C2821512   4.020   2.525   0.376  1.0605 -0.8710  0.3799
   83MOL    C2921513   4.126   2.442   0.314  0.8499  0.3259 -0.0172
   83MOL    C3021514   4.250   2.432   0.352  0.4131 -0.3741 -0.3116
   83MOL    C3121515   4.310   2.498   0.469 -0.0108 -0.0897 -0.2391
   83MOL    C3221516   4.353   2.348   0.277 -0.5843 -0.2203  0.1423
   83MOL    H3321517   4.059   2.616   0.422  2.7224 -1.1394 -0.4609
   83MOL    H3421518   3.958   2.567   0.297 -1.4324  0.5232  2.9663
   83MOL    H3521519   4.090   2.380   0.233  0.5906  0.2696  0.1386
   83MOL    H3621520   4.326   2.601   0.439 -3.3026 -0.4581 -3.6510
   83MOL    H3721521   4.403   2.450   0.500  0.6327  0.8089 -0.7417
   83MOL    H3821522   4.250   2.498   0.560  1.7865 -0.4307  0.9739
   83MOL    H3921523   4.305   2.310   0.187 -0.2698  1.8210 -0.8987
   83MOL    H4021524   4.395   2.262   0.331  1.4009  0.8229  0.3101
   83MOL    C4121525   4.480   2.432   0.227 -0.1197  0.6551 -0.3000
   83MOL    C4221526   4.469   2.465   0.077 -0.9575  0.9027 -0.3040
   83MOL    C4321527   4.499   2.384   7.854 -0.0278 -1.5089 -0.4567
   83MOL    C4421528   4.543   2.240   0.003 -0.0032 -0.3828 -0.2301
   83MOL    C4521529   4.479   2.418   7.704  0.3165 -0.0397 -0.3273
   83MOL    H4621530   4.569   2.369   0.238  0.5207  1.7989  1.1759
   83MOL    H4721531   4.502   2.527   0.276 -1.5628  1.5957 -1.4277
   83MOL    H4821532   4.440   2.567   0.056  1.5718  1.8554  0.6851
   83MOL    H4921533   4.631   2.207   7.831  0.7171 -0.9051  1.2263
   83MOL    H5021534   4.457   2.184   7.850  0.0109  0.7721 -2.1567
   83MOL    H5121535   4.560   2.216   0.108  2.7133 -0.7946 -0.7325
   83MOL    H5221536   4.387   2.370   7.670 -0.3720 -2.0901  4.0426
   83MOL    H5321537   4.549   2.368   7.638  1.5121  1.5844 -0.3311
   83MOL    C5421538   4.453   2.568   7.665 -0.2602 -1.0122  0.1138
   83MOL    C5521539   4.593   2.634   7.651  0.2833 -0.2654 -0.0677
   83MOL    C5621540   4.628   2.748   7.714 -0.6531 -0.0629 -0.1034
   83MOL    C5721541   4.539   2.825   7.807 -0.3551 -0.3537  0.3357
   83MOL    C5821542   4.770   2.809   7.696  0.6525 -0.0275 -0.2569
   83MOL    H5921543   4.382   2.602   7.741  0.3448  1.3134 -0.3299
   83MOL    H6021544   4.403   2.576   7.568 -0.1314  1.4968  0.2359
   83MOL    H6121545   4.658   2.587   7.578  0.5071  0.7499 -0.5303
   83MOL    H6221546   4.571   2.825   0.029  1.0462  2.5488 -0.0725
   83MOL    H6321547   4.432   2.805   7.803 -0.6056  0.9508  0.3500
   83MOL    H6421548   4.533   2.927   7.771  0.6801 -0.7257 -0.9350
   83MOL    H6521549   4.827   2.762   7.776  0.3713 -0.7009 -0.4531
   83MOL    H6621550   4.768   2.911   7.734  1.7277 -0.2704  0.4801
   83MOL    C6721551   4.831   2.798   7.560 -0.3082 -0.3185 -0.8122
   83MOL    C6821552   4.966   2.871   7.568 -0.9075 -0.1655 -0.1380
   83MOL    C6921553   5.035   2.918   7.464 -0.7323  0.2555  0.2226
   83MOL    C7021554   4.996   2.886   7.321 -0.3173 -0.4493 -0.5195
   83MOL    C7121555   5.156   3.005   7.492 -0.1236  0.0368 -0.3556
   83MOL    H7221556   4.774   2.858   7.489 -0.5181  0.0723 -0.3110
   83MOL    H7321557   4.842   2.694   7.527  0.6176 -1.2045  2.1549
   83MOL    H7421558   4.994   2.886   7.671 -0.3360  1.8100 -0.5750
   83MOL    H7521559   4.957   2.785   7.309  0.7180 -1.2859  2.6939
   83MOL    H7621560   5.080   2.896   7.251 -0.2861 -3.1249 -0.8937
   83MOL    H7721561   4.928   2.960   7.277  1.9715  0.7897 -2.0962
   83MOL    H7821562   5.175   3.000   7.599  0.8594 -1.9902 -0.5925
   83MOL    H7921563   5.141   3.105   7.452  1.6872  1.0183  1.3702
   83MOL    C8021564   5.294   2.969   7.431  0.1404 -0.0922  0.2644
   83MOL    C8121565   5.410   3.048   7.490  0.2184 -0.0224  0.2734
   83MOL    C8221566   5.547   3.026   7.469  1.4773 -0.1886 -0.1115
   83MOL    C8321567   5.600   2.917   7.374 -0.0766 -0.3934 -0.4492
   83MOL    C8421568   5.645   3.122   7.541 -0.4361 -0.1516  0.4224
   83MOL    H8521569   5.292   2.991   7.324 -0.7435 -1.7029 -0.0607
   83MOL    H8621570   5.319   2.865   7.450 -0.0946 -1.0961 -4.2796
   83MOL    H8721571   5.382   3.133   7.551 -0.2855 -2.4997  3.5827
   83MOL    H8821572   5.663   2.843   7.423 -0.3280 -2.2777 -2.8713
   83MOL    H8921573   5.668   2.963   7.302 -0.1278 -2.4271 -1.8342
   83MOL    H9021574   5.517   2.870   7.322 -2.3552  1.6462  1.2476
   83MOL    H9121575   5.591   3.193   7.604 -1.5687  0.5837 -1.3175
   83MOL    H9221576   5.687   3.188   7.465 -0.7353 -1.0658 -0.5532
   83MOL    C9321577   5.755   3.041   7.621 -0.2489  0.3339 -0.8924
   83MOL    C9421578   5.696   2.964   7.742 -0.7270 -0.4219 -0.4581
   83MOL    C9521579   5.772   2.925   7.849  0.1539  0.4861 -0.0648
   83MOL    C9621580   5.926   2.947   7.850  0.3050  0.0624  0.4561
   83MOL    C9721581   5.710   2.871   0.095 -0.0089  0.1740 -0.2707
   83MOL    H9821582   5.827   3.120   7.643 -0.0243  0.6250 -2.5328
   83MOL    H9921583   5.813   2.971   7.560  0.8371  1.4659 -1.2065
   83MOL   H10021584   5.588   2.964   7.752 -0.4693  0.4337  2.8077
   83MOL   H10121585   5.957   2.943   0.072  3.2030  3.9635 -0.1396
   83MOL   H10221586   5.960   3.036   7.798 -2.6360  0.4284 -0.9401
   83MOL   H10321587   5.964   2.861   7.794 -2.8207 -0.2117 -1.3080
   83MOL   H10421588   5.775   2.914   0.170 -1.5164  2.4104 -0.2101
   83MOL   H10521589   5.720   2.762   0.089 -1.3786  0.1029 -1.6351
   83MOL   C10621590   5.561   2.897   0.137  0.0239  0.3483  0.7717
   83MOL   C10721591   5.523   2.826   0.265 -0.3113 -0.6028  0.2748
   83MOL   C10821592   5.447   2.873   0.362 -1.2260 -0.2459 -0.3356
   83MOL   C10921593   5.393   3.013   0.363 -0.1698  0.5585  0.3669
   83MOL   C11021594   5.415   2.791   0.485  0.7639  0.2118 -0.1470
   83MOL   H11121595   5.488   2.855   0.068  0.4496  1.4868 -0.3853
   83MOL   H11221596   5.540   3.004   0.138 -0.9200  0.1768  0.0842
   83MOL   H11321597   5.550   2.722   0.276 -1.1851 -0.7163  1.4775
   83MOL   H11421598   5.341   3.048   0.274 -3.5027  0.5521  2.2409
   83MOL   H11521599   5.475   3.082   0.386  0.9115 -0.8387  0.8158
   83MOL   H11621600   5.316   3.035   0.437  0.7112 -0.7519  1.7067
   83MOL   H11721601   5.454   2.844   0.572 -2.0988 -1.8914  2.5722
   83MOL   H11821602   5.481   2.704   0.472  1.5834  0.7524  0.3213
   83MOL   C11921603   5.271   2.761   0.517  0.0100  0.3153  0.1923
   83MOL   C12021604   5.267   2.681   0.640  0.0559 -0.1148 -0.1551
   83MOL   C12121605   5.219   2.554   0.647 -0.2951  0.0290  0.4239
   83MOL   C12221606   5.167   2.470   0.540  0.4573 -0.7156  0.1766
   83MOL   C12321607   5.180   2.504   0.786  0.2403 -0.5195 -0.3699
   83MOL   H12421608   5.230   2.721   0.425  0.8020  0.0550 -0.0553
   83MOL   H12521609   5.211   2.846   0.551 -2.0108 -0.9345 -0.2183
   83MOL   H12621610   5.299   2.736   0.728 -0.2162  0.9317 -0.7019
   83MOL   H12721611   5.190   2.363   0.540 -1.8176 -1.2391  1.0174
   83MOL   H12821612   5.192   2.501   0.438  1.0172  0.1477  0.5693
   83MOL   H12921613   5.058   2.471   0.548  0.3711 -3.5927  0.1077
   83MOL   H13021614   5.071   2.507   0.794  0.3636  1.7316  0.8609
   83MOL   H13121615   5.223   2.572   0.858 -1.4073 -2.9227  3.0353
   83MOL   C13221616   5.228   2.359   0.811  0.2564 -0.4217  0.6539
   83MOL   C13321617   5.197   2.307   0.950  0.2226 -0.0661 -0.7231
   83MOL   C13421618   5.119   2.200   0.991 -0.0157 -0.8502 -0.0659
   83MOL   C13521619   5.048   2.108   0.896 -0.4323 -0.4400  0.1216
   83MOL   C13621620   5.083   2.173   1.137  0.0940  0.3764  0.1423
   83MOL   H13721621   5.335   2.348   0.792  0.2799  2.3076 -1.1565
   83MOL   H13821622   5.182   2.297   0.735  0.0294 -1.3476  1.5427
   83MOL   H13921623   5.245   2.359   1.032 -1.2659 -2.6481  1.8760
   83MOL   H14021624   5.092   2.096   0.797 -2.2549  2.3730 -1.0799
   83MOL   H14121625   4.949   2.150   0.877 -0.0420  1.1589  1.4971
   83MOL   H14221626   5.029   2.008   0.937 -0.9446 -0.8071 -0.9857
   83MOL   H14321627   4.975   2.163   1.143 -0.1559  3.1741  0.9767
   83MOL   H14421628   5.092   2.263   1.199 -0.0764 -0.8325  1.9741
   83MOL   C14521629   5.160   2.054   1.201  0.1855  0.4262 -0.1364
   83MOL   C14621630   5.305   2.091   1.229  0.5114 -0.5470 -0.1835
   83MOL   C14721631   5.344   2.169   1.328 -0.8512 -0.0085 -0.3139
   83MOL   C14821632   5.252   2.233   1.433 -0.1694  0.6735 -0.0510
   83MOL   C14921633   5.493   2.208   1.343  0.1442 -0.4315 -0.4793
   83MOL   H15021634   5.150   1.966   1.137  0.6646  0.7752 -0.6825
   83MOL   H15121635   5.110   2.035   1.297 -0.5191  1.7312 -0.2385
   83MOL   H15221636   5.376   2.049   1.159  1.1329  1.4089 -0.7605
   83MOL   H15321637   5.259   2.342   1.427 -1.4870  0.7372 -0.6299
   83MOL   H15421638   5.281   2.203   1.533  1.3650  0.4573 -0.5433
   83MOL   H15521639   5.148   2.209   1.410 -0.4149  0.0770  1.6540
   83MOL   H15621640   5.506   2.304   1.393  0.9107 -0.1062 -1.2906
   83MOL   H15721641   5.540   2.212   1.245  0.0126  1.6558 -0.4712
   83MOL   C15821642   5.566   2.101   1.421  0.1386  0.9748  0.3564
   83MOL   C15921643   5.712   2.132   1.434 -0.5605 -0.1898 -0.1108
   83MOL   C16021644   5.799   2.117   1.539  1.1270 -0.3219  0.1739
   83MOL   C16121645   5.757   2.038   1.659  0.1742 -0.1832  0.0160
   83MOL   C16221646   5.928   2.193   1.562  0.6244  0.1837  0.1760
   83MOL   H16321647   5.563   2.010   1.361  2.0508  0.2495  1.3212
   83MOL   H16421648   5.531   2.073   1.520 -0.8897 -1.8418 -0.7505
   83MOL   H16521649   5.749   2.189   1.351 -0.8010 -0.8427 -0.6760
   83MOL   H16621650   5.844   1.973   1.668  0.0289 -0.1997  1.4236
   83MOL   H16721651   5.674   1.968   1.646  0.3601 -0.6819  1.4044
   83MOL   H16821652   5.752   2.097   1.751  0.1300  0.4512 -0.3929
   83MOL   H16921653   5.934   2.220   1.668 -1.3057 -0.3333  0.4538
   83MOL   H17021654   5.936   2.279   1.497  0.4352 -0.9048 -1.3226
   83MOL   C17121655   6.049   2.104   1.517 -0.7842 -0.1733  0.1416
   83MOL   C17221656   6.170   2.186   1.473  0.4542  0.3246 -0.6490
   83MOL   C17321657   6.249   2.172   1.362 -0.2455 -0.4493 -0.7980
   83MOL   C17421658   6.221   2.076   1.255  0.5030 -0.0972 -0.4724
   83MOL   C17521659   6.374   2.251   1.346 -0.0711 -0.2438 -1.2692
   83MOL   H17621660   6.024   2.045   1.428  0.3604  2.0320 -1.6925
   83MOL   H17721661   6.075   2.027   1.590 -1.1806 -0.0504  0.4136
   83MOL   H17821662   6.200   2.264   1.541  1.3027 -0.9826  0.5094
   83MOL   H17921663   6.185   2.139   1.173 -2.2867 -2.3544 -1.0559
   83MOL   H18021664   6.148   1.999   1.279  2.4359 -1.4310  1.2328
   83MOL   H18121665   6.313   2.023   1.230  0.1609 -1.3787  0.9147
   83MOL   H18221666   6.457   2.182   1.349  0.6377  0.6630  1.0578
   83MOL   H18321667   6.395   2.316   1.431 -0.2151 -0.3905 -1.1210
   83MOL   C18421668   6.376   2.334   1.221  0.0907 -0.4108 -0.1721
   83MOL   C18521669   6.505   2.407   1.192 -0.1293  0.7899  0.1202
   83MOL   C18621670   6.613   2.370   1.118  1.1163 -0.2629  0.2779
   83MOL   C18721671   6.622   2.235   1.043  0.9919 -0.0278 -0.3829
   83MOL   C18821672   6.746   2.450   1.113 -0.0134 -0.0495 -0.9086
   83MOL   H18921673   6.298   2.410   1.223 -2.4788 -2.9161 -0.8001
   83MOL   H19021674   6.351   2.276   1.131  2.3329  1.1205 -1.8298
   83MOL   H19121675   6.511   2.494   1.256 -1.2383  2.8327 -2.4597
   83MOL   H19221676   6.641   2.242   0.936  0.1133  0.1097 -0.5310
   83MOL   H19321677   6.531   2.177   1.060  0.9610  0.0636 -0.2350
   83MOL   H19421678   6.706   2.177   1.082  0.3345 -0.1819  0.8228
   83MOL   H19521679   6.838   2.392   1.124 -1.3914 -2.0814  0.2291
   83MOL   H19621680   6.740   2.516   1.199 -0.8604 -2.9559  1.3157
   83MOL   C19721681   6.765   2.544   0.993 -0.0398  0.1278 -0.4031
   83MOL   C19821682   6.873   2.655   1.007  0.0572 -0.0753  0.4915
   83MOL   C19921683   6.997   2.653   0.960  1.3353 -0.4511 -0.6033
   83MOL   C20021684   7.065   2.533   0.897  0.2152 -0.6962  0.1543
   83MOL   C20121685   7.088   2.773   0.974 -0.3266 -0.9343  0.1757
   83MOL   H20221686   6.675   2.604   0.981  0.3073  0.5732 -0.7895
   83MOL   H20321687   6.776   2.487   0.901  0.0653  1.0537 -0.9687
   83MOL   H20421688   6.826   2.732   1.067  0.1258 -0.0697  0.5384
   83MOL   H20521689   6.996   2.456   0.861 -0.4441 -0.0107 -0.0805
   83MOL   H20621690   7.133   2.491   0.972  0.4193 -1.9159 -0.6941
   83MOL   H20721691   7.126   2.556   0.810 -0.9075 -1.7887 -0.9594
   83MOL   H20821692   7.191   2.757   1.008 -0.6657 -1.0163  1.1702
   83MOL   H20921693   7.043   2.825   1.058 -1.5007 -1.0164 -0.3928
   83MOL   C21021694   7.093   2.865   0.852  0.0225  0.7469 -0.0053
   83MOL   C21121695   7.188   2.980   0.882  0.5840  0.0131  0.7613
   83MOL   C21221696   7.321   2.986   0.855 -0.2909 -0.9424 -0.6160
   83MOL   C21321697   7.386   2.874   0.782  0.7182 -0.1907 -0.0806
   83MOL   C21421698   7.411   3.101   0.897 -0.1212 -0.2189  0.1275
   83MOL   H21521699   6.993   2.907   0.838 -0.1568 -0.2264 -1.6854
   83MOL   H21621700   7.120   2.811   0.762 -2.3207  1.1838 -1.0043
   83MOL   H21721701   7.154   3.067   0.936  0.7338  0.2902  0.4141
   83MOL   H21821702   7.383   2.883   0.673  0.3480  1.6997  0.0660
   83MOL   H21921703   7.335   2.778   0.796 -0.0235  0.3299  0.8428
   83MOL   H22021704   7.491   2.868   0.810  1.0307  0.6063 -1.0690
   83MOL   H22121705   7.340   3.179   0.924 -2.7909 -2.0367 -1.3746
   83MOL   H22221706   7.480   3.126   0.816 -0.4155 -2.3684 -0.8355
   83MOL   C22321707   7.490   3.062   1.027  0.3339 -0.2847 -0.5980
   83MOL   C22421708   7.563   3.188   1.074 -0.0451 -0.2471 -0.3201
   83MOL   C22521709   7.567   3.231   1.198 -0.0301 -0.3915  0.1392
   83MOL   C22621710   7.488   3.172   1.317 -0.1400 -0.0855 -0.5166
   83MOL   C22721711   7.655   3.360   1.227  0.5136  0.9154 -0.0543
   83MOL   H22821712   7.574   3.003   0.990  3.5788  3.9327 -0.2885
   83MOL   H22921713   7.424   3.014   1.100 -0.6627  2.7507  0.5839
   83MOL   H23021714   7.631   3.232   1.003  2.0638 -1.7214  0.7019
   83MOL   H23121715   7.550   3.177   1.406 -0.6764 -0.6832 -0.1088
   83MOL   H23221716   7.453   3.069   1.306  0.9901 -0.4736 -0.5961
   83MOL   H23321717   7.394   3.218   1.346 -0.1751 -0.4265 -0.0852
   83MOL   H23421718   7.586   3.440   1.254  1.4460  0.8588  2.6396
   83MOL   H23521719   7.694   3.400   1.134 -0.1198  0.8547 -0.3485
   83MOL   C23621720   7.763   3.346   1.333  0.2203  0.9002  0.6264
   83MOL   C23721721   7.839   3.470   1.350 -0.7061  0.6263 -0.0191
   83MOL   C23821722   0.037   3.493   1.453 -0.5601 -0.3174 -0.7525
   83MOL   C23921723   0.045   3.403   1.577 -0.3240  1.0286 -0.6573
   83MOL   C24021724   0.126   3.616   1.459 -0.7465  0.4639  0.2048
   83MOL   H24121725   7.839   3.272   1.309 -1.2016  0.0962 -1.4927
   83MOL   H24221726   7.716   3.294   1.417  0.4827  0.2237  0.3511
   83MOL   H24321727   7.850   3.537   1.266 -1.1836  1.0203  0.2363
   83MOL   H24421728   0.031   3.298   1.549 -0.1873  0.5270  1.0366
   83MOL   H24521729   7.846   3.427   1.646 -1.2975 -0.7546 -1.1492
   83MOL   H24621730   0.141   3.409   1.627 -0.4810  1.3571 -0.3923
   83MOL   H24721731   0.127   3.660   1.559 -1.9565 -4.1200  2.4007
   83MOL   H24821732   0.102   3.689   1.383  3.2591  0.5969 -1.0409
   83MOL   C24921733   0.275   3.575   1.431  0.0082  0.0127  0.9373
   83MOL   C25021734   0.349   3.701   1.387  0.4551 -0.1998 -0.3702
   83MOL   C25121735   0.397   3.740   1.269  0.1678  0.1663 -0.0750
   83MOL   C25221736   0.379   3.658   1.147 -0.0509 -0.1084  0.9681
   83MOL   C25321737   0.474   3.867   1.248 -0.2066 -0.1597 -0.0623
   83MOL   H25421738   0.272   3.505   1.347  2.3317 -0.5103  1.2590
   83MOL   H25521739   0.325   3.530   1.516  0.0514 -2.0004 -0.1144
   83MOL   H25621740   0.377   3.765   1.469  0.7311  0.8672 -1.2738
   83MOL   H25721741   0.477   3.630   1.109  0.4616 -2.0762  3.6123
   83MOL   H25821742   0.318   3.707   1.070 -0.2470  2.3388  2.6315
   83MOL   H25921743   0.353   3.554   1.162  0.8944 -0.9960 -2.9341
   83MOL   H26021744   0.434   3.947   1.309  3.5924  0.5307  1.6466
   83MOL   H26121745   0.471   3.900   1.144  1.9352 -0.1815 -0.1388
   83MOL   H26221746   0.581   3.862   1.268 -0.0797  0.8696 -0.4399
   84MOL     C121747   4.950   1.095   6.760  0.3136 -0.3993  0.1988
   84MOL     C221748   4.966   1.150   6.903  0.0514  0.3572 -0.1900
   84MOL     C321749   5.008   1.269   6.950 -0.7042  0.7380 -0.6301
   84MOL     C421750   5.054   1.391   6.865  0.0991 -0.4302  0.4558
   84MOL     C521751   5.017   1.292   7.099  0.7830 -0.1605  0.2216
   84MOL     H621752   4.996   1.153   6.680 -1.4832 -0.1924 -0.7030
   84MOL     H721753   5.003   1.000   6.752 -0.1819 -0.5442 -1.8012
   84MOL     H821754   4.941   1.076   6.978 -1.2705  1.9564  0.9946
   84MOL     H921755   5.028   1.378   6.760  2.5593 -0.1963 -0.2050
   84MOL    H1021756   5.160   1.414   6.874 -0.2119  1.7768 -1.0499
   84MOL    H1121757   4.997   1.477   6.903  0.9345  0.6689 -0.7498
   84MOL    H1221758   5.025   1.194   7.145 -0.8336 -0.1065  0.6372
   84MOL    H1321759   4.929   1.344   7.136 -1.2539 -1.1650 -3.0170
   84MOL    H1421760   4.848   1.066   6.733 -0.0756  0.1867  1.0483
   84MOL    C1521761   5.148   1.368   7.150  0.2709 -0.0476 -0.1696
   84MOL    C1621762   5.148   1.356   7.301 -0.0341 -0.0991 -0.6023
   84MOL    C1721763   5.256   1.317   7.371 -0.3348 -0.4357  0.8533
   84MOL    C1821764   5.386   1.280   7.297  0.5179 -0.1109 -0.8082
   84MOL    C1921765   5.259   1.307   7.523 -0.2041  0.3135 -0.2074
   84MOL    H2021766   5.149   1.472   7.118 -1.5739 -0.4021 -1.5202
   84MOL    H2121767   5.242   1.333   7.107  0.7754 -1.0588  1.7128
   84MOL    H2221768   5.062   1.384   7.360  0.8356  0.5197  0.3923
   84MOL    H2321769   5.435   1.368   7.256 -0.3449  0.8632  0.1959
   84MOL    H2421770   5.374   1.209   7.215  0.3456  1.3009 -2.0136
   84MOL    H2521771   5.457   1.233   7.366  0.4913  0.8619 -0.1117
   84MOL    H2621772   5.287   1.204   7.548 -1.4636  0.3094  1.2527
   84MOL    H2721773   5.164   1.323   7.575  0.4754 -0.9270  1.4738
   84MOL    C2821774   5.352   1.402   7.589  0.0793  0.1729 -0.4678
   84MOL    C2921775   5.335   1.397   7.741  0.8746  0.0249  0.7375
   84MOL    C3021776   5.411   1.336   7.833  0.4886  0.3745  0.5959
   84MOL    C3121777   5.535   1.253   7.795  0.6114  0.1422 -0.2308
   84MOL    C3221778   5.379   1.335   0.101 -0.3268  0.0167  0.6514
   84MOL    H3321779   5.333   1.501   7.546 -0.3094 -0.0553 -0.8208
   84MOL    H3421780   5.458   1.386   7.566  0.1379  0.7757 -0.6373
   84MOL    H3521781   5.247   1.452   7.768 -0.0837 -1.3634  0.4675
   84MOL    H3621782   5.522   1.152   7.836  0.5558 -0.1321 -0.9143
   84MOL    H3721783   5.620   1.295   7.848  0.4148  1.6287 -1.0772
   84MOL    H3821784   5.541   1.255   7.686 -1.9054 -0.4578 -0.4055
   84MOL    H3921785   5.472   1.369   0.147 -0.5169 -0.6151  1.5379
   84MOL    H4021786   5.359   1.230   0.127  0.3129  0.0686  1.3705
   84MOL    C4121787   5.269   1.430   0.147 -0.1267  0.5472  0.0481
   84MOL    C4221788   5.241   1.440   0.298  0.1947  0.9972  0.1675
   84MOL    C4321789   5.289   1.534   0.384 -0.2256 -0.3631 -0.0331
   84MOL    C4421790   5.357   1.659   0.339 -0.0804 -0.0904  0.2566
   84MOL    C4521791   5.276   1.521   0.536 -0.2865  0.0312  0.3335
   84MOL    H4621792   5.176   1.397   0.100 -1.0960  1.1563  1.5120
   84MOL    H4721793   5.298   1.528   0.108  0.7477 -0.1461 -1.0637
   84MOL    H4821794   5.192   1.357   0.346  2.1677 -0.5449 -0.4088
   84MOL    H4921795   5.456   1.671   0.384 -0.0119  5.1198 -1.0010
   84MOL    H5021796   5.293   1.741   0.369  0.6071  0.5823 -0.1057
   84MOL    H5121797   5.383   1.672   0.234 -1.4788 -1.0045 -0.2197
   84MOL    H5221798   5.171   1.508   0.561 -0.4030 -0.8785 -0.6017
   84MOL    H5321799   5.317   1.614   0.577 -0.9801  0.4048  0.1775
   84MOL    C5421800   5.347   1.395   0.591 -0.2904  0.4769 -0.5499
   84MOL    C5521801   5.495   1.404   0.608  0.4334 -0.1059  0.1932
   84MOL    C5621802   5.577   1.308   0.659 -0.2061 -0.0663  0.3538
   84MOL    C5721803   5.518   1.179   0.705 -0.0376  0.3357  0.2251
   84MOL    C5821804   5.727   1.311   0.683  0.3085 -0.2955  0.3920
   84MOL    H5921805   5.329   1.318   0.516 -1.4372 -1.2425  1.4467
   84MOL    H6021806   5.302   1.361   0.683 -0.0607  1.5552 -0.0275
   84MOL    H6121807   5.547   1.496   0.585  1.5487 -0.8661 -0.3738
   84MOL    H6221808   5.594   1.108   0.736  0.9544  0.7423 -1.2355
   84MOL    H6321809   5.466   1.123   0.628 -0.7290  1.6009 -0.2587
   84MOL    H6421810   5.440   1.195   0.780 -0.0848  2.5473 -0.2448
   84MOL    H6521811   5.775   1.235   0.623  1.1614 -0.7945  1.6897
   84MOL    H6621812   5.735   1.281   0.787  0.5008 -0.3515  0.3594
   84MOL    C6721813   5.785   1.457   0.676 -0.0438 -0.4430 -0.1265
   84MOL    C6821814   5.924   1.450   0.750  0.2517  0.0154  0.9076
   84MOL    C6921815   6.043   1.501   0.709  0.0021 -0.2959  0.2459
   84MOL    C7021816   6.070   1.566   0.575  0.3271  0.2443 -0.2234
   84MOL    C7121817   6.172   1.485   0.793 -0.4076  1.1603 -0.2885
   84MOL    H7221818   5.713   1.517   0.732  1.6518 -1.1086  2.8513
   84MOL    H7321819   5.786   1.488   0.572 -1.2292 -0.4618 -0.1512
   84MOL    H7421820   5.929   1.404   0.848  0.3602  1.7174  1.7315
   84MOL    H7521821   5.994   1.542   0.501  2.2687 -1.9511 -1.5869
   84MOL    H7621822   6.163   1.537   0.525  0.6125  0.2012  0.3348
   84MOL    H7721823   6.083   1.675   0.578  1.4411  0.1046  0.4359
   84MOL    H7821824   6.137   1.442   0.887  1.2837  1.1738  0.3603
   84MOL    H7921825   6.227   1.579   0.792  0.1986  0.8814  2.4289
   84MOL    C8021826   6.250   1.362   0.735 -0.0737 -0.5331 -0.2541
   84MOL    C8121827   6.374   1.338   0.811  0.1752  0.4885  0.1917
   84MOL    C8221828   6.410   1.243   0.905  0.2352 -0.1044 -0.0104
   84MOL    C8321829   6.316   1.132   0.942 -0.0187 -0.2710  0.0035
   84MOL    C8421830   6.546   1.236   0.972 -0.6481 -0.5319  0.4200
   84MOL    H8521831   6.277   1.374   0.630  1.3109 -1.8870 -0.0706
   84MOL    H8621832   6.180   1.279   0.746 -1.5699  0.7567  0.1791
   84MOL    H8721833   6.461   1.393   0.778 -0.2391  0.1910 -1.4018
   84MOL    H8821834   6.314   1.113   1.049  0.3990 -1.7507 -0.2331
   84MOL    H8921835   6.349   1.043   0.887  1.2630  1.6861 -2.5135
   84MOL    H9021836   6.212   1.148   0.914 -0.2187 -3.4404 -1.3019
   84MOL    H9121837   6.616   1.277   0.899 -2.6051  2.5547  0.1521
   84MOL    H9221838   6.580   1.133   0.975  0.6335 -0.1137  0.6252
   84MOL    C9321839   6.541   1.290   1.119 -0.1946  0.3588 -0.4093
   84MOL    C9421840   6.552   1.439   1.134  0.1334 -0.8546  0.9293
   84MOL    C9521841   6.574   1.506   1.258 -0.6089 -0.5222 -0.2588
   84MOL    C9621842   6.586   1.441   1.388  0.0777 -0.1507  1.0381
   84MOL    C9721843   6.578   1.658   1.263 -0.1723  0.3134 -0.4094
   84MOL    H9821844   6.627   1.240   1.164 -0.4045  1.0546  0.8128
   84MOL    H9921845   6.452   1.262   1.175  1.4546  1.3210  2.8297
   84MOL   H10021846   6.539   1.491   1.041  1.6376 -0.6959  0.7956
   84MOL   H10121847   6.689   1.454   1.423  0.3125 -1.0969  0.7170
   84MOL   H10221848   6.567   1.333   1.389  0.8597 -0.2953  1.2811
   84MOL   H10321849   6.509   1.490   1.446 -1.8755 -1.5748 -0.2914
   84MOL   H10421850   6.652   1.691   1.190  0.7883 -0.1264  0.3507
   84MOL   H10521851   6.621   1.698   1.355  0.5294  0.4385 -0.7906
   84MOL   C10621852   6.447   1.725   1.206 -0.8471  0.1482  0.1365
   84MOL   C10721853   6.327   1.718   1.301  0.1416 -0.1979 -0.8918
   84MOL   C10821854   6.209   1.656   1.283 -0.0861 -0.5315 -0.0070
   84MOL   C10921855   6.185   1.577   1.154 -0.6440  0.8407  0.4366
   84MOL   C11021856   6.097   1.654   1.380 -0.1803  0.7333 -0.0679
   84MOL   H11121857   6.429   1.687   1.106 -1.2697 -1.4462  0.7959
   84MOL   H11221858   6.475   1.830   1.197  0.6727 -0.3715 -1.5431
   84MOL   H11321859   6.341   1.775   1.392 -1.1400 -0.2417 -0.6487
   84MOL   H11421860   6.119   1.497   1.189 -0.7798  0.7828  0.0433
   84MOL   H11521861   6.275   1.531   1.113 -1.7850 -1.5195  0.5108
   84MOL   H11621862   6.124   1.640   1.090 -1.0816  0.3154  0.3376
   84MOL   H11721863   6.112   1.697   1.479 -0.6820 -1.6769  1.0941
   84MOL   H11821864   6.078   1.550   1.405 -0.5793  0.3265 -1.9416
   84MOL   C11921865   5.970   1.721   1.327 -0.4859  0.8256  0.2334
   84MOL   C12021866   5.861   1.736   1.434 -0.3761 -0.4114 -0.0114
   84MOL   C12121867   5.731   1.711   1.417  0.0312  0.1069 -0.0789
   84MOL   C12221868   5.670   1.668   1.285  0.6334 -0.0295 -0.3589
   84MOL   C12321869   5.632   1.711   1.536 -0.1861 -0.1732 -0.1596
   84MOL   H12421870   5.928   1.659   1.248 -1.1582  0.0571  1.1882
   84MOL   H12521871   5.989   1.818   1.279  0.0227  0.7105  0.1962
   84MOL   H12621872   5.898   1.745   1.535  0.2275 -2.0908 -0.0745
   84MOL   H12721873   5.571   1.711   1.267 -0.2082 -1.5013  0.5262
   84MOL   H12821874   5.637   1.564   1.294  1.0810 -0.2903 -1.6847
   84MOL   H12921875   5.733   1.685   1.198  1.2091 -0.8701 -0.1099
   84MOL   H13021876   5.546   1.776   1.524  0.2624  0.6042  0.7874
   84MOL   H13121877   5.695   1.746   1.617 -2.8041  1.3825  1.2502
   84MOL   C13221878   5.600   1.566   1.570  1.1015  0.6011 -0.0170
   84MOL   C13321879   5.548   1.538   1.708  0.9156 -0.3407  0.7541
   84MOL   C13421880   5.479   1.426   1.744 -0.3820  0.5480 -0.0929
   84MOL   C13521881   5.447   1.309   1.650  0.4524  0.6038 -0.0651
   84MOL   C13621882   5.438   1.399   1.887  0.4781  0.3810 -1.1613
   84MOL   H13721883   5.687   1.501   1.567 -0.2895 -1.3390  0.1757
   84MOL   H13821884   5.530   1.524   1.497 -0.4331 -1.5662  2.5872
   84MOL   H13921885   5.576   1.605   1.788 -1.6623  1.9875 -0.1747
   84MOL   H14021886   5.358   1.258   1.687  0.0212  1.2713 -0.1735
   84MOL   H14121887   5.539   1.251   1.658  0.3272  0.6847  2.4919
   84MOL   H14221888   5.430   1.332   1.545 -3.4223 -2.9155 -0.3274
   84MOL   H14321889   5.344   1.343   1.884  0.5166 -0.0876  3.1571
   84MOL   H14421890   5.423   1.494   1.938  2.0342 -0.0290  0.0853
   84MOL   C14521891   5.543   1.322   1.965 -0.4227  0.5849 -0.2028
   84MOL   C14621892   5.680   1.387   1.965  1.0195 -0.3214 -0.0928
   84MOL   C14721893   5.795   1.329   1.933 -0.4197 -0.2314  0.3317
   84MOL   C14821894   5.807   1.187   1.886  0.6032 -0.0698 -0.1570
   84MOL   C14921895   5.923   1.405   1.939  0.6658 -0.4843 -0.2451
   84MOL   H15021896   5.545   1.218   1.933 -2.4423  0.5967 -0.3842
   84MOL   H15121897   5.507   1.310   2.067  0.2212 -0.5566 -0.1026
   84MOL   H15221898   5.693   1.489   1.999  4.0366 -0.2115 -1.4202
   84MOL   H15321899   5.773   1.178   1.783 -0.6587 -3.6603  0.5046
   84MOL   H15421900   5.743   1.120   1.944  0.6945 -0.0520 -0.0340
   84MOL   H15521901   5.907   1.144   1.881  0.2803 -0.5974 -2.7553
   84MOL   H15621902   5.995   1.348   1.999 -0.9603  0.8134  3.0713
   84MOL   H15721903   5.907   1.494   2.001  0.0889 -1.2339  0.6948
   84MOL   C15821904   5.979   1.428   1.798 -0.0845 -1.2232 -0.4144
   84MOL   C15921905   6.115   1.497   1.802  0.2056 -0.2226  0.7474
   84MOL   C16021906   6.142   1.634   1.804  0.5054  0.0955 -0.0926
   84MOL   C16121907   6.038   1.742   1.786  1.1601  0.0329 -0.5037
   84MOL   C16221908   6.285   1.677   1.817 -0.7904 -0.1883 -0.1906
   84MOL   H16321909   5.917   1.486   1.730 -1.1925 -0.8889  0.8716
   84MOL   H16421910   5.989   1.327   1.757 -2.3145 -0.9556 -1.7212
   84MOL   H16521911   6.194   1.423   1.810  2.1599  1.8578  1.0937
   84MOL   H16621912   5.938   1.700   1.785  0.8699  0.7074  0.0230
   84MOL   H16721913   6.053   1.782   1.686  2.4688 -0.0607 -0.3563
   84MOL   H16821914   6.054   1.809   1.870 -2.1244 -2.7032  2.4711
   84MOL   H16921915   6.337   1.603   1.877  0.7775  1.4025  0.4607
   84MOL   H17021916   6.291   1.767   1.879 -1.9293 -0.8615  0.9031
   84MOL   C17121917   6.344   1.686   1.673 -0.5598 -0.3377  0.0721
   84MOL   C17221918   6.492   1.714   1.666 -0.0027 -0.3509  0.4633
   84MOL   C17321919   6.559   1.826   1.631  0.1508 -0.8174  0.2932
   84MOL   C17421920   6.486   1.954   1.610  0.1118 -0.0079 -0.3747
   84MOL   C17521921   6.711   1.838   1.606 -0.1396 -0.8784 -0.1128
   84MOL   H17621922   6.297   1.760   1.608  1.7165  1.8005  0.7905
   84MOL   H17721923   6.320   1.592   1.623 -2.2276  0.1848 -0.1585
   84MOL   H17821924   6.548   1.623   1.674  2.7854  1.3254  0.6835
   84MOL   H17921925   6.539   2.035   1.660 -0.4649 -0.0785  0.3571
   84MOL   H18021926   6.387   1.955   1.656  0.4551  1.6635  0.3637
   84MOL   H18121927   6.472   1.981   1.505 -3.3410 -0.0249  0.0131
   84MOL   H18221928   6.741   1.916   1.675  0.1904 -2.5834  1.7094
   84MOL   H18321929   6.730   1.887   1.510  0.7606  1.7987  1.4045
   84MOL   C18421930   6.788   1.702   1.626  0.4868  0.4367  0.0787
   84MOL   C18521931   6.935   1.718   1.610  0.0752  0.3459 -0.4362
   84MOL   C18621932   6.994   1.691   1.495  0.0409  0.9274 -0.2205
   84MOL   C18721933   6.922   1.676   1.362  0.5602 -0.0517  0.1171
   84MOL   C18821934   7.148   1.679   1.498  0.6410  0.4721  0.1870
   84MOL   H18921935   6.755   1.627   1.555 -1.2474  0.7333  0.5555
   84MOL   H19021936   6.765   1.666   1.727  1.7461 -0.6415 -0.0043
   84MOL   H19121937   6.988   1.728   1.703  1.0130  1.0033 -1.0331
   84MOL   H19221938   6.990   1.693   1.278  0.8203 -0.0953  0.3178
   84MOL   H19321939   6.842   1.749   1.348 -1.4164 -1.2881  4.2536
   84MOL   H19421940   6.888   1.573   1.356  1.1139 -0.5385  4.3799
   84MOL   H19521941   7.173   1.591   1.438  0.9285  1.0015 -0.4781
   84MOL   H19621942   7.187   1.649   1.596  0.6432 -2.3295 -0.6166
   84MOL   C19721943   7.218   1.809   1.458 -0.1205 -0.1154 -0.0941
   84MOL   C19821944   7.368   1.787   1.435 -0.0819 -0.6548  0.2740
   84MOL   C19921945   7.440   1.737   1.333  0.0378 -0.0850  0.1461
   84MOL   C20021946   7.387   1.678   1.210  0.2413  0.1638  0.2165
   84MOL   C20121947   7.588   1.719   1.360 -0.2654  0.4411  0.2460
   84MOL   H20221948   7.192   1.877   1.539  0.2174 -0.5919  0.4172
   84MOL   H20321949   7.172   1.839   1.364  0.0015  2.7199  0.6841
   84MOL   H20421950   7.413   1.822   1.527 -0.5237 -0.2597  0.3429
   84MOL   H20521951   7.280   1.698   1.200 -0.0151  0.1575  2.7622
   84MOL   H20621952   7.388   1.569   1.216 -3.0197 -0.0003 -1.0656
   84MOL   H20721953   7.434   1.729   1.126 -0.0892 -0.6490 -0.4671
   84MOL   H20821954   7.616   1.750   1.461 -0.8620 -2.1671  1.2571
   84MOL   H20921955   7.637   1.790   1.293  0.0824  2.6895  2.8129
   84MOL   C21021956   7.648   1.581   1.339 -0.2891  0.8953 -0.2055
   84MOL   C21121957   7.796   1.590   1.317  0.0948 -0.0221  0.2415
   84MOL   C21221958   0.010   1.500   1.344  1.1578 -0.1818 -0.0470
   84MOL   C21321959   7.862   1.381   1.436  0.1317 -0.0601  0.7122
   84MOL   C21421960   0.157   1.527   1.301 -0.0848 -0.0871 -0.3343
   84MOL   H21521961   7.615   1.531   1.248 -0.8372  0.1249  0.4078
   84MOL   H21621962   7.631   1.520   1.428 -1.7397  0.5158 -0.7403
   84MOL   H21721963   7.827   1.674   1.257  1.4661 -1.2740 -0.8649
   84MOL   H21821964   7.781   1.319   1.397  0.1105 -0.1468  0.8946
   84MOL   H21921965   7.843   1.431   1.531  0.8165 -2.4276  2.1232
   84MOL   H22021966   0.071   1.324   1.446  2.3154  3.2779  0.6523
   84MOL   H22121967   0.148   1.582   1.207  0.4090 -0.5551 -0.6536
   84MOL   H22221968   0.215   1.436   1.286  1.6011  0.8089  0.5861
   84MOL   C22321969   0.236   1.611   1.405  0.3217 -0.0043  0.4241
   84MOL   C22421970   0.370   1.662   1.354 -0.3545 -0.9098 -0.0653
   84MOL   C22521971   0.403   1.776   1.291 -0.0560  0.0524 -0.4834
   84MOL   C22621972   0.296   1.874   1.243  0.0646 -0.3845 -0.0002
   84MOL   C22721973   0.546   1.803   1.258 -0.2259  0.4904 -0.1300
   84MOL   H22821974   0.248   1.554   1.498  0.0924  0.2615  0.6166
   84MOL   H22921975   0.171   1.697   1.422  2.0815  1.9415 -2.2829
   84MOL   H23021976   0.449   1.593   1.378  1.1064  0.9928  0.8094
   84MOL   H23121977   0.331   1.916   1.149 -0.2909 -3.2422 -1.4895
   84MOL   H23221978   0.275   1.959   1.308 -1.1104 -0.2263 -0.5846
   84MOL   H23321979   0.198   1.831   1.222 -1.3083  1.8514  1.6527
   84MOL   H23421980   0.544   1.812   1.149  0.3324 -0.6752 -0.2397
   84MOL   H23521981   0.614   1.728   1.298 -2.9620 -1.5605  0.8489
   84MOL   C23621982   0.586   1.943   1.315 -0.6767 -0.1488  0.0378
   84MOL   C23721983   0.723   2.000   1.252 -0.0997  0.6260 -0.3748
   84MOL   C23821984   0.811   2.081   1.320 -0.1170  0.0683  0.1333
   84MOL   C23921985   0.797   2.120   1.470 -0.4915  0.0547  1.3205
   84MOL   C24021986   0.932   2.157   1.260 -0.7072 -0.3860  0.6447
   84MOL   H24121987   0.584   1.939   1.424  0.1738  1.3311  0.1151
   84MOL   H24221988   0.509   2.016   1.290  0.7318  0.7226 -1.8797
   84MOL   H24321989   0.743   1.983   1.147  3.1026 -1.0879  0.4295
   84MOL   H24421990   0.887   2.131   1.530  0.2201  2.2926 -0.1311
   84MOL   H24521991   0.749   2.034   1.518 -1.4062 -0.0378  0.2509
   84MOL   H24621992   0.730   2.206   1.480 -0.4982  0.4462 -1.7332
   84MOL   H24721993   0.927   2.260   1.294 -0.3680 -0.4134  0.7775
   84MOL   H24821994   0.930   2.165   1.151 -1.5213 -0.6112  0.6389
   84MOL   C24921995   1.066   2.118   1.319 -0.0717  0.1306 -0.5885
   84MOL   C25021996   1.183   2.190   1.242 -0.1964 -0.6177  0.1705
   84MOL   C25121997   1.285   2.267   1.294 -0.1545  0.2325  0.1138
   84MOL   C25221998   1.309   2.277   1.436 -0.1171  0.5539  0.1051
   84MOL   C25321999   1.382   2.336   1.198 -0.1586 -0.4309  0.1551
   84MOL   H25422000   1.072   2.009   1.316 -2.7110 -0.0938  0.5222
   84MOL   H25522001   1.067   2.146   1.424  1.5778  1.2464 -0.8804
   84MOL   H25622002   1.175   2.186   1.134  0.3966  0.9825  0.0513
   84MOL   H25722003   1.303   2.383   1.460 -2.4953  0.7270 -1.1669
   84MOL   H25822004   1.412   2.253   1.462 -0.4722 -1.6003 -0.3800
   84MOL   H25922005   1.243   2.216   1.497 -0.6376  0.0696 -0.9366
   84MOL   H26022006   1.334   2.421   1.149  0.0200  0.6513  1.8337
   84MOL   H26122007   1.417   2.260   1.128  2.4889 -0.0335  1.0027
   84MOL   H26222008   1.466   2.384   1.247 -0.2530  0.3708 -0.4423
   85MOL     C122009   6.956   2.416   3.981 -0.3900 -0.4031  0.3207
   85MOL     C222010   6.923   2.287   3.903  0.0218 -0.2044 -0.2337
   85MOL     C322011   6.867   2.177   3.955  0.2059 -0.7839 -0.4604
   85MOL     C422012   6.817   2.161   4.093 -0.4909  0.2781 -0.4746
   85MOL     C522013   6.836   2.067   3.864 -0.3946  0.0562  0.5216
   85MOL     H622014   6.920   2.502   3.924 -1.7456 -1.6204 -0.7079
   85MOL     H722015   6.918   2.427   4.083  2.2555 -0.0922  1.3166
   85MOL     H822016   6.947   2.282   3.797 -1.3294 -3.5920 -0.4332
   85MOL     H922017   6.864   2.239   4.153  0.7562 -0.0843 -0.9689
   85MOL    H1022018   6.853   2.068   4.137  1.4524  0.9233 -0.6467
   85MOL    H1122019   6.710   2.161   4.110 -0.3905  1.4650  0.2630
   85MOL    H1222020   6.866   2.101   3.765 -0.8384  1.5531  0.8851
   85MOL    H1322021   6.730   2.042   3.861 -0.3122 -0.2949  0.5924
   85MOL    H1422022   7.064   2.425   3.994 -0.4172 -1.1509  1.1506
   85MOL    C1522023   6.922   1.947   3.895 -0.1202 -0.2723  0.0172
   85MOL    C1622024   6.938   1.847   3.784  0.7799 -0.4241  0.4376
   85MOL    C1722025   7.048   1.831   3.701  0.4660  0.2471  0.1926
   85MOL    C1822026   7.178   1.910   3.708  0.2731  0.2540 -0.2475
   85MOL    C1922027   7.034   1.724   3.589  0.0030 -0.0248  0.5292
   85MOL    H2022028   6.890   1.887   3.980 -1.6148  1.4358  0.6943
   85MOL    H2122029   7.020   1.984   3.924 -0.1571 -0.0200 -0.1747
   85MOL    H2222030   6.852   1.785   3.768  0.1292  0.0503  2.0675
   85MOL    H2322031   7.263   1.843   3.697  0.2534 -0.2457  2.2858
   85MOL    H2422032   7.192   1.975   3.794 -0.8070 -0.8713  0.8131
   85MOL    H2522033   7.183   1.987   3.631 -0.0018  0.4281 -0.0903
   85MOL    H2622034   7.057   1.768   3.492  1.7538 -1.0605  0.4516
   85MOL    H2722035   6.926   1.710   3.589  0.0457 -0.7044 -2.2842
   85MOL    C2822036   7.093   1.588   3.621 -0.1560 -0.1773  0.3686
   85MOL    C2922037   7.073   1.482   3.514  0.4095 -0.0033  0.2299
   85MOL    C3022038   7.035   1.355   3.539  0.2012 -0.1131  0.1872
   85MOL    C3122039   7.024   1.287   3.673  0.2077 -0.3161 -0.9317
   85MOL    C3222040   7.011   1.262   3.420  0.7609  0.4910  0.4373
   85MOL    H3322041   7.066   1.557   3.722  0.9565 -1.2406  0.3404
   85MOL    H3422042   7.199   1.612   3.623  0.0229 -1.0564  3.2034
   85MOL    H3522043   7.083   1.515   3.412 -1.1478  1.0956  0.4191
   85MOL    H3622044   7.053   1.182   3.671  0.2292 -0.2820 -2.7194
   85MOL    H3722045   6.917   1.291   3.694  0.3838 -1.2465  0.2027
   85MOL    H3822046   7.074   1.335   3.757  0.1463  0.9576 -1.6155
   85MOL    H3922047   7.059   1.166   3.437 -0.6149 -0.4142 -0.6446
   85MOL    H4022048   7.067   1.302   3.336  0.8385 -1.0674 -0.2681
   85MOL    C4122049   6.860   1.242   3.402 -0.5910 -0.5016 -0.3682
   85MOL    C4222050   6.834   1.148   3.287 -0.2507  0.2384 -0.0893
   85MOL    C4322051   6.770   1.176   3.177  0.1327 -0.5776  0.3061
   85MOL    C4422052   6.705   1.317   3.159 -0.5691 -0.0851  0.0427
   85MOL    C4522053   6.728   1.070   3.068 -0.1882 -1.1036 -0.3959
   85MOL    H4622054   6.809   1.336   3.385 -2.6621 -1.4829  0.2164
   85MOL    H4722055   6.825   1.201   3.497  3.7151 -1.1298  1.0329
   85MOL    H4822056   6.877   1.050   3.298 -0.7206 -0.2419 -2.3652
   85MOL    H4922057   6.767   1.407   3.160 -2.5256  1.3039  1.0379
   85MOL    H5022058   6.626   1.331   3.233  1.0274  0.0777  1.7344
   85MOL    H5122059   6.669   1.311   3.057 -0.3014  1.0166 -0.1286
   85MOL    H5222060   6.620   1.070   3.061 -0.1462 -1.9383 -1.1778
   85MOL    H5322061   6.745   0.970   3.108 -0.0210  0.1447  2.8021
   85MOL    C5422062   6.795   1.096   2.928  0.1408 -0.6090  0.0754
   85MOL    C5522063   6.738   0.993   2.839 -0.0304  0.5312  0.5232
   85MOL    C5622064   6.814   0.902   2.763  0.0169 -0.4803  0.6442
   85MOL    C5722065   6.968   0.889   2.777  0.3136 -0.2399  0.6663
   85MOL    C5822066   6.746   0.801   2.671  0.4821 -0.1139 -0.4133
   85MOL    H5922067   6.903   1.103   2.940  0.2623 -1.7721 -0.3249
   85MOL    H6022068   6.752   1.187   2.886  2.8077  0.8933  0.5055
   85MOL    H6122069   6.632   0.994   2.823  0.0782 -1.8927 -0.6031
   85MOL    H6222070   7.023   0.902   2.684  0.2312 -2.4985  0.2724
   85MOL    H6322071   6.989   0.788   2.814  0.7926 -0.1293  0.6924
   85MOL    H6422072   7.018   0.966   2.835  1.9021 -1.2372  0.6513
   85MOL    H6522073   6.641   0.807   2.700  0.1478  0.2636 -1.6842
   85MOL    H6622074   6.790   0.705   2.698  1.0082  0.1258 -0.4066
   85MOL    C6722075   6.770   0.832   2.529 -0.3150  0.1968  0.2159
   85MOL    C6822076   6.708   0.728   2.438 -0.0684 -0.3095  0.2835
   85MOL    C6922077   6.605   0.747   2.355 -0.5962  0.3024 -0.3257
   85MOL    C7022078   6.535   0.877   2.326  0.1619 -0.7867  0.9233
   85MOL    C7122079   6.546   0.619   2.289 -0.4871  0.7340  0.9881
   85MOL    H7222080   6.877   0.837   2.510 -0.4186 -0.3495 -0.5698
   85MOL    H7322081   6.736   0.933   2.507 -3.3467 -0.6289  0.8200
   85MOL    H7422082   6.739   0.627   2.464 -1.5638 -0.6274  0.8992
   85MOL    H7522083   6.582   0.975   2.335  1.5672 -1.3084 -0.5422
   85MOL    H7622084   6.446   0.878   2.389  0.8358 -0.3329  1.8904
   85MOL    H7722085   6.503   0.868   2.223  0.5549  1.4447  0.5791
   85MOL    H7822086   6.600   0.528   2.316 -0.3650 -0.4312 -2.8829
   85MOL    H7922087   6.557   0.637   2.182 -2.8696  0.8902  0.7330
   85MOL    C8022088   6.407   0.586   2.335  0.2809 -0.5757 -0.5402
   85MOL    C8122089   6.367   0.453   2.286  0.0939  0.0801  0.7388
   85MOL    C8222090   6.371   0.334   2.352 -0.4263 -0.3015 -0.4333
   85MOL    C8322091   6.418   0.328   2.497  0.0320  0.2168  0.6726
   85MOL    C8422092   6.331   0.199   2.294 -0.2664  0.6286  0.5105
   85MOL    H8522093   6.338   0.659   2.294 -1.1484 -0.7596  1.4601
   85MOL    H8622094   6.399   0.606   2.442  1.7024 -0.1585 -0.4994
   85MOL    H8722095   6.338   0.456   2.182  0.5676  4.0829  0.6807
   85MOL    H8822096   6.382   0.414   2.553 -1.7815  1.3604 -2.1472
   85MOL    H8922097   6.527   0.329   2.500  0.1105 -1.2914 -0.7961
   85MOL    H9022098   6.396   0.232   2.544  3.6322 -1.4123 -0.7412
   85MOL    H9122099   6.269   0.201   2.205  0.9054 -1.0648 -0.3589
   85MOL    H9222100   6.254   0.163   2.363 -1.4196  0.7258 -0.7062
   85MOL    C9322101   6.453   0.111   2.261  0.5046 -0.1010  0.0108
   85MOL    C9422102   6.418   7.855   2.220  0.3414  0.2739 -0.2638
   85MOL    C9522103   6.406   7.811   2.090 -0.4641 -0.4181 -0.6540
   85MOL    C9622104   6.429   0.015   1.971 -0.1486 -0.0266 -0.3528
   85MOL    C9722105   6.372   7.673   2.050  0.2807 -0.3984 -0.1070
   85MOL    H9822106   6.518   0.097   2.347  1.1065  1.7130 -0.1276
   85MOL    H9922107   6.512   0.156   2.181  0.4754  0.6390  0.3972
   85MOL   H10022108   6.398   7.790   2.304  0.9078  0.4585  0.0116
   85MOL   H10122109   6.525   0.002   1.920  0.6421  2.2898  0.4811
   85MOL   H10222110   6.418   0.121   1.995  2.3115  0.1586  0.1299
   85MOL   H10322111   6.343   7.876   1.908  0.0693 -2.9023  0.2668
   85MOL   H10422112   6.326   7.673   1.951 -1.3794  2.7691  0.5876
   85MOL   H10522113   6.293   7.635   2.114 -0.1671 -0.3756 -0.6430
   85MOL   C10622114   6.492   7.581   2.044 -0.3113  0.3604 -0.0347
   85MOL   C10722115   6.557   7.559   2.175 -0.1555  0.3171 -0.5687
   85MOL   C10822116   6.520   7.467   2.269  0.7560 -0.4902 -0.8558
   85MOL   C10922117   6.414   7.358   2.249 -1.1515  0.3065 -0.3074
   85MOL   C11022118   6.594   7.449   2.405 -0.1681  0.6496  0.0783
   85MOL   H11122119   6.561   7.618   1.969 -0.4045 -0.2319 -0.4113
   85MOL   H11222120   6.449   7.491   2.000 -0.1216 -0.6603  1.8137
   85MOL   H11322121   6.640   7.623   2.200  0.3722 -0.2746 -0.7999
   85MOL   H11422122   6.347   7.372   2.163 -1.6773 -0.5903 -0.0471
   85MOL   H11522123   6.354   7.338   2.338  0.7460 -1.0075  0.6889
   85MOL   H11622124   6.469   7.264   2.249 -0.9011  0.4474  1.4671
   85MOL   H11722125   6.683   7.510   2.390  1.1418 -1.1167  0.5201
   85MOL   H11822126   6.637   7.351   2.427 -0.3999  0.4953 -0.1598
   85MOL   C11922127   6.501   7.502   2.515 -0.1800 -0.2069  0.0295
   85MOL   C12022128   6.512   7.437   2.653  0.0325  0.2710  0.2564
   85MOL   C12122129   6.624   7.408   2.729  0.4392 -0.2823 -0.1314
   85MOL   C12222130   6.763   7.458   2.682 -0.4184  0.0102  0.3382
   85MOL   C12322131   6.604   7.341   2.860  1.1717  0.2323  0.1748
   85MOL   H12422132   6.399   7.525   2.487 -0.8198 -0.6184  1.9781
   85MOL   H12522133   6.538   7.604   2.528  2.0579 -1.1648  1.5807
   85MOL   H12622134   6.415   7.396   2.680 -0.2238 -1.1530 -2.6752
   85MOL   H12722135   6.812   7.509   2.764 -1.2459  0.9773  0.2397
   85MOL   H12822136   6.753   7.528   2.599 -3.2765 -0.2065  0.4257
   85MOL   H12922137   6.824   7.374   2.650  1.0215  1.6508 -1.3354
   85MOL   H13022138   6.508   7.291   2.873  1.1556  0.4639  1.0374
   85MOL   H13122139   6.582   7.423   2.929 -1.8549 -0.0350 -0.3956
   85MOL   C13222140   6.722   7.250   2.891 -0.0155 -0.4612 -0.3680
   85MOL   C13322141   6.695   7.176   3.023  0.0462 -0.2619  0.1624
   85MOL   C13422142   6.676   7.041   3.048 -0.1035 -0.0777  0.4578
   85MOL   C13522143   6.684   6.924   2.951  0.2932  0.5873 -0.0061
   85MOL   C13622144   6.632   7.015   3.186  0.9000 -0.0566 -0.1618
   85MOL   H13722145   6.815   7.305   2.904 -2.1055  3.5725 -1.8802
   85MOL   H13822146   6.754   7.192   2.804  0.2153  0.1299 -0.6768
   85MOL   H13922147   6.677   7.249   3.100  2.7674  0.4494  0.1814
   85MOL   H14022148   6.758   6.851   2.986  1.6576  1.5752 -0.7996
   85MOL   H14122149   6.720   6.946   2.850  0.6396  2.2456  0.4685
   85MOL   H14222150   6.589   6.873   2.936  1.2306 -1.5971  1.1337
   85MOL   H14322151   6.530   6.975   3.189  0.8576 -0.1001 -1.5768
   85MOL   H14422152   6.629   7.107   3.244  1.7604 -2.2169  3.4308
   85MOL   C14522153   6.716   6.919   3.271  0.5610 -0.2534 -0.2562
   85MOL   C14622154   6.692   6.927   3.421 -0.3778  0.5169 -0.5757
   85MOL   C14722155   6.790   6.918   3.513 -0.4532 -0.2825 -0.0195
   85MOL   C14822156   6.932   6.876   3.474  0.1726  0.7477  0.2400
   85MOL   C14922157   6.769   6.964   3.654 -0.0140  0.6072 -0.7727
   85MOL   H15022158   6.818   6.952   3.253  0.8352 -1.0807 -0.2016
   85MOL   H15122159   6.710   6.814   3.243  1.7212 -0.6988  1.1146
   85MOL   H15222160   6.593   6.959   3.449 -1.5011 -1.0536 -2.5537
   85MOL   H15322161   6.923   6.815   3.384  1.4101  0.8566  0.0271
   85MOL   H15422162   6.989   6.813   3.542 -0.8070  2.7553  3.0056
   85MOL   H15522163   6.988   6.962   3.436  0.3661  0.1570 -0.8523
   85MOL   H15622164   6.800   6.885   3.722  1.6122  1.3984 -0.5767
   85MOL   H15722165   6.666   6.998   3.671  0.5305  1.4086  1.0699
   85MOL   C15822166   6.851   7.086   3.688 -0.3024  0.0261  0.3451
   85MOL   C15922167   6.780   7.207   3.627 -0.0209 -0.4803 -0.4180
   85MOL   C16022168   6.831   7.303   3.543  0.4793 -0.0997 -0.3184
   85MOL   C16122169   6.975   7.305   3.503  0.1978 -0.7037  0.1793
   85MOL   C16222170   6.739   7.421   3.499 -0.0410  0.6173 -0.0230
   85MOL   H16322171   6.952   7.082   3.650 -0.6912 -0.5257 -0.6344
   85MOL   H16422172   6.857   7.106   3.795 -0.6042  1.8289  0.0349
   85MOL   H16522173   6.683   7.219   3.672 -0.5592  1.2448 -1.9885
   85MOL   H16622174   7.025   7.389   3.551  1.7476  0.1263 -2.7432
   85MOL   H16722175   6.986   7.316   3.395  1.0019  0.1379  0.3412
   85MOL   H16822176   7.028   7.212   3.523  0.0223 -0.7485  0.4287
   85MOL   H16922177   6.784   7.515   3.534 -0.2604 -0.3205  2.9342
   85MOL   H17022178   6.644   7.415   3.552 -0.2288  0.0476 -0.4238
   85MOL   C17122179   6.725   7.435   3.352  0.0982  0.6265 -0.4851
   85MOL   C17222180   6.626   7.544   3.319  0.2378 -0.4144  0.5648
   85MOL   C17322181   6.497   7.526   3.289  0.5587  0.0703  0.2398
   85MOL   C17422182   6.438   7.386   3.282  0.8523  0.4318  0.6343
   85MOL   C17522183   6.399   7.641   3.267  1.2240  0.8100  0.0173
   85MOL   H17622184   6.702   7.333   3.323  0.3298  0.0007  1.4769
   85MOL   H17722185   6.814   7.466   3.297  1.3276 -1.2336  0.4081
   85MOL   H17822186   6.669   7.642   3.325 -0.0803 -0.1930 -0.5854
   85MOL   H17922187   6.494   7.303   3.237 -2.2751 -1.4523  0.0566
   85MOL   H18022188   6.342   7.388   3.229 -1.0998  0.0224  4.0364
   85MOL   H18122189   6.413   7.347   3.380 -1.7214  1.3226  0.3676
   85MOL   H18222190   6.372   7.633   3.162 -1.4436 -0.8249  0.7859
   85MOL   H18322191   6.455   7.733   3.282  1.6719  0.3875  1.0131
   85MOL   C18422192   6.280   7.639   3.365  0.6623 -0.1695 -0.1915
   85MOL   C18522193   6.197   7.766   3.363 -0.1080  1.1601 -0.2312
   85MOL   C18622194   6.200   7.880   3.432 -0.1421  0.0320 -0.2458
   85MOL   C18722195   6.320   0.015   3.528 -0.0904 -0.0559 -0.2562
   85MOL   C18822196   6.096   0.110   3.426  0.2119  0.1901 -0.4715
   85MOL   H18922197   6.319   7.626   3.466  0.1819  2.5239  0.3748
   85MOL   H19022198   6.217   7.552   3.346 -0.3821  0.0593  2.0449
   85MOL   H19122199   6.117   7.746   3.293 -1.5837 -1.8623  2.2241
   85MOL   H19222200   6.286   7.868   3.627  1.3817  0.8104  0.5173
   85MOL   H19322201   6.362   0.115   3.533  2.8058 -1.3394  2.7103
   85MOL   H19422202   6.411   7.845   3.498 -0.1703 -0.8423  0.8368
   85MOL   H19522203   6.010   0.083   3.488  2.1564 -1.3826  1.6079
   85MOL   H19622204   6.056   0.096   3.326  0.7583  1.4094 -0.8622
   85MOL   C19722205   6.129   0.254   3.440  0.2212  0.0635 -0.0816
   85MOL   C19822206   6.011   0.346   3.424 -0.1341  0.2673  0.0892
   85MOL   C19922207   5.987   0.442   3.328 -0.1398 -0.0310  0.6520
   85MOL   C20022208   6.072   0.450   3.198  0.7218  0.7921 -0.2630
   85MOL   C20122209   5.855   0.512   3.321  0.3846 -0.0827 -0.3513
   85MOL   H20222210   6.206   0.278   3.367 -0.4088 -0.5333 -0.9436
   85MOL   H20322211   6.182   0.278   3.533  2.0180  1.0869 -1.3292
   85MOL   H20422212   5.944   0.327   3.506  0.9286 -0.4319  0.8132
   85MOL   H20522213   6.164   0.392   3.202 -0.9940 -2.0455 -1.0938
   85MOL   H20622214   6.105   0.554   3.193 -1.2251  1.4299 -0.2912
   85MOL   H20722215   6.013   0.431   3.109 -0.9666 -0.4033  1.0947
   85MOL   H20822216   5.793   0.487   3.407 -0.3179  1.2294 -0.4718
   85MOL   H20922217   5.808   0.465   3.235 -1.4915 -0.6884  0.9730
   85MOL   C21022218   5.873   0.663   3.303 -0.8122  0.6977 -0.4473
   85MOL   C21122219   5.748   0.738   3.273  0.2532 -0.2525 -0.2482
   85MOL   C21222220   5.681   0.801   3.368 -0.4154  0.6381  1.2217
   85MOL   C21322221   5.720   0.798   3.519  0.6807 -0.3915  0.8996
   85MOL   C21422222   5.560   0.882   3.332  0.0864  0.0081  0.0744
   85MOL   H21522223   5.945   0.680   3.223 -0.2471 -1.0161 -0.3231
   85MOL   H21622224   5.925   0.712   3.385 -3.1481  0.4063  1.2585
   85MOL   H21722225   5.725   0.752   3.168  0.9460  0.5424 -0.2978
   85MOL   H21822226   5.632   0.838   3.569 -0.2205  0.2915 -1.1320
   85MOL   H21922227   5.797   0.872   3.543 -0.2608  0.7899  0.3597
   85MOL   H22022228   5.743   0.699   3.559  0.4516 -0.7097  0.2582
   85MOL   H22122229   5.475   0.838   3.384  1.0092 -0.3609  1.2908
   85MOL   H22222230   5.548   0.871   3.224 -1.1397 -0.6708  0.2724
   85MOL   C22322231   5.574   1.030   3.369 -0.1856 -0.1310  0.6860
   85MOL   C22422232   5.441   1.099   3.368  1.0709  0.3917 -0.1912
   85MOL   C22522233   5.379   1.182   3.461 -0.0100  0.3182 -0.3384
   85MOL   C22622234   5.440   1.222   3.596 -0.0257 -0.2512 -0.4825
   85MOL   C22722235   5.244   1.240   3.431  0.3458  0.0221 -0.2918
   85MOL   H22822236   5.632   1.081   3.292 -2.7148  0.5166 -0.8426
   85MOL   H22922237   5.618   1.039   3.469 -4.3103 -0.4715  2.6395
   85MOL   H23022238   5.387   1.093   3.275  0.2832  1.8900  0.1481
   85MOL   H23122239   5.385   1.203   3.688 -0.4551  1.8215 -0.2888
   85MOL   H23222240   5.442   1.331   3.601  0.4025 -0.2531 -0.6268
   85MOL   H23322241   5.546   1.198   3.597  0.7512  2.9403  0.5541
   85MOL   H23422242   5.177   1.222   3.516 -1.0798  1.3869 -1.1038
   85MOL   H23522243   5.210   1.185   3.344  1.2150 -1.2496  0.1586
   85MOL   C23622244   5.262   1.394   3.401  0.7728 -0.4057 -0.2321
   85MOL   C23722245   5.352   1.430   3.280  0.7588  0.3119 -0.5098
   85MOL   C23822246   5.337   1.533   3.195 -0.5061 -0.6496 -0.1818
   85MOL   C23922247   5.237   1.650   3.215 -0.3855  0.3286  0.0756
   85MOL   C24022248   5.430   1.546   3.074  0.1141 -0.4731 -0.2084
   85MOL   H24122249   5.302   1.439   3.491  0.6465 -0.2512 -0.2539
   85MOL   H24222250   5.165   1.442   3.386  1.5086  1.1102 -0.1705
   85MOL   H24322251   5.424   1.351   3.263  0.4644 -0.1943  0.5550
   85MOL   H24422252   5.167   1.651   3.132  2.0802  1.2477 -2.0644
   85MOL   H24522253   5.286   1.745   3.238  1.3648 -0.5913  0.2383
   85MOL   H24622254   5.169   1.632   3.298 -0.0946 -2.7957 -0.3125
   85MOL   H24722255   5.514   1.477   3.080  0.6704  0.2438  0.2563
   85MOL   H24822256   5.473   1.646   3.076 -0.0790 -0.3802 -0.5660
   85MOL   C24922257   5.358   1.522   2.944  0.7415 -0.3566 -0.0360
   85MOL   C25022258   5.458   1.541   2.825  0.1542 -0.1117 -0.5223
   85MOL   C25122259   5.439   1.595   2.700  0.4287  0.2478  0.3797
   85MOL   C25222260   5.305   1.656   2.656 -0.3077  0.3579  0.2747
   85MOL   C25322261   5.549   1.602   2.604 -0.5030 -0.0426 -0.6203
   85MOL   H25422262   5.283   1.598   2.922  0.2967 -0.5359  0.8155
   85MOL   H25522263   5.318   1.420   2.938  0.1110 -0.1553  0.6301
   85MOL   H25622264   5.558   1.506   2.841 -0.0859 -0.5399  0.0652
   85MOL   H25722265   5.297   1.760   2.687 -0.9420  0.4396 -0.1456
   85MOL   H25822266   5.225   1.614   2.717  0.6809 -0.6295  0.9113
   85MOL   H25922267   5.302   1.634   2.549 -0.6007  3.4374 -0.3947
   85MOL   H26022268   5.586   1.705   2.593  1.3862 -0.5092  0.9516
   85MOL   H26122269   5.526   1.563   2.505 -2.1104  1.8725 -1.0347
   85MOL   H26222270   5.639   1.547   2.633 -1.8081 -1.9402 -0.1144
   86MOL     C122271   3.620   2.888   3.511  0.7064 -0.7524  0.2694
   86MOL     C222272   3.757   2.918   3.457 -0.3420 -0.0632 -0.2379
   86MOL     C322273   3.853   2.825   3.420 -0.4486  0.4806 -0.0653
   86MOL     C422274   3.832   2.677   3.423  0.0300  0.2556 -0.4935
   86MOL     C522275   3.990   2.867   3.372 -0.2638 -0.2307  0.2334
   86MOL     H622276   3.542   2.955   3.475  0.6369 -0.1103  1.5593
   86MOL     H722277   3.581   2.787   3.500 -0.8324 -0.2311  0.7574
   86MOL     H822278   3.788   3.021   3.460  0.0911 -0.2220  1.6279
   86MOL     H922279   3.814   2.635   3.522 -0.9837 -1.9406 -1.5762
   86MOL    H1022280   3.913   2.617   3.382 -0.5487 -1.3567  0.6556
   86MOL    H1122281   3.753   2.638   3.358 -1.2376  0.3409  0.9726
   86MOL    H1222282   4.070   2.796   3.394 -1.0452 -1.3811 -0.5647
   86MOL    H1322283   4.015   2.953   3.433  1.3945 -1.4615  1.3089
   86MOL    H1422284   3.635   2.901   3.619 -0.6738  2.4527  0.1269
   86MOL    C1522285   3.996   2.898   3.223 -0.7018 -0.4095  0.8957
   86MOL    C1622286   4.141   2.906   3.176  0.1551 -0.5351 -0.1708
   86MOL    C1722287   4.199   2.813   3.098  0.1425  0.2935 -0.1081
   86MOL    C1822288   4.133   2.691   3.043 -0.5005  0.2394 -0.5458
   86MOL    C1922289   4.343   2.815   3.057  0.3119 -0.4503 -1.1943
   86MOL    H2022290   3.941   2.991   3.208  0.4523  0.0948 -0.3420
   86MOL    H2122291   3.947   2.818   3.167  0.2115 -0.1511 -0.2835
   86MOL    H2222292   4.207   2.983   3.212  1.4473 -2.3814  1.5019
   86MOL    H2322293   4.102   2.633   3.130  0.0513 -1.6244 -1.5922
   86MOL    H2422294   4.191   2.635   2.971  0.7007 -0.5173  1.0001
   86MOL    H2522295   4.046   2.718   2.983 -0.9853  0.1082  0.0787
   86MOL    H2622296   4.367   2.920   3.068  1.3642 -0.6642 -1.3178
   86MOL    H2722297   4.357   2.787   2.952 -2.0990  1.8111 -2.1613
   86MOL    C2822298   4.423   2.721   3.149  0.4804 -0.3116  0.2549
   86MOL    C2922299   4.530   2.657   3.065 -0.2904 -0.2629 -0.4735
   86MOL    C3022300   4.528   2.543   3.005 -0.0566  0.4478  0.4777
   86MOL    C3122301   4.415   2.440   3.008 -0.0862  0.3317 -0.6067
   86MOL    C3222302   4.649   2.498   2.922  0.0612 -0.3087  0.1775
   86MOL    H3322303   4.372   2.648   3.212  4.8531 -0.9535  3.2201
   86MOL    H3422304   4.468   2.786   3.224  1.8263 -2.6946  1.5766
   86MOL    H3522305   4.620   2.716   3.056 -1.1875  1.2232  0.0597
   86MOL    H3622306   4.345   2.460   2.926 -0.6835  2.7517  0.4307
   86MOL    H3722307   4.352   2.441   3.097  1.8021 -0.7477  0.7620
   86MOL    H3822308   4.460   2.342   3.002 -0.1864  0.3218 -1.2756
   86MOL    H3922309   4.703   2.413   2.962 -0.1085 -0.3476  0.3228
   86MOL    H4022310   4.721   2.579   2.915  0.3148 -0.6808 -1.8279
   86MOL    C4122311   4.611   2.469   2.779 -0.1047 -0.3789 -0.3889
   86MOL    C4222312   4.731   2.486   2.687 -0.0187 -0.5350  0.8298
   86MOL    C4322313   4.759   2.593   2.611  0.4923  0.2253 -0.1625
   86MOL    C4422314   4.679   2.726   2.615  0.8722 -0.2590 -0.2239
   86MOL    C4522315   4.869   2.596   2.511  0.1910  0.0947 -0.5492
   86MOL    H4622316   4.538   2.542   2.745 -2.2925 -1.5482  1.6956
   86MOL    H4722317   4.566   2.373   2.754 -2.0635  0.2733  0.5099
   86MOL    H4822318   4.791   2.398   2.667 -0.3610 -0.3458 -1.1051
   86MOL    H4922319   4.725   2.821   2.642  2.1534 -0.2078 -2.4633
   86MOL    H5022320   4.590   2.730   2.679 -0.0875 -1.0937 -1.4798
   86MOL    H5122321   4.626   2.740   2.521 -1.4695 -0.2098  1.0526
   86MOL    H5222322   4.847   2.658   2.424  1.0024  0.5606 -0.4275
   86MOL    H5322323   4.884   2.499   2.464 -1.0377 -0.2182 -0.3034
   86MOL    C5422324   4.997   2.631   2.578  0.5810 -0.2930 -0.2265
   86MOL    C5522325   5.036   2.775   2.602 -0.2708 -0.3918 -0.1557
   86MOL    C5622326   5.064   2.836   2.720 -0.1510  0.5987  0.0443
   86MOL    C5722327   5.083   2.775   2.854  0.3386 -0.1984 -0.5125
   86MOL    C5822328   5.069   2.990   2.730 -0.0332 -0.0320 -0.2946
   86MOL    H5922329   5.079   2.590   2.519  1.9681  0.5442  1.0836
   86MOL    H6022330   5.009   2.580   2.673 -0.1397  0.2867  0.1877
   86MOL    H6122331   5.017   2.833   2.512 -0.5304  0.8276  0.6801
   86MOL    H6222332   5.159   2.839   2.900  0.2806  0.6453 -1.5583
   86MOL    H6322333   5.117   2.672   2.855 -0.4484 -0.4579 -0.3342
   86MOL    H6422334   4.990   2.792   2.908  0.9544  0.9048  0.2185
   86MOL    H6522335   5.050   3.040   2.635  0.5561  1.1168  0.1752
   86MOL    H6622336   5.170   3.013   2.765 -1.4244  1.6628  2.7850
   86MOL    C6722337   4.971   3.068   2.827  0.3835 -0.6355  0.4222
   86MOL    C6822338   4.840   3.108   2.762 -0.3512 -0.2436  0.4931
   86MOL    C6922339   4.719   3.093   2.806 -0.0849  0.0335 -0.0120
   86MOL    C7022340   4.689   3.033   2.941  0.2316 -0.3392  0.3740
   86MOL    C7122341   4.598   3.151   2.739  1.1574 -0.4242  0.0407
   86MOL    H7222342   5.016   3.164   2.854 -0.4415  0.2186 -1.1898
   86MOL    H7322343   4.972   3.004   2.916  1.9992 -0.1910  0.7384
   86MOL    H7422344   4.851   3.158   2.667  1.1935 -0.1639  0.6993
   86MOL    H7522345   4.775   3.043   3.007  0.9463 -0.5516 -0.5175
   86MOL    H7622346   4.665   2.926   2.941 -2.0852  0.1687  0.2826
   86MOL    H7722347   4.612   3.095   2.986  0.9942  0.5610  0.4449
   86MOL    H7822348   4.504   3.097   2.754  0.8800  0.4603  1.5858
   86MOL    H7922349   4.611   3.150   2.631  0.5206  0.2723 -0.0475
   86MOL    C8022350   4.580   3.296   2.794  0.3145  0.4441  0.3465
   86MOL    C8122351   4.486   3.366   2.704 -0.4188 -0.2622 -0.1917
   86MOL    C8222352   4.382   3.442   2.734  0.1422 -0.4824  0.0590
   86MOL    C8322353   4.336   3.462   2.879  0.3223  0.0531  0.1196
   86MOL    C8422354   4.299   3.512   2.628 -0.3696 -0.0065  0.4044
   86MOL    H8522355   4.674   3.350   2.787 -0.1567  1.3690  1.1188
   86MOL    H8622356   4.550   3.297   2.899  0.0142 -1.4346  0.3079
   86MOL    H8722357   4.512   3.345   2.601 -1.5441  0.1223 -0.5560
   86MOL    H8822358   4.391   3.548   2.915  0.0219  1.6628 -3.0910
   86MOL    H8922359   4.366   3.393   2.958 -3.6796 -0.1547  1.5552
   86MOL    H9022360   4.228   3.477   2.879  0.3340  0.9463 -4.6320
   86MOL    H9122361   4.196   3.486   2.652 -0.4420 -0.0572  0.0489
   86MOL    H9222362   4.309   3.459   2.533 -1.8519 -1.7686  1.1871
   86MOL    C9322363   4.326   3.660   2.599 -0.2827  0.3800 -0.4062
   86MOL    C9422364   4.211   3.728   2.530 -0.1303  0.2135  0.5774
   86MOL    C9522365   4.206   3.800   2.414 -0.6141 -0.2420 -0.2596
   86MOL    C9622366   4.326   3.818   2.326  0.1810 -0.3950  0.1302
   86MOL    C9722367   4.080   3.876   2.377  0.0409 -0.5182 -0.1688
   86MOL    H9822368   4.423   3.665   2.551 -0.9973 -0.2689 -1.9552
   86MOL    H9922369   4.350   3.718   2.688 -0.9172  2.3730 -1.4884
   86MOL   H10022370   4.124   3.733   2.594  0.2329 -1.2216  1.1962
   86MOL   H10122371   4.417   3.782   2.373  0.3424  1.9903  1.6783
   86MOL   H10222372   4.349   3.918   2.291  1.0235 -0.2002  1.2235
   86MOL   H10322373   4.314   3.752   2.240  3.3876 -0.4701 -0.3029
   86MOL   H10422374   4.101   3.983   2.385 -0.6427 -0.5390  2.2262
   86MOL   H10522375   4.002   3.846   2.447  0.1216  1.6103  0.8937
   86MOL   C10622376   4.038   3.835   2.237 -0.1276 -0.5097 -0.2040
   86MOL   C10722377   3.918   3.915   2.197  0.5212 -0.6960  0.4970
   86MOL   C10822378   3.814   3.879   2.122  0.6564 -0.3013  0.1800
   86MOL   C10922379   3.783   3.742   2.069  0.1171  0.3125  0.0736
   86MOL   C11022380   3.714   3.983   2.074  0.1613  0.1860  0.4774
   86MOL   H11122381   4.025   3.727   2.229 -1.2217 -0.5100  1.2956
   86MOL   H11222382   4.120   3.856   2.168  0.2032  2.3458  0.9950
   86MOL   H11322383   3.926   4.019   2.226 -1.2272 -0.0073 -1.3869
   86MOL   H11422384   3.847   3.668   2.115 -0.5305 -0.5518 -0.3987
   86MOL   H11522385   3.796   3.730   1.961 -3.0198 -1.2423 -0.1919
   86MOL   H11622386   3.683   3.709   2.097  1.1510 -2.5506  0.5256
   86MOL   H11722387   3.751   4.074   2.122  0.1592  0.4351  0.0124
   86MOL   H11822388   3.613   3.959   2.107 -1.4677  2.0993 -2.8170
   86MOL   C11922389   3.702   3.989   1.919  0.4410 -0.5352 -0.4069
   86MOL   C12022390   3.649   4.118   1.865 -0.3949  0.2893  0.8503
   86MOL   C12122391   3.665   4.167   1.737 -0.3439 -0.3598 -0.5228
   86MOL   C12222392   3.752   4.091   1.638 -0.6973  0.6996  0.8919
   86MOL   C12322393   3.618   4.307   1.702  0.0343 -0.0367  0.5810
   86MOL   H12422394   3.628   3.913   1.892  0.9036 -0.7761 -1.0020
   86MOL   H12522395   3.799   3.969   1.875  0.7910 -0.5823  0.3811
   86MOL   H12622396   3.591   4.174   1.937 -1.4975 -1.2221  1.1571
   86MOL   H12722397   3.698   4.098   1.543 -0.6715 -2.1669  0.6103
   86MOL   H12822398   3.771   3.985   1.657 -1.8452  0.3854  0.3360
   86MOL   H12922399   3.841   4.151   1.618  0.6228 -0.6341  2.5350
   86MOL   H13022400   3.673   4.347   1.617  0.7527 -0.6907  0.7396
   86MOL   H13122401   3.643   4.380   1.779 -0.7882 -0.4302  1.2347
   86MOL   C13222402   3.470   4.306   1.672 -0.1396  0.1580  0.1644
   86MOL   C13322403   3.441   4.444   1.614  0.4854 -0.4550 -0.7455
   86MOL   C13422404   3.403   4.549   1.679  0.2596  0.1122 -0.5248
   86MOL   C13522405   3.399   4.568   1.827 -0.0163 -0.5710  0.5143
   86MOL   C13622406   3.358   4.669   1.599  0.5437  0.4081  0.9364
   86MOL   H13722407   3.417   4.284   1.764  1.1284 -0.9080  0.6599
   86MOL   H13822408   3.432   4.232   1.602  1.1581  1.7950 -2.3659
   86MOL   H13922409   3.459   4.446   1.507  2.7407 -0.2874 -0.3910
   86MOL   H14022410   3.308   4.539   1.879  0.0182 -0.6956  0.5044
   86MOL   H14122411   3.415   4.671   1.861  2.9519 -1.1817  1.0903
   86MOL   H14222412   3.484   4.513   1.867  2.4183  1.9210 -1.0652
   86MOL   H14322413   3.400   4.670   1.498  0.7073  2.0368  1.0110
   86MOL   H14422414   3.383   4.763   1.649  2.5663  0.4927 -0.1687
   86MOL   C14522415   3.197   4.657   1.592 -0.1756 -0.6196  0.3495
   86MOL   C14622416   3.138   4.748   1.483 -1.5727 -0.6436  0.2502
   86MOL   C14722417   3.042   4.839   1.505  0.0986  0.0234 -1.1348
   86MOL   C14822418   2.967   4.862   1.641 -0.3712  0.4607 -0.6935
   86MOL   C14922419   2.995   4.927   1.395 -0.0179  0.5708  0.1683
   86MOL   H15022420   3.146   4.669   1.687  0.5024  0.2001  0.6217
   86MOL   H15122421   3.181   4.559   1.546 -1.2422  0.5028 -1.7586
   86MOL   H15222422   3.185   4.733   1.387 -0.1905  1.8015  0.4853
   86MOL   H15322423   2.865   4.894   1.624  0.4370  2.8047 -1.3772
   86MOL   H15422424   3.013   4.942   1.699 -0.5476  1.8976 -2.4854
   86MOL   H15522425   2.962   4.763   1.687  1.5225  1.7978  2.5564
   86MOL   H15622426   2.892   4.956   1.412 -0.1915 -0.7003  1.4010
   86MOL   H15722427   2.993   4.871   1.302  0.6008  2.0097 -0.7262
   86MOL   C15822428   3.070   5.052   1.378  0.2387 -0.2963  0.1892
   86MOL   C15922429   3.017   5.139   1.273 -0.3856 -0.2737  0.0316
   86MOL   C16022430   3.002   5.277   1.277 -0.4569 -0.1443 -0.2192
   86MOL   C16122431   3.043   5.354   1.401  0.9987  0.2886  0.4319
   86MOL   C16222432   2.949   5.362   1.168  0.5197 -0.2529 -0.2328
   86MOL   H16322433   3.168   5.019   1.344  1.1758  2.0136  0.5563
   86MOL   H16422434   3.073   5.107   1.472 -3.1041 -1.1748  0.8790
   86MOL   H16522435   2.980   5.097   1.180 -0.6397 -0.7890  0.3617
   86MOL   H16622436   3.018   5.460   1.392 -0.8969 -0.1271  0.6034
   86MOL   H16722437   3.150   5.362   1.416  1.5702 -0.8953 -2.7474
   86MOL   H16822438   3.001   5.306   1.489  2.1587 -2.3334 -0.4092
   86MOL   H16922439   2.945   5.299   1.080  0.3689  0.4760 -0.7509
   86MOL   H17022440   3.013   5.449   1.153  0.5215 -0.4930 -1.6143
   86MOL   C17122441   2.811   5.421   1.188 -0.5988  0.8436 -0.5279
   86MOL   C17222442   2.695   5.320   1.174 -0.5080 -0.2216  0.3479
   86MOL   C17322443   2.618   5.309   1.063 -0.4039 -0.7276  0.6213
   86MOL   C17422444   2.643   5.393   0.940 -0.3495  0.6265 -0.5902
   86MOL   C17522445   2.511   5.209   1.055 -0.0964  0.3752 -0.6007
   86MOL   H17622446   2.801   5.502   1.116  1.8322  0.0741 -1.7718
   86MOL   H17722447   2.800   5.468   1.286  2.7699  0.4732  0.1054
   86MOL   H17822448   2.677   5.255   1.259 -2.9650 -1.5735 -1.1421
   86MOL   H17922449   2.751   5.401   0.926 -0.2819 -1.0681 -1.1680
   86MOL   H18022450   2.584   5.484   0.936  1.0852  1.5836 -0.3637
   86MOL   H18122451   2.625   5.346   0.843  3.0426  1.1016 -1.5232
   86MOL   H18222452   2.430   5.248   0.994 -1.1872  0.2453  0.7464
   86MOL   H18322453   2.474   5.179   1.154  2.6336  0.8905  0.6303
   86MOL   C18422454   2.566   5.081   0.985 -0.0008 -0.3461  0.1096
   86MOL   C18522455   2.463   4.975   0.958  0.1551  0.3563 -0.5866
   86MOL   C18622456   2.449   4.904   0.842 -0.4692  0.0746  0.2396
   86MOL   C18722457   2.545   4.897   0.722 -0.9094  0.2066 -0.2921
   86MOL   C18822458   2.322   4.830   0.807  0.1213 -0.9367  0.5906
   86MOL   H18922459   2.648   5.045   1.046  0.0890 -4.3884 -2.2453
   86MOL   H19022460   2.621   5.110   0.895  1.7266 -1.2723  0.8584
   86MOL   H19122461   2.395   4.969   1.041  0.4115  1.0503 -0.3278
   86MOL   H19222462   2.527   4.808   0.662  1.9426 -0.1493 -0.6531
   86MOL   H19322463   2.652   4.898   0.744 -1.2725  3.2232  1.6065
   86MOL   H19422464   2.536   4.991   0.668  1.0906  0.7939  0.3484
   86MOL   H19522465   2.285   4.856   0.708 -0.2156 -0.8043  0.7502
   86MOL   H19622466   2.249   4.886   0.866 -0.3137  0.6273 -1.3655
   86MOL   C19722467   2.323   4.683   0.846  0.7183  0.0377  0.1394
   86MOL   C19822468   2.371   4.653   0.985  0.1070  0.0995  0.2900
   86MOL   C19922469   2.298   4.616   1.093  0.6696  0.1810 -0.0963
   86MOL   C20022470   2.150   4.589   1.075  0.3145  0.5668 -0.3180
   86MOL   C20122471   2.351   4.600   1.237 -0.0482 -0.4962 -0.0096
   86MOL   H20222472   2.395   4.636   0.778 -1.2730 -2.3609 -0.4086
   86MOL   H20322473   2.226   4.636   0.829 -0.7275  3.1678 -0.4745
   86MOL   H20422474   2.469   4.691   1.012 -0.1851  1.8343 -0.9852
   86MOL   H20522475   2.104   4.680   1.036 -0.2926  1.2808  1.9533
   86MOL   H20622476   2.099   4.572   1.171 -0.7854 -0.6640 -1.0988
   86MOL   H20722477   2.133   4.503   1.010 -0.7135  1.6852 -1.5471
   86MOL   H20822478   2.314   4.668   1.314 -0.0597 -0.3391 -0.1525
   86MOL   H20922479   2.459   4.618   1.234  0.2035 -2.0905 -0.6174
   86MOL   C21022480   2.340   4.455   1.295 -0.1202 -0.2570  0.4470
   86MOL   C21122481   2.391   4.433   1.439  0.6381 -0.1090  0.9203
   86MOL   C21222482   2.460   4.336   1.493  0.0527  0.2990 -0.6394
   86MOL   C21322483   2.491   4.211   1.410 -0.0309  0.1882 -0.6408
   86MOL   C21422484   2.523   4.351   1.628 -0.1323 -0.3619 -0.0797
   86MOL   H21522485   2.379   4.378   1.229 -0.4188 -1.2483  1.4151
   86MOL   H21622486   2.232   4.438   1.299 -0.4093  1.0854 -1.1773
   86MOL   H21722487   2.367   4.526   1.490 -2.0415  0.5759 -1.4736
   86MOL   H21822488   2.512   4.131   1.480 -1.8877 -0.1427 -0.4294
   86MOL   H21922489   2.578   4.238   1.351 -0.7892  3.9057 -0.1624
   86MOL   H22022490   2.411   4.179   1.342 -0.1688  0.5338 -0.6403
   86MOL   H22122491   2.521   4.455   1.661  1.9162 -0.6495  1.0429
   86MOL   H22222492   2.629   4.324   1.630 -0.0797 -0.1806 -0.4135
   86MOL   C22322493   2.440   4.264   1.729  0.1028  0.7065  0.4026
   86MOL   C22422494   2.484   4.278   1.873  0.2513 -0.3823 -0.4383
   86MOL   C22522495   2.459   4.369   1.971  0.4709  0.9502  0.4379
   86MOL   C22622496   2.359   4.481   1.941  0.1989 -0.4147 -0.4518
   86MOL   C22722497   2.513   4.368   2.108  0.1605 -0.1472 -0.8461
   86MOL   H22822498   2.454   4.158   1.710  3.0466  0.9577  0.8442
   86MOL   H22922499   2.335   4.287   1.712  0.2082  1.0792  0.2569
   86MOL   H23022500   2.549   4.196   1.900 -1.5659 -2.4301 -2.1379
   86MOL   H23122501   2.263   4.460   1.987  0.9661 -0.1253  1.3010
   86MOL   H23222502   2.340   4.474   1.834  0.0620  0.7218 -0.5068
   86MOL   H23322503   2.397   4.583   1.946  1.5184 -0.9000 -0.2674
   86MOL   H23422504   2.557   4.270   2.124 -0.2278 -0.0136  1.2028
   86MOL   H23522505   2.435   4.387   2.183  1.4504  2.7445 -0.1396
   86MOL   C23622506   2.620   4.475   2.127 -0.0345 -0.6026  0.2369
   86MOL   C23722507   2.729   4.452   2.026 -0.4010  0.4282  0.2892
   86MOL   C23822508   2.759   4.540   1.929  0.4416  0.1864 -0.5902
   86MOL   C23922509   2.684   4.667   1.888  0.5347  0.0324  0.0309
   86MOL   C24022510   2.875   4.504   1.829  0.1608 -0.1457 -0.1248
   86MOL   H24122511   2.663   4.486   2.226  0.7901  2.4726 -0.4123
   86MOL   H24222512   2.572   4.573   2.113  1.6546  0.2704  0.4555
   86MOL   H24322513   2.786   4.361   2.038 -0.1271  0.5484 -0.0916
   86MOL   H24422514   2.654   4.719   1.979 -2.0607 -0.2196 -0.6214
   86MOL   H24522515   2.597   4.648   1.825  1.1353  0.0483 -0.8191
   86MOL   H24622516   2.749   4.732   1.829  0.9760  0.6818  1.2164
   86MOL   H24722517   2.943   4.589   1.826  0.4447 -0.3676 -0.0105
   86MOL   H24822518   2.831   4.514   1.730 -0.7575  0.2445  0.3214
   86MOL   C24922519   2.939   4.361   1.841  0.4227 -1.1963 -0.5096
   86MOL   C25022520   3.042   4.340   1.737  0.0263 -0.3071  0.4183
   86MOL   C25122521   3.033   4.257   1.634  0.1877  0.0648  0.0094
   86MOL   C25222522   2.913   4.159   1.609 -0.0093 -0.0558 -0.3173
   86MOL   C25322523   3.141   4.248   1.533 -0.1161  0.3480  0.3379
   86MOL   H25422524   2.861   4.285   1.846 -0.6389 -0.0976 -0.1097
   86MOL   H25522525   2.992   4.361   1.937 -0.7714  2.4318  0.2238
   86MOL   H25622526   3.133   4.398   1.749  0.2966 -0.8466  1.0101
   86MOL   H25722527   2.937   4.058   1.577  1.8344 -0.0578  0.9788
   86MOL   H25822528   2.839   4.217   1.554  0.1758 -0.8203 -1.3966
   86MOL   H25922529   2.853   4.151   1.700  1.1457 -1.0331  0.3792
   86MOL   H26022530   3.225   4.190   1.573  1.0187  0.8682 -1.2442
   86MOL   H26122531   3.198   4.335   1.502  0.9645 -0.8836 -1.2494
   86MOL   H26222532   3.117   4.199   1.439 -0.1719  0.4875  0.2795
   87MOL     C122533   5.480   0.506   1.865  0.4769 -0.3080 -0.1717
   87MOL     C222534   5.478   0.362   1.809  0.1265 -0.1643 -0.1395
   87MOL     C322535   5.581   0.278   1.773  0.2402  0.0118 -0.4686
   87MOL     C422536   5.732   0.319   1.776  0.6417 -0.4113  0.3322
   87MOL     C522537   5.561   0.141   1.724 -0.7460 -0.2749 -0.3781
   87MOL     H622538   5.521   0.499   1.966  3.4873  0.6880 -1.2598
   87MOL     H722539   5.548   0.570   1.808 -0.7694 -0.1542 -1.5192
   87MOL     H822540   5.381   0.315   1.810  1.6254 -3.3537  0.4712
   87MOL     H922541   5.792   0.261   1.707 -3.0356  0.2725 -3.6077
   87MOL    H1022542   5.767   0.308   1.879 -1.6792  0.8500  1.2945
   87MOL    H1122543   5.754   0.425   1.763 -0.9835 -0.0861  0.1128
   87MOL    H1222544   5.625   0.112   1.641 -0.2043 -2.3587  0.7364
   87MOL    H1322545   5.458   0.135   1.688 -0.6983 -2.1014 -0.2626
   87MOL    H1422546   5.387   0.562   1.857 -0.0177 -1.3615 -2.0958
   87MOL    C1522547   5.568   0.037   1.839  0.0498  0.1735 -0.0832
   87MOL    C1622548   5.712   7.875   1.877  0.2751  0.2404 -0.6498
   87MOL    C1722549   5.762   7.868   2.003 -0.1758  0.8106  0.0887
   87MOL    C1822550   5.676   0.030   2.128 -0.4831 -1.3963  0.2431
   87MOL    C1922551   5.904   7.822   2.029 -0.6872 -0.3318 -0.2881
   87MOL    H2022552   5.525   7.824   1.810  0.2284 -0.1733  0.7965
   87MOL    H2122553   5.511   0.072   1.924 -0.4898 -1.3986  0.2095
   87MOL    H2222554   5.773   7.843   1.795 -1.3427 -1.5852 -1.1775
   87MOL    H2322555   5.744   0.069   2.204  0.2043 -0.4403 -0.8518
   87MOL    H2422556   5.619   7.829   2.169 -0.9163 -2.0486 -1.6391
   87MOL    H2522557   5.617   0.116   2.097  0.2697 -0.5344  1.1724
   87MOL    H2622558   5.928   7.738   1.963 -0.1992  0.3324 -0.9577
   87MOL    H2722559   5.918   7.779   2.129 -1.2298 -1.2164 -0.5853
   87MOL    C2822560   6.015   0.043   2.015 -0.0718 -0.2347  0.1593
   87MOL    C2922561   6.000   0.164   2.105 -0.6422 -0.2819  0.1927
   87MOL    C3022562   6.018   0.291   2.063  0.0361 -0.0395  0.2386
   87MOL    C3122563   6.067   0.332   1.922  0.6137  0.2272 -0.0883
   87MOL    C3222564   6.003   0.413   2.151  0.4625 -0.2170  0.1337
   87MOL    H3322565   6.018   0.069   1.909  0.5244 -2.6992 -0.4590
   87MOL    H3422566   6.112   7.877   2.026  0.3298  1.1406  3.0266
   87MOL    H3522567   5.969   0.138   2.204 -1.3104  1.5178  0.4684
   87MOL    H3622568   6.171   0.344   1.952 -0.2969  1.8663  2.6052
   87MOL    H3722569   6.015   0.425   1.901  2.4871  1.3869  0.3262
   87MOL    H3822570   6.052   0.256   1.844 -0.1743 -0.9397  1.1802
   87MOL    H3922571   6.083   0.487   2.139  1.0648 -0.7753  0.6652
   87MOL    H4022572   6.035   0.376   2.248 -1.0100  2.0854  1.5376
   87MOL    C4122573   5.868   0.475   2.155  0.5626 -0.4912  0.0533
   87MOL    C4222574   5.838   0.556   2.286  0.4367 -0.4011  0.3228
   87MOL    C4322575   5.832   0.684   2.296 -0.3013 -0.6143  0.1020
   87MOL    C4422576   5.853   0.784   2.184 -0.1992  0.6657 -0.2340
   87MOL    C4522577   5.812   0.748   2.441  0.0703 -0.1572 -0.0459
   87MOL    H4622578   5.796   0.395   2.141 -1.4996  1.0868  1.3422
   87MOL    H4722579   5.844   0.522   2.059  0.4430 -2.6871 -1.0334
   87MOL    H4822580   5.825   0.491   2.372 -1.8478  0.7347  0.8767
   87MOL    H4922581   5.880   0.742   2.088  1.1349 -1.4918  1.0302
   87MOL    H5022582   5.935   0.853   2.203 -0.0144  1.1623 -2.7761
   87MOL    H5122583   5.758   0.829   2.155 -1.7833 -1.7762  0.9428
   87MOL    H5222584   5.879   0.834   2.439 -1.6423  1.2823  1.9874
   87MOL    H5322585   5.851   0.681   2.518 -0.9090 -0.1003  0.5078
   87MOL    C5422586   5.672   0.801   2.461  0.0454 -0.1582  0.3071
   87MOL    C5522587   5.561   0.695   2.468  0.5074 -0.1114  0.1600
   87MOL    C5622588   5.479   0.657   2.372  0.9125 -0.3074  1.1115
   87MOL    C5722589   5.468   0.734   2.238  0.5835  0.8346 -0.1320
   87MOL    C5822590   5.381   0.542   2.376  0.0214  0.0869 -0.6808
   87MOL    H5922591   5.646   0.888   2.400  0.7118 -0.0721  0.1472
   87MOL    H6022592   5.654   0.831   2.565 -1.3212  1.5133 -0.3646
   87MOL    H6122593   5.563   0.643   2.562 -1.0502 -1.4258 -0.4887
   87MOL    H6222594   5.376   0.791   2.225  1.2431  2.4251  1.9278
   87MOL    H6322595   5.483   0.665   2.154  2.6056  0.9396  0.1174
   87MOL    H6422596   5.550   0.805   2.231  0.8642  0.3890 -1.5745
   87MOL    H6522597   5.293   0.589   2.331 -0.0208 -1.0374 -1.7795
   87MOL    H6622598   5.343   0.520   2.476  1.3670  0.4716 -0.0785
   87MOL    C6722599   5.418   0.415   2.289  0.1038  0.1831  0.3869
   87MOL    C6822600   5.348   0.281   2.321  0.3641 -0.5482 -0.4122
   87MOL    C6922601   5.281   0.198   2.239 -0.1519  0.1786  0.4312
   87MOL    C7022602   5.253   0.232   2.096  0.3410 -0.1683  0.5959
   87MOL    C7122603   5.205   0.081   2.292 -0.6851  0.3247  0.2086
   87MOL    H7222604   5.525   0.395   2.293  0.6715  2.8038 -0.2059
   87MOL    H7322605   5.396   0.433   2.183 -0.7635  0.0052  0.5300
   87MOL    H7422606   5.355   0.242   2.421  0.2028 -0.4215 -0.3503
   87MOL    H7522607   5.145   0.241   2.083  0.5706  2.2394  0.1178
   87MOL    H7622608   5.283   0.163   2.017 -2.1086 -0.5309 -0.0667
   87MOL    H7722609   5.289   0.327   2.058 -0.7932  0.2195  0.4644
   87MOL    H7822610   5.114   0.077   2.231 -0.4071 -0.0237 -0.1860
   87MOL    H7922611   5.176   0.090   2.396 -0.4308  1.6423  0.1692
   87MOL    C8022612   5.281   7.832   2.277 -1.2575  0.5979 -0.3032
   87MOL    C8122613   5.174   7.718   2.284 -0.0758  0.5342  0.4201
   87MOL    C8222614   5.166   7.605   2.361  0.7836  0.5395 -0.2637
   87MOL    C8322615   5.273   7.572   2.456 -0.2458 -0.7252  0.9595
   87MOL    C8422616   5.050   7.502   2.351  0.4355  0.1741 -0.4664
   87MOL    H8522617   5.362   7.826   2.349 -0.9221  3.2048 -0.4247
   87MOL    H8622618   5.336   7.815   2.184  0.3651  0.5506  0.6521
   87MOL    H8722619   5.085   7.728   2.224 -0.4262 -0.7935  0.7087
   87MOL    H8822620   5.288   7.465   2.446  0.2200 -0.6337  0.6444
   87MOL    H8922621   5.247   7.594   2.559  0.1617  2.1415  0.4938
   87MOL    H9022622   5.372   7.611   2.432 -0.7212  0.2389  0.5081
   87MOL    H9122623   5.090   7.408   2.313 -1.3006 -0.5783 -0.4617
   87MOL    H9222624   4.975   7.538   2.281 -1.7767 -0.0354  1.7167
   87MOL    C9322625   4.991   7.473   2.488 -0.2085 -0.4059 -0.0155
   87MOL    C9422626   4.869   7.388   2.464 -0.0828  0.2008  0.1181
   87MOL    C9522627   4.740   7.420   2.448 -0.3878  0.3530 -0.0943
   87MOL    C9622628   4.690   7.553   2.469 -0.1882 -0.5671  0.0325
   87MOL    C9722629   4.640   7.310   2.423  0.2491 -0.1799 -0.2621
   87MOL    H9822630   4.963   7.565   2.540  3.0485  0.9190 -0.5325
   87MOL    H9922631   5.056   7.418   2.555 -0.5124 -2.0658 -1.0682
   87MOL   H10022632   4.899   7.286   2.445 -2.0767 -0.3698 -0.0887
   87MOL   H10122633   4.620   7.553   2.553 -1.1073 -0.0800 -0.7185
   87MOL   H10222634   4.633   7.581   2.380 -0.2161  2.7645  1.0326
   87MOL   H10322635   4.770   7.626   2.483 -1.0371  0.5305 -0.6897
   87MOL   H10422636   4.707   7.226   2.406  2.3913  1.5273 -0.6132
   87MOL   H10522637   4.580   7.324   2.333 -0.4803 -1.7429 -0.0286
   87MOL   C10622638   4.541   7.285   2.535  0.1576 -0.1484  0.0661
   87MOL   C10722639   4.608   7.211   2.649  0.2768  0.5966  0.2219
   87MOL   C10822640   4.580   7.084   2.693 -0.8174 -0.8378  0.2291
   87MOL   C10922641   4.478   6.992   2.629  0.4611  0.2773 -0.3366
   87MOL   C11022642   4.664   7.024   2.801  0.5164  0.0835 -0.0913
   87MOL   H11122643   4.457   7.230   2.493 -0.3164  2.1302 -2.0413
   87MOL   H11222644   4.496   7.373   2.580  1.5220 -0.4517  2.1483
   87MOL   H11322645   4.683   7.265   2.706  0.1416  2.6625 -1.5036
   87MOL   H11422646   4.429   7.038   2.543  0.0213 -1.5172 -1.0598
   87MOL   H11522647   4.398   6.955   2.694  0.4492  1.2095  0.1901
   87MOL   H11622648   4.521   6.896   2.599 -1.3340 -0.2581 -1.2549
   87MOL   H11722649   4.597   6.969   2.866 -0.4507  1.4803  0.1230
   87MOL   H11822650   4.701   7.111   2.855 -0.3405  0.0149  0.6102
   87MOL   C11922651   4.766   6.933   2.734  0.5449 -0.3590 -0.5828
   87MOL   C12022652   4.860   6.895   2.837  0.2710 -0.1791 -0.0349
   87MOL   C12122653   4.868   6.772   2.900 -0.0351 -0.1413 -0.5012
   87MOL   C12222654   4.770   6.659   2.888  0.4291  0.0651 -0.3726
   87MOL   C12322655   4.986   6.744   2.994  0.4750 -0.8603  0.2680
   87MOL   H12422656   4.818   6.976   2.648 -0.1983 -1.8900 -1.8295
   87MOL   H12522657   4.709   6.845   2.704 -0.7234 -0.4087  1.8510
   87MOL   H12622658   4.935   6.972   2.852 -1.0959  0.8971  1.4300
   87MOL   H12722659   4.802   6.599   2.802  0.2914 -2.2924  1.1680
   87MOL   H12822660   4.665   6.685   2.870  0.0039 -1.1822  0.2504
   87MOL   H12922661   4.768   6.590   2.972  0.7302 -0.3428 -0.6972
   87MOL   H13022662   4.952   6.694   3.084  0.4130  0.2673  0.8823
   87MOL   H13122663   5.021   6.846   3.013 -3.3594  0.6372 -0.2054
   87MOL   C13222664   5.097   6.650   2.928  0.0614 -0.4263 -0.5341
   87MOL   C13322665   5.210   6.626   3.029  0.6568 -0.1240  0.4196
   87MOL   C13422666   5.346   6.629   3.008  0.4401  0.2259 -0.7841
   87MOL   C13522667   5.423   6.673   2.879  0.3263  0.0669  0.2780
   87MOL   C13622668   5.442   6.577   3.114  0.1334 -0.0800 -0.0294
   87MOL   H13722669   5.142   6.699   2.841  1.7422  0.5633  0.8522
   87MOL   H13822670   5.064   6.555   2.887  0.1779 -0.6230 -0.1714
   87MOL   H13922671   5.176   6.590   3.125 -1.2396  0.7671  0.1051
   87MOL   H14022672   5.502   6.599   2.864  0.9206  0.5433  1.0668
   87MOL   H14122673   5.465   6.773   2.885  1.0726 -0.2414  0.2121
   87MOL   H14222674   5.361   6.664   2.789 -1.0194  1.4442  1.0404
   87MOL   H14322675   5.505   6.495   3.079  1.3620  0.7318  0.2372
   87MOL   H14422676   5.385   6.537   3.198 -2.0447  0.6435 -1.1311
   87MOL   C14522677   5.527   6.699   3.153 -0.0970 -0.0803  0.8215
   87MOL   C14622678   5.620   6.655   3.271  0.2222 -0.4958  0.4655
   87MOL   C14722679   5.634   6.718   3.391  0.4616 -0.3949  0.3906
   87MOL   C14822680   5.549   6.837   3.434 -0.1978  0.8058 -0.0492
   87MOL   C14922681   5.722   6.672   3.498  0.4469  0.1727 -0.5311
   87MOL   H15022682   5.474   6.792   3.169  2.0853  0.8788  2.7154
   87MOL   H15122683   5.603   6.721   3.077 -0.4717  0.4714  0.6095
   87MOL   H15222684   5.679   6.566   3.251 -0.7053 -0.6443 -1.6471
   87MOL   H15322685   5.543   6.918   3.362 -0.7507  1.7550  1.0455
   87MOL   H15422686   5.579   6.876   3.531  3.4670 -1.2375 -0.2771
   87MOL   H15522687   5.449   6.796   3.453  0.7281 -1.8346 -0.6014
   87MOL   H15622688   5.667   6.670   3.593  0.7286 -3.6277 -0.3643
   87MOL   H15722689   5.801   6.747   3.503 -0.8203  1.4187  2.2028
   87MOL   C15822690   5.787   6.532   3.489 -0.2954 -0.4302  0.6075
   87MOL   C15922691   5.843   6.472   3.615 -0.2050 -0.4280 -0.6431
   87MOL   C16022692   5.957   6.515   3.678  0.9627 -0.8023  0.2622
   87MOL   C16122693   6.031   6.643   3.641 -0.2275  0.1770 -0.2827
   87MOL   C16222694   6.029   6.436   3.785 -0.3457  0.3952 -0.1884
   87MOL   H16322695   5.864   6.528   3.412 -1.6583  0.7399 -0.8565
   87MOL   H16422696   5.714   6.454   3.464 -1.0154  1.0517 -2.0806
   87MOL   H16522697   5.784   6.387   3.643  0.1449 -1.1488 -2.0724
   87MOL   H16622698   6.017   6.667   3.536 -0.5880 -1.5055 -0.6355
   87MOL   H16722699   6.137   6.625   3.659 -0.2781 -2.0557 -1.9242
   87MOL   H16822700   6.000   6.722   3.710 -2.1749 -0.4064 -0.4531
   87MOL   H16922701   6.121   6.407   3.734 -0.6210 -0.1695 -0.3613
   87MOL   H17022702   5.978   6.342   3.803  0.8824 -0.0675  0.8893
   87MOL   C17122703   6.067   6.499   3.916  0.3734  0.1386  0.0905
   87MOL   C17222704   6.119   6.387   4.017 -0.8838 -0.3388 -0.8487
   87MOL   C17322705   6.234   6.393   4.085  0.3676 -0.2189 -0.0291
   87MOL   C17422706   6.338   6.509   4.083 -0.2595 -0.1493  0.0870
   87MOL   C17522707   6.267   6.267   4.176  0.2642  0.2524 -0.5016
   87MOL   H17622708   5.974   6.536   3.958  0.0517 -0.2180 -0.3020
   87MOL   H17722709   6.134   6.585   3.906  0.0042  0.6349  1.7614
   87MOL   H17822710   6.056   6.300   4.026 -0.6651 -0.3186  1.1233
   87MOL   H17922711   6.303   6.582   4.010 -1.1028 -0.1296  0.5042
   87MOL   H18022712   6.436   6.477   4.047 -0.6960 -1.2238 -0.1648
   87MOL   H18122713   6.344   6.569   4.174  2.1501  0.3788 -0.4047
   87MOL   H18222714   6.355   6.210   4.148  0.4336  0.3189 -0.1076
   87MOL   H18322715   6.190   6.189   4.173 -1.2453  1.6758  0.2752
   87MOL   C18422716   6.289   6.322   4.322 -0.8287 -0.2267  0.0382
   87MOL   C18522717   6.250   6.232   4.433  0.4784  0.0141 -0.4650
   87MOL   C18622718   6.207   6.272   4.555  0.7644  0.0848  0.3180
   87MOL   C18722719   6.215   6.418   4.605  0.1564 -0.7224  0.7918
   87MOL   C18822720   6.155   6.162   4.651  0.1977  0.7481  0.0985
   87MOL   H18922721   6.225   6.409   4.339 -2.1122 -0.9070 -1.1931
   87MOL   H19022722   6.389   6.360   4.341 -1.8830  1.4292  2.5878
   87MOL   H19122723   6.236   6.128   4.409 -1.7624  0.1014  0.3025
   87MOL   H19222724   6.246   6.497   4.537 -0.9174 -0.9734  0.0013
   87MOL   H19322725   6.284   6.427   4.689  1.9396 -2.7410 -0.4257
   87MOL   H19422726   6.112   6.440   4.631  0.3662  0.1390  0.9325
   87MOL   H19522727   6.229   6.149   4.730  1.5133  0.8216 -1.0979
   87MOL   H19622728   6.153   6.069   4.594  0.3082  1.1155 -0.5015
   87MOL   C19722729   6.027   6.189   4.725  0.4954 -0.0211 -0.2193
   87MOL   C19822730   5.998   6.067   4.810 -0.1746  0.1658 -0.3230
   87MOL   C19922731   5.982   6.053   4.950 -0.7304  0.2536 -0.2767
   87MOL   C20022732   5.971   6.180   5.038 -0.2269  0.0884  0.1462
   87MOL   C20122733   5.975   5.916   5.018 -0.1066  0.0521  0.1820
   87MOL   H20222734   5.942   6.201   4.657  0.7760  1.2207 -0.3731
   87MOL   H20322735   6.044   6.278   4.785 -1.1988  0.8442 -0.9708
   87MOL   H20422736   5.997   5.971   4.760 -1.2557  0.1495 -0.2850
   87MOL   H20522737   5.905   6.253   4.993  1.6602  1.2954 -0.7143
   87MOL   H20622738   6.069   6.224   5.056 -0.7591  0.7522  1.4923
   87MOL   H20722739   5.928   6.154   5.135  0.3844  0.9470  0.6548
   87MOL   H20822740   6.052   5.907   5.094 -0.4722 -0.9338  0.4485
   87MOL   H20922741   6.005   5.843   4.943  1.0566  0.1766  0.5168
   87MOL   C21022742   5.844   5.869   5.069  0.0449 -0.4770  0.0010
   87MOL   C21122743   5.872   5.745   5.144 -0.3612  0.1543  0.7523
   87MOL   C21222744   5.807   5.629   5.122 -0.0055 -0.6835 -0.6794
   87MOL   C21322745   5.718   5.588   5.009 -0.3485 -0.3358 -0.0902
   87MOL   C21422746   5.827   5.512   5.222  0.0252  0.2089 -0.1372
   87MOL   H21522747   5.772   5.851   4.989  1.4040 -1.1437 -1.0978
   87MOL   H21622748   5.804   5.940   5.140 -0.8992 -0.4444 -0.5577
   87MOL   H21722749   5.934   5.757   5.231 -0.5945 -0.3251  0.9876
   87MOL   H21822750   5.661   5.673   4.970 -0.7853  1.1877  3.6755
   87MOL   H21922751   5.642   5.522   5.051 -0.1085  0.6635  1.9809
   87MOL   H22022752   5.788   5.533   4.947  0.9772 -2.1218  2.9059
   87MOL   H22122753   5.934   5.519   5.241  0.3353 -0.0740 -1.7387
   87MOL   H22222754   5.808   5.412   5.183  2.1042 -0.1012 -0.3940
   87MOL   C22322755   5.756   5.531   5.359 -0.0330  0.7530  0.3382
   87MOL   C22422756   5.770   5.402   5.439 -0.3717 -0.2470 -0.4274
   87MOL   C22522757   5.676   5.313   5.466  0.1879 -0.6023 -0.2092
   87MOL   C22622758   5.530   5.313   5.409 -0.2259  0.5111  0.1537
   87MOL   C22722759   5.717   5.194   5.541  0.0243  0.1730  0.3104
   87MOL   H22822760   5.654   5.566   5.346 -0.6205 -0.8445  0.6758
   87MOL   H22922761   5.801   5.609   5.421  1.1726 -0.1542  0.6375
   87MOL   H23022762   5.867   5.387   5.485  0.1211 -1.2191 -1.7401
   87MOL   H23122763   5.485   5.413   5.409  0.5249  0.8488  0.1781
   87MOL   H23222764   5.461   5.247   5.462 -0.7482 -0.5267 -1.8040
   87MOL   H23322765   5.525   5.270   5.309 -0.4541  1.4702 -0.2507
   87MOL   H23422766   5.636   5.186   5.613 -1.5442  0.2093 -1.4108
   87MOL   H23522767   5.808   5.201   5.601  1.7333  1.5357 -2.3554
   87MOL   C23622768   5.727   5.070   5.446  0.8023 -0.2727 -0.5694
   87MOL   C23722769   5.685   4.945   5.523  0.4924 -0.6194 -0.0585
   87MOL   C23822770   5.743   4.825   5.519  0.0479  0.2154 -0.3138
   87MOL   C23922771   5.869   4.791   5.443 -0.4573 -0.8113  0.3248
   87MOL   C24022772   5.669   4.701   5.576 -0.4589 -0.1047 -0.0387
   87MOL   H24122773   5.827   5.051   5.407  2.0752  3.7259  0.5623
   87MOL   H24222774   5.656   5.071   5.364 -0.3845 -2.3551  0.4080
   87MOL   H24322775   5.592   4.953   5.576  0.6457 -2.2742  0.4854
   87MOL   H24422776   5.851   4.779   5.336 -0.6114 -0.6254  0.3288
   87MOL   H24522777   5.901   4.693   5.479  1.5686  0.0331  0.9281
   87MOL   H24622778   5.937   4.873   5.467 -0.1903 -1.0200  0.2828
   87MOL   H24722779   5.590   4.733   5.644 -1.0109  0.3626 -0.8993
   87MOL   H24822780   5.733   4.636   5.636 -1.6146  0.8521  2.3373
   87MOL   C24922781   5.603   4.624   5.463  0.1666 -0.2344 -0.0566
   87MOL   C25022782   5.553   4.483   5.481  0.4487  0.1698  0.0360
   87MOL   C25122783   5.620   4.371   5.464  0.7458  0.3606  0.1806
   87MOL   C25222784   5.767   4.364   5.422 -0.1340  0.2302  0.0195
   87MOL   C25322785   5.562   4.233   5.488 -0.2806  0.9116  0.4368
   87MOL   H25422786   5.678   4.624   5.384  0.1030  0.9682 -0.1292
   87MOL   H25522787   5.509   4.669   5.431  0.5543  0.2966 -0.4607
   87MOL   H25622788   5.449   4.474   5.507  0.5801  2.3848  1.4237
   87MOL   H25722789   5.807   4.465   5.424 -2.0033  0.9623  1.0415
   87MOL   H25822790   5.783   4.314   5.327  0.0379  1.1038 -0.4173
   87MOL   H25922791   5.824   4.306   5.495 -1.5548 -1.5698 -0.2634
   87MOL   H26022792   5.583   4.191   5.587  0.9301  0.0683 -0.1662
   87MOL   H26122793   5.600   4.160   5.416 -1.9261  2.5018 -2.1264
   87MOL   H26222794   5.454   4.237   5.474 -0.3844  1.1022  1.2478
   88MOL     C122795   2.644   5.294   3.339 -0.0410 -0.5396 -0.8078
   88MOL     C222796   2.740   5.193   3.295 -0.2199  0.8004  0.1442
   88MOL     C322797   2.874   5.187   3.317  0.4655  0.1320  0.6271
   88MOL     C422798   2.949   5.300   3.385 -0.1484 -0.2732  0.2293
   88MOL     C522799   2.966   5.074   3.273 -0.0170  0.2607 -0.5470
   88MOL     H622800   2.633   5.276   3.446 -0.1763 -1.3176 -0.9501
   88MOL     H722801   2.688   5.393   3.333 -1.7852  0.1948 -1.5132
   88MOL     H822802   2.689   5.116   3.239 -0.0969  1.4272 -0.8350
   88MOL     H922803   2.880   5.379   3.415  1.3849  1.3987 -0.5047
   88MOL    H1022804   3.013   5.346   3.310  0.4409  2.1786  2.1550
   88MOL    H1122805   2.999   5.272   3.478 -1.7950  3.0476  2.2235
   88MOL    H1222806   2.908   4.986   3.245  0.0423 -0.3760  1.2849
   88MOL    H1322807   3.014   5.049   3.368 -2.8208  2.0429  1.4364
   88MOL    H1422808   2.546   5.283   3.293 -0.8671  1.9858  0.2872
   88MOL    C1522809   3.059   5.112   3.161  0.1379 -0.1569  0.1304
   88MOL    C1622810   3.124   4.983   3.123 -0.4348  0.3968 -0.1634
   88MOL    C1722811   3.225   4.965   3.039  0.1410 -0.0050  0.4676
   88MOL    C1822812   3.283   5.083   2.958 -0.0339  0.3723 -0.6983
   88MOL    C1922813   3.285   4.831   3.011  0.2676 -0.6425 -0.2198
   88MOL    H2022814   3.129   5.191   3.192 -0.1389  1.1204 -2.3795
   88MOL    H2122815   3.003   5.163   3.083 -0.7981 -2.6287 -0.8579
   88MOL    H2222816   3.094   4.897   3.181  1.1079 -1.4706 -2.0099
   88MOL    H2322817   3.301   5.049   2.856 -0.1615 -1.0958 -0.2526
   88MOL    H2422818   3.370   5.133   2.999  0.3081  2.7626 -4.1028
   88MOL    H2522819   3.210   5.163   2.946  0.5374  1.1500  0.9167
   88MOL    H2622820   3.270   4.830   2.903 -0.1115  2.3216 -0.2271
   88MOL    H2722821   3.234   4.747   3.058  0.1966 -1.0424 -1.0039
   88MOL    C2822822   3.432   4.836   3.043 -0.2166  0.0695 -0.0113
   88MOL    C2922823   3.488   4.701   3.019 -0.6726  0.9782  0.0790
   88MOL    C3022824   3.546   4.615   3.099  0.5527 -0.2204  0.5285
   88MOL    C3122825   3.580   4.649   3.240  0.0897 -0.5984 -0.4324
   88MOL    C3222826   3.581   4.474   3.060 -0.5226  0.1697 -0.1067
   88MOL    H3322827   3.433   4.868   3.148 -1.5527 -0.3887  0.1509
   88MOL    H3422828   3.477   4.914   2.982  2.9802 -1.1759  0.6364
   88MOL    H3522829   3.468   4.661   2.920  0.0061  1.3991 -0.2305
   88MOL    H3622830   3.676   4.600   3.254  0.0267 -0.6016  0.0282
   88MOL    H3722831   3.496   4.613   3.301 -1.0495  1.9193 -0.4674
   88MOL    H3822832   3.604   4.753   3.262 -2.3183 -0.1973  0.5501
   88MOL    H3922833   3.684   4.447   3.085 -0.7864  0.4202  1.3169
   88MOL    H4022834   3.579   4.468   2.952 -0.3818 -3.6085  0.0395
   88MOL    C4122835   3.487   4.366   3.121  0.4648 -0.0892 -0.3676
   88MOL    C4222836   3.500   4.237   3.047  0.4904 -0.2796 -0.1326
   88MOL    C4322837   3.529   4.109   3.086 -0.0165 -0.4955  0.6577
   88MOL    C4422838   3.547   4.078   3.233 -0.6155  0.6454  0.4874
   88MOL    C4522839   3.511   3.989   2.988  0.0382  0.2895 -0.1589
   88MOL    H4622840   3.388   4.402   3.093 -0.3839 -0.8410  1.5822
   88MOL    H4722841   3.493   4.366   3.230  1.3605 -1.1415 -0.4067
   88MOL    H4822842   3.470   4.264   2.947  1.2387  3.1938  0.5348
   88MOL    H4922843   3.541   4.167   3.296  2.8662  0.1200  1.6550
   88MOL    H5022844   3.644   4.034   3.255  0.1280  0.8897 -2.1238
   88MOL    H5122845   3.466   4.012   3.262 -0.3145 -0.2716 -0.7485
   88MOL    H5222846   3.600   3.981   2.927 -0.5070  0.1766 -0.9396
   88MOL    H5322847   3.423   4.001   2.924  0.3223  1.9605 -0.2502
   88MOL    C5422848   3.482   3.849   3.058  0.3506  0.1407  0.4461
   88MOL    C5522849   3.490   3.729   2.970  0.0888  0.3528 -0.2771
   88MOL    C5622850   3.384   3.638   2.943 -1.1558 -0.1818  0.5990
   88MOL    C5722851   3.235   3.664   2.964 -0.3397 -0.0631  0.0274
   88MOL    C5822852   3.401   3.505   2.879  0.1080  0.0202 -0.5187
   88MOL    H5922853   3.387   3.851   3.112  0.8634  0.8567  1.3445
   88MOL    H6022854   3.553   3.828   3.139 -0.8007 -0.4959  1.3065
   88MOL    H6122855   3.590   3.696   2.946 -0.3995 -1.1563 -0.2955
   88MOL    H6222856   3.209   3.764   3.000 -0.9162 -0.1245 -0.2027
   88MOL    H6322857   3.176   3.603   3.032 -1.0320  1.4476  0.8149
   88MOL    H6422858   3.178   3.662   2.871 -0.5310  1.1725  0.1110
   88MOL    H6522859   3.496   3.485   2.829  0.8110  1.8477  0.0515
   88MOL    H6622860   3.326   3.500   2.800 -2.2640  2.0261  1.5259
   88MOL    C6722861   3.380   3.395   2.983 -0.2447  0.0681  0.3937
   88MOL    C6822862   3.488   3.403   3.089  0.5584  0.0547 -0.3057
   88MOL    C6922863   3.476   3.439   3.219  0.1834  1.0804 -0.3452
   88MOL    C7022864   3.350   3.477   3.288 -0.0116 -0.2607 -0.1282
   88MOL    C7122865   3.599   3.451   3.302 -0.4618  0.3804 -0.0998
   88MOL    H7222866   3.391   3.295   2.940 -0.3828  1.1028 -2.1707
   88MOL    H7322867   3.281   3.385   3.028 -0.6421  0.5030 -0.3699
   88MOL    H7422868   3.585   3.384   3.045 -0.3050 -2.0618 -1.3629
   88MOL    H7522869   3.352   3.437   3.389  1.1822  2.4630  0.9631
   88MOL    H7622870   3.261   3.443   3.234 -0.8445  0.1184  0.9793
   88MOL    H7722871   3.352   3.586   3.297  1.2229 -0.2869 -0.0421
   88MOL    H7822872   3.592   3.544   3.360 -0.5080 -0.5561  1.4197
   88MOL    H7922873   3.689   3.462   3.241  1.0353  2.3799  2.3810
   88MOL    C8022874   3.618   3.335   3.396 -0.0247  0.4100 -0.8190
   88MOL    C8122875   3.725   3.368   3.499  0.3666  0.2729  0.3243
   88MOL    C8222876   3.710   3.409   3.625 -0.8346 -0.8433 -0.5496
   88MOL    C8322877   3.583   3.465   3.666  0.6291  0.5736 -0.2354
   88MOL    C8422878   3.822   3.424   3.718  0.1139 -0.2168  0.1379
   88MOL    H8522879   3.650   3.247   3.339  2.2743  0.2367  0.6831
   88MOL    H8622880   3.524   3.296   3.433  1.0430 -1.8754 -0.3866
   88MOL    H8722881   3.827   3.348   3.469  0.7439  2.5270  0.0509
   88MOL    H8822882   3.592   3.564   3.710  1.3598 -0.7004  2.6631
   88MOL    H8922883   3.543   3.399   3.744 -2.5835  1.9467 -0.6570
   88MOL    H9022884   3.512   3.473   3.584 -0.3311 -0.1028  0.5041
   88MOL    H9122885   3.830   3.528   3.748  0.5151 -0.1779 -0.0938
   88MOL    H9222886   3.918   3.406   3.669 -0.3232 -1.5177 -0.2787
   88MOL    C9322887   3.809   3.330   3.834 -0.4169 -0.5558 -0.5788
   88MOL    C9422888   3.822   3.184   3.792  0.0076 -0.0764  0.8530
   88MOL    C9522889   3.883   3.086   3.862  0.2363 -0.4016 -0.5288
   88MOL    C9622890   3.958   3.119   3.992 -0.1838 -0.3113 -0.1029
   88MOL    C9722891   3.908   2.947   3.807 -0.4007 -0.6667 -0.3474
   88MOL    H9822892   3.715   3.351   3.884  0.2674  0.7130  0.1998
   88MOL    H9922893   3.887   3.359   3.904 -1.0507  0.3446 -0.2350
   88MOL   H10022894   3.785   3.158   3.694 -0.1941 -0.5395  1.0526
   88MOL   H10122895   3.947   3.032   4.056 -1.1868  0.4520  0.7816
   88MOL   H10222896   3.925   3.207   4.047  1.0932  0.2041 -0.1551
   88MOL   H10322897   4.065   3.134   3.982 -0.1536 -0.7738 -0.5201
   88MOL   H10422898   3.850   2.919   3.719  0.2055  1.0220 -1.3313
   88MOL   H10522899   3.885   2.885   3.893 -3.8196  1.3135  0.2421
   88MOL   C10622900   4.058   2.924   3.762 -0.3394  0.5050  0.2876
   88MOL   C10722901   4.070   2.780   3.708 -0.8751 -0.1679  0.3705
   88MOL   C10822902   4.190   2.723   3.676  0.7341 -0.3791  0.4725
   88MOL   C10922903   4.332   2.788   3.678 -0.1187 -0.7563  0.0072
   88MOL   C11022904   4.194   2.578   3.639 -0.2990  0.3154  0.1057
   88MOL   H11122905   4.130   2.935   3.842  0.3320 -1.3585 -0.0322
   88MOL   H11222906   4.107   2.983   3.684 -0.4593  0.2982  0.0551
   88MOL   H11322907   3.985   2.713   3.711  1.0590 -2.5981  2.1427
   88MOL   H11422908   4.379   2.734   3.761 -0.5382 -0.7515  0.2464
   88MOL   H11522909   4.323   2.895   3.696  1.0926 -0.1312 -2.8865
   88MOL   H11622910   4.385   2.769   3.585  2.3346  1.9802  0.7576
   88MOL   H11722911   4.098   2.529   3.658  0.2377 -0.0497  1.9929
   88MOL   H11822912   4.273   2.522   3.689 -0.6886 -1.5705 -1.3637
   88MOL   C11922913   4.229   2.554   3.490 -0.4864 -0.5224 -0.3293
   88MOL   C12022914   4.222   2.411   3.451 -0.3686  0.5506  0.0356
   88MOL   C12122915   4.316   2.328   3.396  0.6463  0.0166 -0.6503
   88MOL   C12222916   4.458   2.372   3.362  0.1971  0.2137  0.2657
   88MOL   C12322917   4.286   2.182   3.356  0.1002  0.4046 -0.3506
   88MOL   H12422918   4.329   2.591   3.465 -0.6300  0.3430  0.3504
   88MOL   H12522919   4.161   2.608   3.425  2.9989  4.0136 -0.4261
   88MOL   H12622920   4.122   2.372   3.461  0.2231 -1.2838 -0.8663
   88MOL   H12722921   4.510   2.301   3.299  0.1799  2.8283 -2.8486
   88MOL   H12822922   4.521   2.393   3.449 -1.5572  2.9529  0.9249
   88MOL   H12922923   4.455   2.466   3.306  0.8770 -0.9081 -1.6819
   88MOL   H13022924   4.195   2.155   3.410  0.5212 -0.8432 -0.2423
   88MOL   H13122925   4.366   2.117   3.393 -0.8347 -0.6058 -0.0697
   88MOL   C13222926   4.263   2.154   3.205  0.3588 -0.3800  0.7830
   88MOL   C13322927   4.139   2.223   3.143  0.5956  0.2466  0.3032
   88MOL   C13422928   4.004   2.189   3.142  0.0594 -0.6878 -0.4449
   88MOL   C13522929   3.947   2.061   3.190 -0.5176  0.5420  0.5023
   88MOL   C13622930   3.905   2.285   3.077 -0.1260  0.2566 -0.7774
   88MOL   H13722931   4.265   2.046   3.186 -1.2414 -0.5951  1.7215
   88MOL   H13822932   4.339   2.197   3.140 -0.6728 -0.1267 -0.2768
   88MOL   H13922933   4.163   2.320   3.102 -1.6037 -0.0725 -1.9333
   88MOL   H14022934   3.896   1.992   3.123  0.7408  1.9180 -1.9355
   88MOL   H14122935   3.872   2.085   3.266 -1.8817  0.2965 -0.7611
   88MOL   H14222936   4.028   2.002   3.232 -0.4091 -0.2030 -0.7377
   88MOL   H14322937   3.862   2.237   2.989  0.7275 -0.9956 -0.5263
   88MOL   H14422938   3.963   2.364   3.030  1.0377  1.0777  1.9225
   88MOL   C14522939   3.808   2.349   3.177 -0.0475  0.6816 -0.0203
   88MOL   C14622940   3.737   2.473   3.121  0.1662  0.3587  0.1490
   88MOL   C14722941   3.606   2.496   3.124  0.5777 -0.5468  0.3648
   88MOL   C14822942   3.506   2.391   3.186  0.6257  0.2816 -0.4966
   88MOL   C14922943   3.546   2.613   3.045  0.3830  0.4325 -0.4043
   88MOL   H15022944   3.870   2.387   3.258 -0.0506 -1.1598  0.8702
   88MOL   H15122945   3.745   2.276   3.229 -0.3995  0.4901 -0.7065
   88MOL   H15222946   3.802   2.548   3.079  2.1012 -1.0535  0.5478
   88MOL   H15322947   3.553   2.293   3.171  4.1659  1.9097 -0.5115
   88MOL   H15422948   3.408   2.402   3.139  0.6844  1.3321 -0.3658
   88MOL   H15522949   3.506   2.406   3.294  1.9584 -1.6751 -0.1904
   88MOL   H15622950   3.482   2.581   2.964 -0.0920 -2.7260  1.1401
   88MOL   H15722951   3.618   2.673   2.988  1.3101 -1.4745 -1.2882
   88MOL   C15822952   3.473   2.706   3.155  0.5671  0.5966 -0.2260
   88MOL   C15922953   3.363   2.790   3.094  0.2409 -0.6159  1.1728
   88MOL   C16022954   3.377   2.913   3.049 -0.2403 -0.8969 -0.6224
   88MOL   C16122955   3.514   2.969   3.026  0.6022  0.0808  0.6125
   88MOL   C16222956   3.256   3.003   3.013  0.0126  0.3191 -0.0711
   88MOL   H16322957   3.540   2.771   3.211 -2.0431  1.5634  1.8444
   88MOL   H16422958   3.429   2.641   3.231 -1.5630  0.6825 -1.3582
   88MOL   H16522959   3.262   2.752   3.105  0.5329 -2.0655 -0.8457
   88MOL   H16622960   3.529   3.056   3.089 -0.2162  0.4719  0.2649
   88MOL   H16722961   3.534   2.991   2.921  0.4305 -2.0401  0.1068
   88MOL   H16822962   3.593   2.899   3.055 -0.8312 -1.1089  1.7382
   88MOL   H16922963   3.174   2.935   2.989 -0.4361 -0.3651  3.1724
   88MOL   H17022964   3.270   3.055   2.918  1.2674 -1.1483 -0.6990
   88MOL   C17122965   3.210   3.101   3.124  0.2832 -0.0402  0.1700
   88MOL   C17222966   3.097   3.196   3.084  0.0448  0.6375  0.0602
   88MOL   C17322967   2.977   3.205   3.144 -0.4027 -0.0604  0.6304
   88MOL   C17422968   2.925   3.122   3.261  0.5233  0.2589 -0.0195
   88MOL   C17522969   2.870   3.292   3.093  0.0791 -0.7357  0.4648
   88MOL   H17622970   3.294   3.165   3.154  0.0216 -0.5100  1.9194
   88MOL   H17722971   3.187   3.048   3.216 -1.3087  3.3378  1.7970
   88MOL   H17822972   3.124   3.261   3.002  0.0127  0.9148  0.2698
   88MOL   H17922973   2.983   3.036   3.293  3.4733  2.2616  0.1851
   88MOL   H18022974   2.826   3.084   3.236  1.2102 -2.2954  1.0259
   88MOL   H18122975   2.922   3.193   3.345 -3.8020 -1.1578  1.1606
   88MOL   H18222976   2.812   3.336   3.174 -0.3224 -0.6107  0.1186
   88MOL   H18322977   2.806   3.219   3.043  1.0576 -0.2267 -1.6042
   88MOL   C18422978   2.908   3.397   2.989 -0.0780  0.4053  0.1742
   88MOL   C18522979   2.788   3.453   2.911 -0.0681 -0.0256 -0.3991
   88MOL   C18622980   2.758   3.585   2.893  0.0994 -0.1815  0.1182
   88MOL   C18722981   2.852   3.698   2.939  0.3320 -0.0938  0.3176
   88MOL   C18822982   2.632   3.634   2.826  0.0079  1.1617 -0.1367
   88MOL   H18922983   2.977   3.360   2.914 -0.7202 -2.2577  0.8174
   88MOL   H19022984   2.971   3.472   3.036 -0.2603  0.4692  0.3214
   88MOL   H19122985   2.715   3.380   2.880 -1.8883  1.1568  0.9432
   88MOL   H19222986   2.951   3.666   2.973 -0.0421  1.9897  3.5600
   88MOL   H19322987   2.803   3.759   3.014 -0.3601  1.5196 -1.4291
   88MOL   H19422988   2.866   3.768   2.857 -0.4998 -0.1333  0.1363
   88MOL   H19522989   2.644   3.722   2.763  0.6328  0.5292 -0.9212
   88MOL   H19622990   2.578   3.669   2.914 -1.3220 -0.2491 -0.3707
   88MOL   C19722991   2.544   3.537   2.739  0.2194 -0.6377 -0.3201
   88MOL   C19822992   2.605   3.462   2.630  0.1592  0.1159  0.4998
   88MOL   C19922993   2.566   3.456   2.501 -0.8151  0.1029  0.0277
   88MOL   C20022994   2.432   3.503   2.448  0.4022  0.3395  0.7679
   88MOL   C20122995   2.648   3.371   2.398 -0.2849 -0.4006 -0.8885
   88MOL   H20222996   2.454   3.590   2.706  1.4599  0.8247 -1.4028
   88MOL   H20322997   2.505   3.467   2.814  1.4358 -0.0534  0.8786
   88MOL   H20422998   2.702   3.421   2.653 -0.7592 -3.7833 -2.1089
   88MOL   H20522999   2.349   3.454   2.499 -0.9391  1.6330 -0.1252
   88MOL   H20623000   2.424   3.491   2.340  1.0603 -0.3866  0.8002
   88MOL   H20723001   2.412   3.610   2.460 -0.7600  0.1766  0.4244
   88MOL   H20823002   2.614   3.268   2.388  0.9063 -1.0492  1.4151
   88MOL   H20923003   2.747   3.363   2.444 -1.1361 -2.0239  0.7352
   88MOL   C21023004   2.661   3.431   2.254  0.3035 -0.3401  0.1318
   88MOL   C21123005   2.774   3.375   2.179 -0.1299  0.2082  0.0997
   88MOL   C21223006   2.878   3.438   2.112 -0.4306  0.4295 -0.1940
   88MOL   C21323007   2.894   3.584   2.118 -0.1900  0.2741 -0.7540
   88MOL   C21423008   2.992   3.364   2.043  0.2359 -0.0887  1.1271
   88MOL   H21523009   2.686   3.534   2.281 -2.4609  0.6119 -0.8235
   88MOL   H21623010   2.571   3.427   2.193  0.9473  0.0034 -0.8580
   88MOL   H21723011   2.765   3.267   2.171  1.0961  0.1714 -1.0555
   88MOL   H21823012   2.973   3.618   2.185 -1.3867  0.1696  0.7286
   88MOL   H21923013   2.805   3.633   2.157  0.3653  0.1536  0.7060
   88MOL   H22023014   2.907   3.625   2.017  2.3520 -1.9447 -1.4023
   88MOL   H22123015   3.017   3.420   1.953 -0.2825 -1.3385  0.1875
   88MOL   H22223016   2.942   3.273   2.011  0.9754 -0.3186  0.6019
   88MOL   C22323017   3.119   3.348   2.123  0.2241  0.3682  0.3686
   88MOL   C22423018   3.193   3.218   2.082  0.0956 -0.1020  0.1253
   88MOL   C22523019   3.191   3.097   2.146 -0.4683 -0.1143  0.5681
   88MOL   C22623020   3.114   3.070   2.271 -0.6532 -0.8141 -0.4773
   88MOL   C22723021   3.275   2.971   2.100  0.5503 -0.0337  0.7308
   88MOL   H22823022   3.105   3.348   2.231 -0.4310 -2.3705  0.3159
   88MOL   H22923023   3.193   3.421   2.091 -1.4065  1.7863 -0.2436
   88MOL   H23023024   3.252   3.218   1.992  1.1759  0.6068  0.8199
   88MOL   H23123025   3.177   3.058   2.360 -3.2996  0.4475  1.6311
   88MOL   H23223026   3.057   2.978   2.255 -1.3863 -0.5887  0.7335
   88MOL   H23323027   3.044   3.153   2.272 -1.0765 -1.1654 -0.9044
   88MOL   H23423028   3.294   2.903   2.183 -1.3973  0.7718  1.8702
   88MOL   H23523029   3.375   3.007   2.078 -0.4076  2.3070 -0.0016
   88MOL   C23623030   3.208   2.894   1.983 -0.2314  0.2158 -0.1803
   88MOL   C23723031   3.071   2.834   2.010 -1.1429 -0.3883  0.8115
   88MOL   C23823032   3.059   2.713   2.066  0.5565  0.4889 -0.1835
   88MOL   C23923033   3.176   2.619   2.103 -0.3651  0.2217 -0.4038
   88MOL   C24023034   2.923   2.671   2.114 -0.0064 -0.3505 -0.8816
   88MOL   H24123035   3.284   2.825   1.943  0.6427  0.5488  0.8751
   88MOL   H24223036   3.199   2.964   1.900 -0.6212 -2.7152 -2.7037
   88MOL   H24323037   2.982   2.894   1.998 -0.6879  0.2819  0.7719
   88MOL   H24423038   3.146   2.514   2.095  1.2741 -0.2607 -0.4488
   88MOL   H24523039   3.201   2.641   2.207  0.4532 -0.6320 -0.4166
   88MOL   H24623040   3.272   2.640   2.057  0.4895  0.3782  1.4029
   88MOL   H24723041   2.861   2.757   2.137  1.3552 -0.0199  1.7150
   88MOL   H24823042   2.926   2.619   2.210 -0.2143  0.1484 -0.6033
   88MOL   C24923043   2.844   2.572   2.024 -0.5192 -0.4296  0.1742
   88MOL   C25023044   2.697   2.570   2.068  0.1772  0.9207 -0.2218
   88MOL   C25123045   2.583   2.584   1.995 -0.0966  0.1921  0.3697
   88MOL   C25223046   2.573   2.603   1.845  0.0288  0.1213 -0.6631
   88MOL   C25323047   2.448   2.599   2.056 -0.3348  0.5516  0.1651
   88MOL   H25423048   2.888   2.473   2.035 -2.0000 -0.8781  2.3009
   88MOL   H25523049   2.856   2.603   1.920 -0.4070  1.3734  0.7031
   88MOL   H25623050   2.688   2.562   2.175  3.6965  1.0009  0.1604
   88MOL   H25723051   2.673   2.616   1.804  1.4055 -1.2759  2.0662
   88MOL   H25823052   2.524   2.700   1.836  0.2204  0.7175  3.3937
   88MOL   H25923053   2.521   2.516   1.807 -1.9799  0.3760  1.3550
   88MOL   H26023054   2.450   2.608   2.164  1.1055  2.5882  0.0060
   88MOL   H26123055   2.396   2.505   2.039 -1.2687  1.2209 -0.8320
   88MOL   H26223056   2.394   2.686   2.017  0.9607  0.7060 -1.3839
   89MOL     C123057   7.611   4.076   7.231  0.0232 -0.0539  0.2012
   89MOL     C223058   7.739   4.026   7.306  0.2400 -0.1447 -0.7510
   89MOL     C323059   7.789   3.897   7.311  0.1295  0.2267 -0.0909
   89MOL     C423060   7.729   3.790   7.224  0.4186 -0.2797  0.8415
   89MOL     C523061   0.021   3.858   7.399 -0.2926  0.8644  0.0193
   89MOL     H623062   7.570   4.150   7.299  1.6090  0.0942  1.0302
   89MOL     H723063   7.643   4.137   7.147  0.8475 -1.2298 -0.3631
   89MOL     H823064   7.798   4.097   7.363 -2.3093  1.2692  0.1795
   89MOL     H923065   7.673   3.719   7.285 -1.2994  0.7794  0.5223
   89MOL    H1023066   7.813   3.736   7.180  0.5897  0.0053  0.8138
   89MOL    H1123067   7.676   3.832   7.138 -0.8057  0.1935  1.8174
   89MOL    H1223068   0.079   3.943   7.434 -2.0613  1.4174  1.6967
   89MOL    H1323069   0.085   3.788   7.344 -0.3488  0.9273 -0.1265
   89MOL    H1423070   7.540   3.997   7.205 -0.0992 -0.0004  0.3767
   89MOL    C1523071   7.853   3.790   7.528 -0.8766  0.2625 -0.5246
   89MOL    C1623072   0.093   3.752   7.605 -0.8906  0.5762  0.3784
   89MOL    C1723073   0.124   3.765   7.734  0.1105  0.2376  0.1742
   89MOL    C1823074   0.036   3.848   7.828 -0.4383 -0.4814 -0.3491
   89MOL    C1923075   0.258   3.720   7.796  0.4236 -0.0938 -0.5288
   89MOL    H2023076   7.800   3.699   7.499  0.5902 -0.7428 -0.0892
   89MOL    H2123077   7.789   3.858   7.584 -0.0446 -0.8954  1.8802
   89MOL    H2223078   0.173   3.719   7.541 -0.9050  0.3358  0.4816
   89MOL    H2323079   0.034   3.820   0.051 -1.9380 -0.1489 -0.2702
   89MOL    H2423080   7.817   3.865   7.790 -1.8543 -3.0188  2.0860
   89MOL    H2523081   0.085   3.945   7.835 -1.2394 -0.2714  2.9438
   89MOL    H2623082   0.311   3.659   7.724 -0.3142  0.5852 -1.6706
   89MOL    H2723083   0.226   3.659   7.881  1.0992 -1.9889 -1.6079
   89MOL    C2823084   0.348   3.834   7.839  0.4221 -0.1440 -0.3393
   89MOL    C2923085   0.499   3.811   7.839 -0.5636 -0.0110  0.2001
   89MOL    C3023086   0.579   3.859   0.050 -0.5492  0.6355 -0.7845
   89MOL    C3123087   0.522   3.957   0.153  0.2011  0.5640  0.1616
   89MOL    C3223088   0.725   3.818   0.060  0.2690  0.1175 -0.4241
   89MOL    H3323089   0.311   3.857   0.057 -0.5909  0.7331 -0.9149
   89MOL    H3423090   0.331   3.913   7.767 -0.1517  0.3072  0.2875
   89MOL    H3523091   0.545   3.745   7.766 -0.0477  1.4833 -0.8479
   89MOL    H3623092   0.456   3.905   0.224 -1.1233  0.8489 -0.8530
   89MOL    H3723093   0.464   4.032   0.102  0.6058  0.2251 -0.8040
   89MOL    H3823094   0.598   4.012   0.209 -0.7515  2.5371 -0.4781
   89MOL    H3923095   0.787   3.908   0.063  0.6248 -0.1549  1.0490
   89MOL    H4023096   0.753   3.767   7.851  0.3569 -0.1910 -0.2250
   89MOL    C4123097   0.751   3.731   0.180  0.0279 -0.5369 -0.0208
   89MOL    C4223098   0.897   3.703   0.195 -0.1910  0.2328  0.1652
   89MOL    C4323099   0.988   3.771   0.268  0.1929  0.1277  0.0123
   89MOL    C4423100   0.954   3.893   0.356  0.1750  0.1436  0.4563
   89MOL    C4523101   1.134   3.727   0.261 -0.6641 -0.4810  0.1760
   89MOL    H4623102   0.693   3.639   0.165 -1.0582  0.2205 -0.5283
   89MOL    H4723103   0.721   3.771   0.276 -0.6912 -1.4918  0.1561
   89MOL    H4823104   0.939   3.631   0.126  2.2532  0.9641  0.8380
   89MOL    H4923105   1.035   3.965   0.361  0.8438 -0.5153 -0.7905
   89MOL    H5023106   0.930   3.855   0.456 -1.8314 -1.2923 -0.5436
   89MOL    H5123107   0.862   3.949   0.337  0.2753  0.1581  0.0281
   89MOL    H5223108   1.143   3.647   0.187 -0.0754 -0.0044 -0.2774
   89MOL    H5323109   1.153   3.692   0.362 -0.9886 -1.5703 -0.1287
   89MOL    C5423110   1.238   3.832   0.217 -1.1310 -0.3054 -0.2465
   89MOL    C5523111   1.210   3.893   0.084 -0.2881 -0.0323 -0.5822
   89MOL    C5623112   1.300   3.914   7.868  0.2145  0.5011  0.0598
   89MOL    C5723113   1.449   3.882   0.009 -0.0932  0.5890  0.6053
   89MOL    C5823114   1.260   3.978   7.740 -0.6069 -0.7494 -0.2783
   89MOL    H5923115   1.332   3.777   0.212 -0.7314  0.3945 -0.4878
   89MOL    H6023116   1.243   3.918   0.284  2.1980  0.6265 -1.5990
   89MOL    H6123117   1.105   3.916   0.072 -0.3375  0.4447  0.6994
   89MOL    H6223118   1.494   3.892   0.107  1.6361  2.5342 -0.3426
   89MOL    H6323119   1.506   3.940   7.819 -1.2027 -1.5107 -2.0283
   89MOL    H6423120   1.460   3.777   7.864 -1.7728  0.8203 -1.0032
   89MOL    H6523121   1.342   3.980   7.669  0.7978  0.7004  1.3557
   89MOL    H6623122   1.245   4.085   7.756 -0.1123 -0.7265  0.0102
   89MOL    C6723123   1.122   3.926   7.677  0.3288 -0.3510  0.1723
   89MOL    C6823124   1.134   3.785   7.623  0.2392 -0.1841 -0.2029
   89MOL    C6923125   1.030   3.719   7.569 -0.3549 -0.7276 -0.4175
   89MOL    C7023126   0.893   3.781   7.561 -0.2646  0.5276  0.3267
   89MOL    C7123127   1.036   3.573   7.521 -0.9809 -0.0398  0.2942
   89MOL    H7223128   1.078   3.988   7.598 -0.2237  1.6225  1.9559
   89MOL    H7323129   1.040   3.928   7.750 -0.9602  1.2685 -1.2600
   89MOL    H7423130   1.228   3.735   7.638 -1.3068 -3.1649 -0.1911
   89MOL    H7523131   0.859   3.782   7.457 -2.5217 -1.1150  0.9994
   89MOL    H7623132   0.871   3.878   7.604  1.8836  1.8857 -1.5389
   89MOL    H7723133   0.823   3.718   7.616  0.1979 -0.3393 -0.0567
   89MOL    H7823134   1.141   3.545   7.509 -1.7805 -1.5820 -4.1194
   89MOL    H7923135   0.978   3.556   7.430  0.5721  0.5718 -0.8376
   89MOL    C8023136   0.991   3.474   7.621  1.1286  0.2460 -1.5781
   89MOL    C8123137   0.851   3.419   7.591  0.1963 -0.2849 -0.6822
   89MOL    C8223138   0.752   3.407   7.682 -0.7085 -0.1363 -0.2934
   89MOL    C8323139   0.768   3.445   7.829 -0.5238 -0.1196  0.2860
   89MOL    C8423140   0.618   3.343   7.644 -0.3543  0.1842  0.8049
   89MOL    H8523141   1.006   3.510   7.723  3.6999  0.2022 -1.9013
   89MOL    H8623142   1.046   3.380   7.608  1.7347  0.4316 -0.4352
   89MOL    H8723143   0.823   3.401   7.488 -0.1222  1.1305 -0.8559
   89MOL    H8823144   0.724   3.544   7.838  1.8091  1.0777 -0.8883
   89MOL    H8923145   0.871   3.450   7.866 -0.6196 -3.0754  1.0388
   89MOL    H9023146   0.716   3.380   0.017  0.4779  1.6231  2.6853
   89MOL    H9123147   0.599   3.253   7.703 -0.3554  0.7749  1.7131
   89MOL    H9223148   0.624   3.302   7.543 -0.9648 -0.3626  0.9845
   89MOL    C9323149   0.512   3.452   7.640  0.2049 -0.1130 -0.2657
   89MOL    C9423150   0.366   3.395   7.630  0.4149 -0.4292 -0.0570
   89MOL    C9523151   0.286   3.385   7.522 -0.3584  0.0631  0.1921
   89MOL    C9623152   0.316   3.452   7.394  0.5330  0.4073 -0.4816
   89MOL    C9723153   0.149   3.321   7.540  0.0555  0.6262  0.1779
   89MOL    H9823154   0.529   3.529   7.565 -0.1622 -0.6523 -0.9064
   89MOL    H9923155   0.516   3.510   7.733  0.0996 -1.4249  0.5648
   89MOL   H10023156   0.332   3.338   7.715  0.1763 -0.1442  0.0383
   89MOL   H10123157   0.296   3.383   7.312  0.2250 -2.1456  1.6599
   89MOL   H10223158   0.419   3.485   7.382  0.5114  0.4880 -0.4480
   89MOL   H10323159   0.245   3.535   7.384 -3.0808 -2.3861  0.7520
   89MOL   H10423160   0.144   3.242   7.615 -0.8047 -1.2761 -1.8298
   89MOL   H10523161   0.129   3.262   7.450 -0.8062  3.0737 -1.2891
   89MOL   C10623162   0.039   3.419   7.551 -0.1041  0.3217 -0.7649
   89MOL   C10723163   7.788   3.349   7.560  0.2707 -0.0704 -0.2336
   89MOL   C10823164   7.692   3.354   7.657  0.5997  0.0464  0.3765
   89MOL   C10923165   7.694   3.434   7.789  0.3818 -0.0731  0.9777
   89MOL   C11023166   7.563   3.268   7.641  0.1910  0.2947  0.3511
   89MOL   H11123167   0.042   3.489   7.467 -0.0948  1.4223  0.1544
   89MOL   H11223168   0.067   3.470   7.643  1.3737  0.5414 -1.3177
   89MOL   H11323169   7.765   3.280   7.480 -0.0558 -0.5852  0.3023
   89MOL   H11423170   7.789   3.484   7.807  1.0979 -0.0127 -2.6358
   89MOL   H11523171   7.686   3.367   7.875 -1.1569 -0.9754  0.1481
   89MOL   H11623172   7.617   3.512   7.790  2.4540  2.0319  1.9090
   89MOL   H11723173   7.540   3.256   7.535  0.2942 -1.9519  0.5745
   89MOL   H11823174   7.482   3.328   7.684 -1.0543 -0.6164 -0.6958
   89MOL   C11923175   7.573   3.136   7.712  0.3343 -0.0844  0.3646
   89MOL   C12023176   7.681   3.044   7.655  0.0831  0.3821 -0.1107
   89MOL   C12123177   7.736   2.939   7.715  0.4731 -0.2436 -0.1318
   89MOL   C12223178   7.704   2.893   7.853 -0.0593  0.3871  1.0122
   89MOL   C12323179   7.834   2.847   7.643  0.6105 -0.1803 -0.2500
   89MOL   H12423180   7.473   3.094   7.719 -0.1407  0.4997 -2.2448
   89MOL   H12523181   7.600   3.155   7.815 -0.2797 -2.0093  0.8960
   89MOL   H12623182   7.706   3.066   7.552 -0.0242 -0.7850 -0.3964
   89MOL   H12723183   7.661   2.793   7.841 -0.0167  0.4477  0.3812
   89MOL   H12823184   7.622   2.941   0.023 -3.6218 -3.9083 -0.2779
   89MOL   H12923185   7.793   2.889   0.034  1.3686  1.1335 -0.8979
   89MOL   H13023186   7.790   2.826   7.545 -4.6573 -1.3665  2.2405
   89MOL   H13123187   7.852   2.750   7.690 -0.7509 -1.2587 -1.8791
   89MOL   C13223188   0.087   2.916   7.626  0.1721 -0.4579 -0.3964
   89MOL   C13323189   0.190   2.818   7.569  0.5365 -0.4597  0.0808
   89MOL   C13423190   0.328   2.837   7.558 -0.0588  0.6404  0.2032
   89MOL   C13523191   0.404   2.964   7.607  0.3293  0.1529 -0.7991
   89MOL   C13623192   0.426   2.723   7.512 -0.4099  0.6092  0.6795
   89MOL   H13723193   0.120   2.945   7.725 -3.4156 -0.8382  0.9944
   89MOL   H13823194   0.092   3.015   7.580 -1.0271 -0.5353 -0.7101
   89MOL   H13923195   0.157   2.719   7.543 -0.4025  0.0356 -0.6349
   89MOL   H14023196   0.467   3.018   7.537  1.4063  0.4216  0.3505
   89MOL   H14123197   0.487   2.937   7.672 -1.2909 -0.6067  1.0328
   89MOL   H14223198   0.337   3.039   7.649  1.6884  1.5586 -1.1346
   89MOL   H14323199   0.376   2.628   7.495 -2.4082  0.8006  4.8748
   89MOL   H14423200   0.497   2.711   7.594  1.6141  1.2396 -0.9580
   89MOL   C14523201   0.510   2.774   7.386  0.8702  0.3077 -0.0902
   89MOL   C14623202   0.600   2.671   7.321 -0.8872 -0.7159 -0.0691
   89MOL   C14723203   0.587   2.622   7.198  0.0868 -1.1060 -0.2088
   89MOL   C14823204   0.473   2.657   7.101  0.2004 -1.0788 -0.2286
   89MOL   C14923205   0.678   2.510   7.150 -0.3294  0.0715 -0.1651
   89MOL   H15023206   0.579   2.855   7.412  0.8384  0.3429 -0.1148
   89MOL   H15123207   0.446   2.815   7.307 -0.1523 -0.4546  0.3267
   89MOL   H15223208   0.679   2.629   7.382  0.2358  0.6734 -0.5248
   89MOL   H15323209   0.403   2.573   7.092 -2.5027  0.5947  3.9277
   89MOL   H15423210   0.513   2.680   7.002  0.4303  0.2281  0.1657
   89MOL   H15523211   0.413   2.739   7.141 -0.5545 -2.0458  0.6517
   89MOL   H15623212   0.614   2.422   7.141  1.0342 -1.1986  2.0778
   89MOL   H15723213   0.744   2.474   7.229  0.0211 -1.0552 -0.9607
   89MOL   C15823214   0.758   2.538   7.026  0.4776 -0.2059  0.7817
   89MOL   C15923215   0.864   2.641   7.047  0.7612  0.0368  0.0572
   89MOL   C16023216   0.883   2.753   6.973  0.1300  0.4702  0.3619
   89MOL   C16123217   0.784   2.804   6.878 -0.6276  1.2761  1.1654
   89MOL   C16223218   1.002   2.841   6.994 -0.7092  0.3007 -0.6991
   89MOL   H16323219   0.691   2.562   6.944 -0.1684 -1.4907  0.9319
   89MOL   H16423220   0.804   2.445   6.995  0.6595  1.1356 -3.2280
   89MOL   H16523221   0.939   2.618   7.122 -0.5690 -2.0955  0.7421
   89MOL   H16623222   0.819   2.897   6.833 -1.7458 -0.6248 -3.9330
   89MOL   H16723223   0.687   2.822   6.924 -0.6335  0.5802  1.4311
   89MOL   H16823224   0.748   2.736   6.802  0.1573  1.7132  0.3896
   89MOL   H16923225   1.044   2.824   7.093  0.6918  0.7537 -1.2021
   89MOL   H17023226   0.958   2.940   6.999 -1.7874 -0.1612 -0.9313
   89MOL   C17123227   1.100   2.837   6.876  0.2216  0.3632 -0.4374
   89MOL   C17223228   1.228   2.922   6.904 -0.7598 -0.2746 -0.7920
   89MOL   C17323229   1.354   2.887   6.887 -0.1960  0.5442  0.5265
   89MOL   C17423230   1.402   2.758   6.833  0.2491  0.1085 -0.1983
   89MOL   C17523231   1.469   2.982   6.923  0.5970 -0.3156 -0.4903
   89MOL   H17623232   1.065   2.865   6.777  1.7162 -1.0761 -1.3830
   89MOL   H17723233   1.127   2.734   6.855 -0.2946  0.0800  0.2479
   89MOL   H17823234   1.209   3.022   6.939  2.6196  0.1279  0.0175
   89MOL   H17923235   1.429   2.700   6.921  0.1473  1.0100  0.4411
   89MOL   H18023236   1.497   2.763   6.779 -0.3305 -0.9764 -1.3241
   89MOL   H18123237   1.331   2.718   6.761 -0.5202  1.5397 -0.2675
   89MOL   H18223238   1.439   3.075   6.972  3.0695  0.2980 -0.0907
   89MOL   H18323239   1.517   3.004   6.828  1.6205 -1.4011 -0.2403
   89MOL   C18423240   1.568   2.926   7.013 -0.1485  0.1151 -0.2444
   89MOL   C18523241   1.668   3.033   7.045  0.1391  0.2111  0.3514
   89MOL   C18623242   1.703   3.080   7.166  0.2583  0.4762  0.6540
   89MOL   C18723243   1.628   3.036   7.288 -0.6242  0.4156  0.1624
   89MOL   C18823244   1.805   3.184   7.183 -0.0758  0.2766 -0.3803
   89MOL   H18923245   1.624   2.841   6.975 -0.7931  0.3227 -1.7057
   89MOL   H19023246   1.529   2.880   7.103  0.0859  0.9948  0.3187
   89MOL   H19123247   1.716   3.077   6.958  0.6976  0.1693  0.6357
   89MOL   H19223248   1.644   2.928   7.296  2.6512  0.7650 -0.6567
   89MOL   H19323249   1.521   3.055   7.285 -0.6451  0.8717  2.9864
   89MOL   H19423250   1.672   3.091   7.371  1.7206 -0.8977 -0.1553
   89MOL   H19523251   1.766   3.280   7.219 -0.2399 -1.4682  4.5032
   89MOL   H19623252   1.839   3.204   7.081 -0.3710  1.4426 -0.2547
   89MOL   C19723253   1.918   3.141   7.283  0.6403  0.9453  0.2151
   89MOL   C19823254   2.048   3.221   7.265 -0.1505 -0.5922 -0.0792
   89MOL   C19923255   2.099   3.312   7.352  0.2765  0.1196  0.4848
   89MOL   C20023256   2.034   3.348   7.484  0.0058 -0.0054  0.2005
   89MOL   C20123257   2.229   3.380   7.316 -0.1800 -0.5421 -0.0481
   89MOL   H20223258   1.948   3.038   7.266  0.1713  0.9357 -0.5501
   89MOL   H20323259   1.873   3.156   7.382 -2.5827  0.8214 -1.1744
   89MOL   H20423260   2.103   3.199   7.174  0.4624 -1.3611  0.4712
   89MOL   H20523261   1.944   3.299   7.521 -1.5271  1.9642 -0.8327
   89MOL   H20623262   2.013   3.455   7.493 -0.6689 -0.1275  0.0458
   89MOL   H20723263   2.106   3.339   7.566 -0.7518 -2.6699  0.5942
   89MOL   H20823264   2.219   3.483   7.350 -0.1912 -0.8540  0.9128
   89MOL   H20923265   2.248   3.379   7.209 -1.0226 -1.4087 -0.2002
   89MOL   C21023266   2.348   3.311   7.387 -0.1641 -0.1875 -0.3840
   89MOL   C21123267   2.480   3.360   7.334 -0.2574 -0.1257  0.9894
   89MOL   C21223268   2.571   3.296   7.264 -0.2698  0.2599  1.1269
   89MOL   C21323269   2.555   3.154   7.207 -0.2385  0.2889  0.2728
   89MOL   C21423270   2.699   3.359   7.213  0.1022 -0.1320 -0.2326
   89MOL   H21523271   2.330   3.204   7.378  1.1337 -0.2055 -3.4101
   89MOL   H21623272   2.347   3.325   7.495  3.2450  0.2951 -0.3815
   89MOL   H21723273   2.486   3.464   7.365 -0.0959  0.2344 -0.2191
   89MOL   H21823274   2.611   3.082   7.267 -2.2460  0.9286  3.0064
   89MOL   H21923275   2.585   3.158   7.102  0.7501  0.3461  0.5512
   89MOL   H22023276   2.453   3.116   7.204 -0.4460  0.8054  0.6167
   89MOL   H22123277   2.702   3.355   7.104 -0.3329  0.8387 -0.2834
   89MOL   H22223278   2.786   3.294   7.224  2.9217  3.5018  0.0036
   89MOL   C22323279   2.745   3.485   7.283  0.3378  0.3009  0.0620
   89MOL   C22423280   2.679   3.607   7.221  0.3284 -0.0524  0.1119
   89MOL   C22523281   2.604   3.708   7.279  0.1844  1.1369 -0.9329
   89MOL   C22623282   2.579   3.721   7.436 -0.2697 -0.1752  0.2156
   89MOL   C22723283   2.553   3.816   7.188 -0.5160  0.5183  0.7105
   89MOL   H22823284   2.853   3.497   7.276 -0.0135  2.1707 -2.6446
   89MOL   H22923285   2.725   3.491   7.390  0.3791  0.4644  0.0595
   89MOL   H23023286   2.697   3.625   7.116 -0.7315  3.1686  0.4220
   89MOL   H23123287   2.472   3.724   7.455 -0.0723  3.2249  1.2317
   89MOL   H23223288   2.629   3.806   7.484 -1.3089 -0.1483  1.2653
   89MOL   H23323289   2.609   3.637   7.498  0.2636 -1.2626 -1.4825
   89MOL   H23423290   2.590   3.809   7.085  0.6203 -0.2305  1.1631
   89MOL   H23523291   2.588   3.913   7.222  0.9422  0.2783 -0.0440
   89MOL   C23623292   2.398   3.816   7.168  0.5953 -1.0561 -1.4315
   89MOL   C23723293   2.318   3.858   7.287 -1.1585 -0.2390  0.4398
   89MOL   C23823294   2.186   3.863   7.296  0.8214 -0.7416 -0.3129
   89MOL   C23923295   2.090   3.813   7.191 -0.2316 -0.5497  0.1874
   89MOL   C24023296   2.124   3.919   7.429 -0.7035 -0.2238 -0.2650
   89MOL   H24123297   2.365   3.724   7.119 -1.3575 -0.2882 -1.5729
   89MOL   H24223298   2.382   3.895   7.095 -1.0714 -0.1386 -0.0961
   89MOL   H24323299   2.375   3.912   7.361 -1.2490  1.2056 -0.5473
   89MOL   H24423300   2.129   3.780   7.095 -2.8934 -2.1717 -0.3822
   89MOL   H24523301   2.013   3.890   7.184  1.2899  1.0260  0.1679
   89MOL   H24623302   2.045   3.727   7.240  1.0123 -1.1788  0.2590
   89MOL   H24723303   2.203   3.926   7.505  0.0698 -0.2345 -1.0633
   89MOL   H24823304   2.048   3.850   7.465  0.2632 -0.7193  0.9026
   89MOL   C24923305   2.066   4.057   7.401 -0.6575  0.3530  0.2848
   89MOL   C25023306   2.012   4.121   7.524  0.5165  0.0378 -0.0328
   89MOL   C25123307   1.885   4.119   7.567 -0.6954  0.4158 -0.8036
   89MOL   C25223308   1.768   4.054   7.503 -0.0366 -0.3100 -0.4651
   89MOL   C25323309   1.849   4.169   7.706  0.0117 -0.2551 -0.1277
   89MOL   H25423310   1.983   4.054   7.330  0.4107  2.7848 -1.1049
   89MOL   H25523311   2.147   4.114   7.355  1.1689 -1.3978  1.2021
   89MOL   H25623312   2.084   4.170   7.587 -0.4846 -0.7570  1.7578
   89MOL   H25723313   1.794   3.999   7.413  1.2210 -1.4853  0.6022
   89MOL   H25823314   1.690   4.128   7.485  1.3643  1.0415 -1.0906
   89MOL   H25923315   1.726   3.973   7.561 -0.0067 -0.0703 -0.1069
   89MOL   H26023316   1.795   4.261   7.682  0.9866  0.2246 -0.5452
   89MOL   H26123317   1.937   4.198   7.764  0.1697 -0.2986 -0.3448
   89MOL   H26223318   1.787   4.103   7.766 -1.1299  1.4362  0.5932
   90MOL     C123319   4.128   0.392   5.003 -0.1971  0.5068  1.0146
   90MOL     C223320   4.153   0.416   5.147 -0.7749  0.1892 -0.0308
   90MOL     C323321   4.106   0.515   5.222  0.3595 -0.1731 -1.1806
   90MOL     C423322   4.019   0.630   5.170 -0.3332 -0.2663  0.1924
   90MOL     C523323   4.148   0.525   5.368  0.7588  0.4056 -0.0779
   90MOL     H623324   4.169   0.476   4.947  1.4293  0.0729  1.5251
   90MOL     H723325   4.182   0.311   4.955 -1.2790  0.3945 -0.0502
   90MOL     H823326   4.228   0.351   5.191 -3.2998 -1.1180  2.5117
   90MOL     H923327   3.915   0.599   5.176 -0.5532  0.5586  0.6514
   90MOL    H1023328   4.027   0.649   5.063 -0.8168 -1.2570 -0.0243
   90MOL    H1123329   4.026   0.724   5.224 -0.0262  0.9748 -1.9410
   90MOL    H1223330   4.166   0.421   5.394 -0.1310  0.2884  0.0778
   90MOL    H1323331   4.054   0.549   5.419  0.0755  0.1759 -1.2042
   90MOL    H1423332   4.024   0.362   4.990  0.4594 -0.7788 -1.4376
   90MOL    C1523333   4.267   0.616   5.384  0.2039  0.3573 -0.9497
   90MOL    C1623334   4.306   0.642   5.533  0.5043 -0.9227 -0.1630
   90MOL    C1723335   4.427   0.656   5.582 -1.2007  0.0160  0.1334
   90MOL    C1823336   4.553   0.655   5.504  1.0471  0.5842  0.1967
   90MOL    C1923337   4.450   0.675   5.729  0.1872 -0.2881 -0.1093
   90MOL    H2023338   4.237   0.716   5.351 -1.7675 -0.1801 -0.8017
   90MOL    H2123339   4.346   0.585   5.316  0.9100 -2.5950  1.1396
   90MOL    H2223340   4.221   0.654   5.598 -0.6726  1.6303 -2.0655
   90MOL    H2323341   4.615   0.744   5.515 -1.3439  2.2702  0.4873
   90MOL    H2423342   4.536   0.644   5.397 -0.8551 -0.6176  0.5948
   90MOL    H2523343   4.610   0.565   5.526 -0.1341 -0.1870  0.1562
   90MOL    H2623344   4.368   0.715   5.788  1.5704  1.3823  0.7141
   90MOL    H2723345   4.521   0.755   5.751 -1.6174  1.5356 -0.8346
   90MOL    C2823346   4.503   0.544   5.800  0.2602 -0.0174 -0.2875
   90MOL    C2923347   4.521   0.575   5.951  0.0195 -0.2628  0.1063
   90MOL    C3023348   4.509   0.495   6.060  0.1177 -0.2357 -0.1566
   90MOL    C3123349   4.457   0.355   6.049  0.7321  0.8334 -0.6439
   90MOL    C3223350   4.542   0.546   6.198  0.1399 -0.1144  0.3061
   90MOL    H3323351   4.602   0.516   5.764  0.0053 -0.9690 -0.2553
   90MOL    H3423352   4.436   0.458   5.807  1.8228 -1.0750  2.0454
   90MOL    H3523353   4.570   0.671   5.948  0.9591 -0.7486 -0.1025
   90MOL    H3623354   4.489   0.291   6.131  0.3196  1.5432  0.0837
   90MOL    H3723355   4.490   0.311   5.955  1.2458 -0.1447 -0.0180
   90MOL    H3823356   4.349   0.344   6.038  0.4297  1.3318  1.6170
   90MOL    H3923357   4.540   0.655   6.204  0.1690 -0.1470  0.9642
   90MOL    H4023358   4.643   0.511   6.219 -0.2350 -1.2958  0.1777
   90MOL    C4123359   4.433   0.497   6.298 -0.1580 -0.2148 -0.2546
   90MOL    C4223360   4.486   0.512   6.435  0.3175  0.2847  0.1343
   90MOL    C4323361   4.445   0.605   6.523  0.4149 -0.3350  0.7145
   90MOL    C4423362   4.349   0.704   6.479 -0.2156 -0.6859  0.1794
   90MOL    C4523363   4.504   0.622   6.659 -0.1989 -0.6965 -0.1479
   90MOL    H4623364   4.419   0.390   6.288  2.1055 -0.9054  3.1731
   90MOL    H4723365   4.344   0.557   6.280 -1.0299 -0.8350  1.9225
   90MOL    H4823366   4.562   0.445   6.472  0.1354  0.2073  0.3703
   90MOL    H4923367   4.318   0.769   6.561 -0.8869 -2.5851  1.4713
   90MOL    H5023368   4.258   0.651   6.451  0.8519 -2.9345  0.8770
   90MOL    H5123369   4.374   0.749   6.383 -0.9194  1.0444  0.7825
   90MOL    H5223370   4.418   0.635   6.725  1.1912  1.0879  1.3769
   90MOL    H5323371   4.550   0.721   6.664  1.2001 -1.4708  3.7319
   90MOL    C5423372   4.618   0.519   6.701  0.0670 -0.2175 -0.1889
   90MOL    C5523373   4.673   0.544   6.844 -0.0827 -0.3926  0.9481
   90MOL    C5623374   4.801   0.531   6.884  0.1257  0.0337 -0.8609
   90MOL    C5723375   4.918   0.466   6.811  0.1883 -0.3183  1.1847
   90MOL    C5823376   4.841   0.577   7.025 -0.3749  0.8046  0.6233
   90MOL    H5923377   4.700   0.534   6.630 -0.2802 -0.2150 -0.5961
   90MOL    H6023378   4.582   0.416   6.704  1.2122 -0.6193 -0.0643
   90MOL    H6123379   4.605   0.598   6.907 -1.6402 -0.3698 -0.7337
   90MOL    H6223380   4.904   0.430   6.709 -2.0373 -0.1197  1.3914
   90MOL    H6323381   4.956   0.380   6.867  0.8722 -0.6534  0.2246
   90MOL    H6423382   4.995   0.542   6.796 -1.3038  1.2990  1.6374
   90MOL    H6523383   4.752   0.624   7.068 -1.5407 -0.6354 -0.1279
   90MOL    H6623384   4.927   0.643   7.017 -0.0068  0.2513  0.0512
   90MOL    C6723385   4.878   0.469   7.119 -0.2967  0.0449 -0.3753
   90MOL    C6823386   4.922   0.524   7.253  0.1253 -0.3668  0.5203
   90MOL    C6923387   4.888   0.481   7.373  0.4857  0.7469 -0.3016
   90MOL    C7023388   4.808   0.350   7.392 -0.0951 -0.6717 -0.3088
   90MOL    C7123389   4.909   0.557   7.503  0.5276  0.2545 -0.5267
   90MOL    H7223390   4.975   0.427   7.094 -0.5881 -1.2931  0.6707
   90MOL    H7323391   4.804   0.389   7.126 -0.5328  0.5169  3.3659
   90MOL    H7423392   4.982   0.614   7.250 -0.8287  0.2457 -1.5646
   90MOL    H7523393   4.709   0.386   7.421  0.7032  1.8707 -0.5693
   90MOL    H7623394   4.847   0.296   7.479 -2.2200 -0.7962  0.6035
   90MOL    H7723395   4.795   0.289   7.303 -1.1236 -1.1514  0.1609
   90MOL    H7823396   4.816   0.570   7.559  0.6484 -0.2454 -0.2098
   90MOL    H7923397   4.955   0.651   7.473  1.5141 -0.4834 -1.3707
   90MOL    C8023398   5.000   0.497   7.605  0.0869  0.7377 -0.8089
   90MOL    C8123399   4.996   0.561   7.739  0.0293 -0.1159 -0.0917
   90MOL    C8223400   5.073   0.525   7.845  0.4206  0.0611  0.2585
   90MOL    C8323401   5.178   0.410   7.842 -0.0491 -0.3972  0.2075
   90MOL    C8423402   5.063   0.607   0.091  0.7144  0.8465 -0.4172
   90MOL    H8523403   5.103   0.508   7.569  0.4319 -0.0462 -0.0759
   90MOL    H8623404   4.969   0.395   7.626 -1.4852  1.3000 -0.3799
   90MOL    H8723405   4.934   0.650   7.739 -1.1826 -0.9363 -0.1818
   90MOL    H8823406   5.261   0.452   7.784  0.7676 -0.0750  1.5879
   90MOL    H8923407   5.141   0.320   7.792 -1.9610 -0.5148  1.7792
   90MOL    H9023408   5.226   0.372   0.049 -0.4232  1.5594  1.2688
   90MOL    H9123409   5.065   0.528   0.167  0.5827  2.8195  1.6853
   90MOL    H9223410   4.972   0.666   0.099 -0.6244 -1.3100  0.7287
   90MOL    C9323411   5.183   0.693   0.111 -0.4261 -1.2967  0.5759
   90MOL    C9423412   5.178   0.773   0.235 -0.2176  0.0398  0.5246
   90MOL    C9523413   5.271   0.859   0.287  0.0177  0.6766  0.6174
   90MOL    C9623414   5.401   0.888   0.223  0.7558 -0.0840  0.2089
   90MOL    C9723415   5.253   0.914   0.423  0.8057 -0.0654  0.6209
   90MOL    H9823416   5.208   0.760   0.028  3.4994 -3.0374  0.2399
   90MOL    H9923417   5.275   0.635   0.115  1.3219  1.3534  0.2869
   90MOL   H10023418   5.089   0.775   0.296  0.1794  2.7144  1.0977
   90MOL   H10123419   5.393   0.861   0.117  3.3516  1.0624 -0.3297
   90MOL   H10223420   5.482   0.825   0.260 -0.2889 -0.2623  2.2564
   90MOL   H10323421   5.424   0.995   0.225 -1.3318  0.4286 -0.7687
   90MOL   H10423422   5.354   0.924   0.462  1.2139  0.9345 -0.6511
   90MOL   H10523423   5.195   0.839   0.477 -3.2907  2.7586  0.4322
   90MOL   C10623424   5.184   1.049   0.430 -0.1430 -0.6829  0.6429
   90MOL   C10723425   5.159   1.101   0.574 -0.7618  0.0644 -0.0888
   90MOL   C10823426   5.059   1.186   0.599  0.3422 -0.1289 -0.5031
   90MOL   C10923427   4.958   1.232   0.495  0.0650 -0.1295 -0.8266
   90MOL   C11023428   5.029   1.226   0.744 -0.1808 -0.2573 -0.3915
   90MOL   H11123429   5.086   1.043   0.384 -0.8685 -0.4569  2.1152
   90MOL   H11223430   5.238   1.108   0.357 -0.3757 -1.8961 -0.5226
   90MOL   H11323431   5.221   1.060   0.652  0.1648  1.4420 -0.0645
   90MOL   H11423432   4.874   1.163   0.497  0.1892 -0.2760 -0.6214
   90MOL   H11523433   5.005   1.243   0.398  3.9040  1.0689  1.0646
   90MOL   H11623434   4.922   1.331   0.524 -0.5798 -1.3253  2.7442
   90MOL   H11723435   4.994   1.328   0.731 -1.5275 -0.6262  0.2751
   90MOL   H11823436   5.118   1.233   0.805 -0.7614  3.0808  0.1357
   90MOL   C11923437   4.928   1.135   0.800  0.0843  0.2751 -0.0384
   90MOL   C12023438   4.936   1.132   0.949  0.5234 -0.0762 -0.5697
   90MOL   C12123439   4.859   1.197   1.037  0.3564  0.5933  0.1356
   90MOL   C12223440   4.743   1.272   0.988 -0.3065  0.4550  0.1980
   90MOL   C12323441   4.896   1.209   1.184 -0.1388  0.0488 -0.7083
   90MOL   H12423442   4.950   1.035   0.764 -0.0796  0.1654  0.1659
   90MOL   H12523443   4.830   1.163   0.763 -0.2176 -3.1946 -1.9909
   90MOL   H12623444   5.028   1.085   0.981  0.8314 -0.5132 -2.1038
   90MOL   H12723445   4.711   1.224   0.895  0.4286 -0.3736  0.3672
   90MOL   H12823446   4.766   1.375   0.962 -1.5801  0.1451 -2.3065
   90MOL   H12923447   4.657   1.261   1.054 -0.2862 -0.3129  0.1008
   90MOL   H13023448   4.897   1.314   1.211  0.2510 -0.7773  2.6944
   90MOL   H13123449   4.994   1.176   1.217 -0.4269 -0.5885 -0.4651
   90MOL   C13223450   4.791   1.127   1.268  0.4237 -0.5801  0.5239
   90MOL   C13323451   4.810   0.981   1.244 -0.0332  0.0604 -0.0418
   90MOL   C13423452   4.725   0.894   1.180  0.1339  0.4980  0.0151
   90MOL   C13523453   4.616   0.933   1.090 -0.3311 -0.3846  0.3977
   90MOL   C13623454   4.760   0.747   1.172  0.3842 -0.4186  0.5118
   90MOL   H13723455   4.692   1.168   1.249 -0.0896 -1.4862  1.1924
   90MOL   H13823456   4.811   1.146   1.373  0.3061 -4.3373  1.3096
   90MOL   H13923457   4.892   0.943   1.303 -0.5626  0.4161  0.9182
   90MOL   H14023458   4.590   1.039   1.100 -0.9230 -0.4473 -0.4209
   90MOL   H14123459   4.527   0.870   1.093  0.3894 -1.5194 -1.1639
   90MOL   H14223460   4.650   0.921   0.987 -2.3713 -3.2613  0.0056
   90MOL   H14323461   4.744   0.707   1.072  1.1814 -0.8770  0.5707
   90MOL   H14423462   4.694   0.692   1.240 -1.7592 -0.4646 -1.5186
   90MOL   C14523463   4.906   0.698   1.201  0.5159 -0.2386 -0.4673
   90MOL   C14623464   4.991   0.717   1.076 -0.7531  0.3167  0.1826
   90MOL   C14723465   5.109   0.785   1.059  0.0336 -0.7302  0.4078
   90MOL   C14823466   5.176   0.862   1.173  0.1601 -0.0488  0.8783
   90MOL   C14923467   5.174   0.792   0.923 -0.8062  0.4639 -0.0090
   90MOL   H15023468   4.899   0.590   1.206  0.9607 -0.3756 -2.5262
   90MOL   H15123469   4.947   0.735   1.295 -0.6783  1.4164 -0.5717
   90MOL   H15223470   4.946   0.669   0.991  0.1284  1.0281 -0.7075
   90MOL   H15323471   5.202   0.800   1.259 -1.1944  1.0371  2.0938
   90MOL   H15423472   5.105   0.930   1.220  0.2464 -1.5238  3.2101
   90MOL   H15523473   5.264   0.913   1.133 -0.7275 -0.2792 -1.4712
   90MOL   H15623474   5.193   0.897   0.905 -0.7537  0.8774  2.2310
   90MOL   H15723475   5.107   0.763   0.842 -1.9827 -1.2754  1.5375
   90MOL   C15823476   5.306   0.712   0.927 -0.7467  0.4891  0.4606
   90MOL   C15923477   5.381   0.719   0.797 -0.6586 -1.0490  0.2115
   90MOL   C16023478   5.510   0.752   0.774  0.1597  1.2791  0.7995
   90MOL   C16123479   5.603   0.795   0.889  0.1733 -0.0364  0.0906
   90MOL   C16223480   5.557   0.758   0.633  0.1225  0.4721 -0.1026
   90MOL   H16323481   5.288   0.607   0.947 -0.4260 -0.2633 -2.8984
   90MOL   H16423482   5.375   0.734   1.009 -1.9969 -0.7614  1.8854
   90MOL   H16523483   5.327   0.696   0.707 -0.4464  1.0819 -0.4802
   90MOL   H16623484   5.561   0.852   0.971  1.5307  0.6235  0.3484
   90MOL   H16723485   5.674   0.872   0.858  0.4134 -0.1297  0.3966
   90MOL   H16823486   5.657   0.708   0.927 -1.6530 -0.8900  0.7734
   90MOL   H16923487   5.605   0.856   0.629 -0.6019  0.8338  0.0566
   90MOL   H17023488   5.475   0.760   0.562 -1.3041 -1.1273  1.4482
   90MOL   C17123489   5.673   0.652   0.605 -0.2066  0.2597 -0.2012
   90MOL   C17223490   5.765   0.704   0.494  0.1119 -0.1874 -0.4330
   90MOL   C17323491   5.837   0.633   0.407 -0.1879  0.6191  0.3893
   90MOL   C17423492   5.848   0.481   0.414  0.1839  0.1409 -0.6764
   90MOL   C17523493   5.924   0.700   0.299  0.0192 -0.3495 -0.2219
   90MOL   H17623494   5.628   0.555   0.582 -1.7581  0.7409  0.7525
   90MOL   H17723495   5.734   0.641   0.694  0.9495  1.2226 -0.8502
   90MOL   H17823496   5.769   0.811   0.478  0.2801  0.1880  1.9605
   90MOL   H17923497   5.813   0.441   0.319 -1.0866  0.4906 -0.3651
   90MOL   H18023498   5.796   0.443   0.502  1.1630  1.2494  0.4028
   90MOL   H18123499   5.953   0.462   0.438 -0.3728 -0.6070  1.3090
   90MOL   H18223500   6.028   0.671   0.316  1.2853  3.9015 -0.2619
   90MOL   H18323501   5.911   0.808   0.300  2.0509 -0.0828  0.8166
   90MOL   C18423502   5.899   0.663   0.153 -0.2752  0.0577 -0.1948
   90MOL   C18523503   6.011   0.713   0.068 -0.1608 -0.4257  0.0121
   90MOL   C18623504   5.996   0.808   7.859 -0.8278 -0.1237  0.4585
   90MOL   C18723505   5.866   0.871   7.821  0.7329  0.2872 -1.1680
   90MOL   C18823506   6.117   0.862   7.779  0.5520 -0.0433  0.0101
   90MOL   H18923507   5.796   0.685   0.123 -0.2630  0.5886  0.1333
   90MOL   H19023508   5.902   0.555   0.140  0.1057 -0.0630  0.8756
   90MOL   H19123509   6.113   0.682   0.086  1.2323  2.1522 -2.9715
   90MOL   H19223510   5.827   0.826   7.730 -2.5546 -0.4021  0.5264
   90MOL   H19323511   5.881   0.979   7.813 -0.2811  0.3660 -2.0308
   90MOL   H19423512   5.794   0.862   0.020  0.7001 -1.2207 -1.3459
   90MOL   H19523513   6.212   0.829   7.819 -0.4426  0.0261  2.4957
   90MOL   H19623514   6.119   0.970   7.795  0.9289  0.3076 -2.2432
   90MOL   C19723515   6.114   0.831   7.623 -0.5897  0.2673 -0.6896
   90MOL   C19823516   6.153   0.690   7.596  0.1106  0.5449 -0.8236
   90MOL   C19923517   6.281   0.655   7.591  0.6627  0.7093  0.3324
   90MOL   C20023518   6.401   0.738   7.612 -0.8282 -0.0181  0.3097
   90MOL   C20123519   6.304   0.504   7.587  0.4036  0.3187  0.5177
   90MOL   H20223520   6.185   0.903   7.582 -0.6850  1.0688  0.5301
   90MOL   H20323521   6.015   0.850   7.580 -0.7510  0.3081 -0.2990
   90MOL   H20423522   6.074   0.617   7.582  0.3086  0.2318 -0.3350
   90MOL   H20523523   6.464   0.708   7.696  0.4159  0.8942 -0.2776
   90MOL   H20623524   6.399   0.847   7.625  0.2160  0.3212 -2.1355
   90MOL   H20723525   6.465   0.727   7.525  0.2696 -0.6402  1.1805
   90MOL   H20823526   6.213   0.444   7.575 -0.1823  0.9529  1.6472
   90MOL   H20923527   6.341   0.478   7.687 -1.0818  0.7192  1.1972
   90MOL   C21023528   6.393   0.462   7.466  0.0216 -0.2066  0.1295
   90MOL   C21123529   6.387   0.317   7.441  0.2819 -0.3148 -0.3818
   90MOL   C21223530   6.436   0.226   7.523  0.2400 -0.2089 -0.5948
   90MOL   C21323531   6.507   0.250   7.657 -0.1085 -0.2053 -0.9002
   90MOL   C21423532   6.445   0.090   7.476  0.1026 -0.4752  0.0877
   90MOL   H21523533   6.496   0.496   7.471  0.0625 -0.4033  0.5438
   90MOL   H21623534   6.358   0.509   7.373  2.7463  1.0583 -0.2989
   90MOL   H21723535   6.356   0.282   7.343 -0.0833 -1.8387  0.2658
   90MOL   H21823536   6.564   0.343   7.657 -1.3688  0.5879 -0.0848
   90MOL   H21923537   6.572   0.169   7.691 -0.9767 -0.9932 -1.1023
   90MOL   H22023538   6.426   0.263   7.729 -0.1967  1.3515 -1.2664
   90MOL   H22123539   6.546   0.060   7.448  0.4788  0.4322  0.4574
   90MOL   H22223540   6.389   0.081   7.384 -0.9148 -3.5328  0.9321
   90MOL   C22323541   6.401   7.868   7.581 -0.2952  0.4448 -0.0826
   90MOL   C22423542   6.386   7.726   7.515 -0.3092 -0.3124  1.1757
   90MOL   C22523543   6.465   7.621   7.544  0.0622 -0.9554 -0.7299
   90MOL   C22623544   6.594   7.632   7.627  0.5549 -0.5959 -0.2858
   90MOL   C22723545   6.459   7.486   7.484 -0.2511  0.7035 -0.0352
   90MOL   H22823546   6.299   0.007   7.613 -1.0731 -2.6690 -0.3102
   90MOL   H22923547   6.457   7.855   7.674 -1.7903  0.0729  0.7948
   90MOL   H23023548   6.303   7.715   7.447  0.9630  1.6176 -0.7403
   90MOL   H23123549   6.679   7.603   7.566  0.8955 -0.7837  0.2697
   90MOL   H23223550   6.603   7.562   7.710 -0.5384  1.4582  1.6149
   90MOL   H23323551   6.608   7.730   7.672 -1.2609 -0.1106 -0.7138
   90MOL   H23423552   6.438   7.412   7.562  1.1273  0.9897  0.6261
   90MOL   H23523553   6.559   7.470   7.444 -0.2320  2.7133 -0.8514
   90MOL   C23623554   6.361   7.470   7.360 -0.0880 -0.9703 -0.8319
   90MOL   C23723555   6.370   7.322   7.321 -0.2160  0.4168 -0.5060
   90MOL   C23823556   6.275   7.230   7.314 -0.0835  0.7546 -0.4895
   90MOL   C23923557   6.133   7.269   7.336  0.5541 -0.3202  0.5956
   90MOL   C24023558   6.307   7.085   7.303  0.0647  0.8152  0.8691
   90MOL   H24123559   6.368   7.540   7.277  1.3072  0.4110  0.4375
   90MOL   H24223560   6.262   7.483   7.405  0.9179 -0.6290  1.3259
   90MOL   H24323561   6.474   7.295   7.308 -1.1275 -2.7265 -1.6850
   90MOL   H24423562   6.067   7.186   7.311  0.2464 -0.6130  2.3368
   90MOL   H24523563   6.095   7.343   7.266  2.4285  0.6705  0.5866
   90MOL   H24623564   6.112   7.297   7.439  0.2957 -0.6206  0.6262
   90MOL   H24723565   6.258   7.032   7.384 -1.8804  1.4027  0.1226
   90MOL   H24823566   6.415   7.072   7.307  0.1356 -0.9559 -3.8229
   90MOL   C24923567   6.261   7.030   7.165 -0.0579  0.4688  1.1602
   90MOL   C25023568   6.290   6.881   7.139 -0.4039 -0.3988 -0.1627
   90MOL   C25123569   6.385   6.831   7.057  0.6854  0.4181 -0.1678
   90MOL   C25223570   6.483   6.914   6.976  0.4894  0.0082  0.4196
   90MOL   C25323571   6.404   6.678   7.032 -0.2380  0.5896  0.7869
   90MOL   H25423572   6.294   7.087   7.078 -1.3329 -2.5604 -1.4160
   90MOL   H25523573   6.152   7.037   7.160 -0.2263 -2.4359 -0.6637
   90MOL   H25623574   6.226   6.810   7.190  0.5698  0.4177  2.2701
   90MOL   H25723575   6.472   6.904   6.868  1.5299 -0.6316  0.3641
   90MOL   H25823576   6.574   6.857   6.998 -0.1883 -0.2478  2.6965
   90MOL   H25923577   6.485   7.020   7.001 -1.5700 -0.0451  0.9133
   90MOL   H26023578   6.371   6.650   6.932  1.0096 -2.5095  1.1876
   90MOL   H26123579   6.346   6.617   7.100 -0.8712 -0.7512 -0.9119
   90MOL   H26223580   6.497   6.634   7.067 -1.1107 -1.6975  0.2761
   91MOL     C123581   3.220   4.766   5.941  0.4649 -0.1850  0.5083
   91MOL     C223582   3.185   4.650   5.850  0.5136  0.2669 -0.2073
   91MOL     C323583   3.255   4.622   5.736 -0.5095 -0.5806 -0.8546
   91MOL     C423584   3.369   4.710   5.682  0.2071 -0.5347  0.4179
   91MOL     C523585   3.212   4.509   5.646 -0.0482  0.2917 -0.5164
   91MOL     H623586   3.159   4.854   5.920  1.4120  0.8577  2.0828
   91MOL     H723587   3.195   4.741   6.044  1.4906 -1.7574  0.3853
   91MOL     H823588   3.100   4.587   5.873  1.8063 -1.4011  0.1514
   91MOL     H923589   3.366   4.700   5.573 -2.6039  1.1859  0.2808
   91MOL    H1023590   3.455   4.677   5.740  0.0958  0.2866  1.0611
   91MOL    H1123591   3.358   4.816   5.703 -0.9215 -0.3001 -1.2461
   91MOL    H1223592   3.165   4.553   5.558 -1.1215 -0.7108 -0.4576
   91MOL    H1323593   3.124   4.458   5.686  0.6038  0.1858  0.7843
   91MOL    H1423594   3.325   4.794   5.933 -0.1289  1.9184 -0.2533
   91MOL    C1523595   3.321   4.412   5.597  0.4073 -0.3857 -0.1295
   91MOL    C1623596   3.284   4.339   5.473  0.6216 -0.4750  0.0373
   91MOL    C1723597   3.232   4.219   5.463 -0.3855  0.6978  0.1218
   91MOL    C1823598   3.205   4.130   5.586  0.1712  0.2211  0.8017
   91MOL    C1923599   3.181   4.159   5.333 -0.6296  0.2705 -0.9349
   91MOL    H2023600   3.354   4.352   5.682  0.6508 -1.3477 -0.8973
   91MOL    H2123601   3.417   4.458   5.573  0.2583  0.4460  0.8061
   91MOL    H2223602   3.292   4.406   5.390  2.1044 -0.5374  0.1184
   91MOL    H2323603   3.179   4.189   5.674  0.7153  2.2641 -0.3711
   91MOL    H2423604   3.290   4.068   5.617 -1.2676 -2.0251  0.3786
   91MOL    H2523605   3.123   4.060   5.572  0.7627 -0.3196 -0.0637
   91MOL    H2623606   3.192   4.234   5.255  2.1133  0.6055 -0.2541
   91MOL    H2723607   3.072   4.155   5.331 -0.5700 -2.5393 -0.2826
   91MOL    C2823608   3.251   4.029   5.283  0.5493 -0.0229  0.4914
   91MOL    C2923609   3.245   4.000   5.134  0.3763 -0.2415  0.1895
   91MOL    C3023610   3.165   3.916   5.058 -0.8791  0.4076 -0.4858
   91MOL    C3123611   3.069   3.819   5.127  0.0939  0.1527  0.3944
   91MOL    C3223612   3.172   3.917   4.908  0.1661 -0.5015  0.3432
   91MOL    H3323613   3.197   3.951   5.338  0.3608 -1.2593 -1.4147
   91MOL    H3423614   3.356   4.029   5.310  0.6834 -0.5393 -0.0183
   91MOL    H3523615   3.305   4.074   5.084 -1.1267 -1.8104 -4.1378
   91MOL    H3623616   2.976   3.876   5.119  0.1696  0.0464 -1.5051
   91MOL    H3723617   3.090   3.802   5.232  0.2671  2.0298  0.6901
   91MOL    H3823618   3.056   3.730   5.066  2.2434  0.7563 -1.0130
   91MOL    H3923619   3.260   3.977   4.887  1.0161 -1.7210  0.3721
   91MOL    H4023620   3.089   3.973   4.865 -1.6787 -4.0414 -0.9358
   91MOL    C4123621   3.165   3.778   4.840  0.3108 -0.3877 -0.1388
   91MOL    C4223622   3.211   3.780   4.700  0.2749  0.0536  0.3663
   91MOL    C4323623   3.277   3.685   4.632 -0.7629 -0.0928  0.1941
   91MOL    C4423624   3.299   3.546   4.687 -0.1952  0.0054 -0.7083
   91MOL    C4523625   3.316   3.704   4.487 -0.2663 -0.1551 -0.1663
   91MOL    H4623626   3.065   3.736   4.849 -0.6404  1.9057  0.2328
   91MOL    H4723627   3.227   3.713   4.902 -1.7144 -1.4207  0.8565
   91MOL    H4823628   3.196   3.876   4.652 -0.5532 -0.7982 -1.1307
   91MOL    H4923629   3.380   3.547   4.760 -0.9891  1.0635  0.1850
   91MOL    H5023630   3.310   3.468   4.612 -1.2709 -0.4763 -0.3825
   91MOL    H5123631   3.210   3.510   4.739  1.3459 -0.5134  1.6373
   91MOL    H5223632   3.253   3.781   4.442 -0.6653  0.0450  0.7156
   91MOL    H5323633   3.285   3.623   4.422 -1.6016  0.9982 -1.0151
   91MOL    C5423634   3.463   3.737   4.468 -0.1335  0.7848 -0.6507
   91MOL    C5523635   3.485   3.757   4.326  0.5375 -1.0890 -0.0989
   91MOL    C5623636   3.595   3.728   4.255 -0.4557 -0.1464 -0.6904
   91MOL    C5723637   3.728   3.689   4.317  0.1312  0.0023 -0.7716
   91MOL    C5823638   3.601   3.753   4.103 -0.2855 -0.3932 -0.5254
   91MOL    H5923639   3.530   3.659   4.505 -1.6421  0.0888  0.6309
   91MOL    H6023640   3.473   3.833   4.518  0.2343  0.0978  0.6064
   91MOL    H6123641   3.394   3.785   4.276  0.5445 -0.1091  0.4130
   91MOL    H6223642   3.813   3.755   4.300  0.3900  0.4595  2.0788
   91MOL    H6323643   3.747   3.591   4.272  0.4515 -0.1809 -0.2326
   91MOL    H6423644   3.722   3.667   4.424  0.5228  0.0449 -0.7427
   91MOL    H6523645   3.681   3.686   4.072  0.2103  0.0173 -0.1344
   91MOL    H6623646   3.640   3.855   4.099  0.8847 -0.8669 -1.3617
   91MOL    C6723647   3.473   3.751   4.013  0.6902  0.3308  0.5856
   91MOL    C6823648   3.387   3.876   4.024 -0.1915  0.4935 -0.3265
   91MOL    C6923649   3.249   3.878   4.019 -0.3378  0.1008 -0.5121
   91MOL    C7023650   3.163   3.759   4.032  0.4268  0.7357  0.1596
   91MOL    C7123651   3.184   4.014   4.040  0.5952 -0.3852  0.4633
   91MOL    H7223652   3.408   3.664   4.023  1.4290 -0.0704  1.9792
   91MOL    H7323653   3.501   3.754   3.908 -1.7792 -0.4806 -0.1288
   91MOL    H7423654   3.433   3.974   4.028 -0.0233  0.3693  1.0946
   91MOL    H7523655   3.185   3.707   4.125 -1.2823  1.3293  0.9232
   91MOL    H7623656   3.189   3.693   3.949 -1.3854  0.2212 -0.0290
   91MOL    H7723657   3.057   3.782   4.027  0.4542  0.9348  0.4514
   91MOL    H7823658   3.096   4.020   3.975 -1.4681 -0.4480  3.1206
   91MOL    H7923659   3.245   4.100   4.016  0.3654 -0.0859  0.9243
   91MOL    C8023660   3.140   4.032   4.179  0.3551  0.5976 -0.6496
   91MOL    C8123661   3.064   4.163   4.200  0.5865  0.3624  0.0553
   91MOL    C8223662   3.005   4.206   4.309  0.3061 -0.1787 -1.0954
   91MOL    C8323663   2.996   4.121   4.443 -0.6372  0.6300 -0.6779
   91MOL    C8423664   2.919   4.331   4.303 -0.0730 -0.7268  0.2250
   91MOL    H8523665   3.232   4.037   4.238  0.1167  0.8170 -0.2927
   91MOL    H8623666   3.091   3.944   4.220  0.5036  1.1254  0.6980
   91MOL    H8723667   3.054   4.211   4.104  0.5975  0.3744  0.0600
   91MOL    H8823668   3.051   4.027   4.443 -3.4096 -1.0464 -0.7933
   91MOL    H8923669   2.892   4.093   4.460 -0.8484  1.0537 -1.2508
   91MOL    H9023670   3.033   4.171   4.532 -1.4725  1.3009 -0.6989
   91MOL    H9123671   2.913   4.364   4.199  0.8044 -0.9582  0.1043
   91MOL    H9223672   2.970   4.410   4.358 -0.8988  1.0773 -1.5246
   91MOL    C9323673   2.775   4.315   4.366  0.4275  0.3662  0.0344
   91MOL    C9423674   2.702   4.446   4.341  0.2169 -0.2133 -0.3735
   91MOL    C9523675   2.664   4.543   4.422  0.4019 -0.8382 -0.0697
   91MOL    C9623676   2.703   4.549   4.565 -0.2814 -0.4558  0.1857
   91MOL    C9723677   2.594   4.663   4.357 -0.1269 -0.5789  0.1154
   91MOL    H9823678   2.770   4.273   4.466 -0.7704 -1.2277 -0.6704
   91MOL    H9923679   2.708   4.248   4.313 -0.1201 -0.7478  2.0826
   91MOL   H10023680   2.678   4.456   4.236 -0.7682  1.1825 -0.0331
   91MOL   H10123681   2.768   4.469   4.600  0.4259  0.3925  0.8554
   91MOL   H10223682   2.626   4.549   4.643  0.2580 -2.8046  0.7449
   91MOL   H10323683   2.757   4.644   4.570  1.9700 -1.7872  1.8590
   91MOL   H10423684   2.630   4.668   4.254 -1.2781  0.6570 -0.2448
   91MOL   H10523685   2.638   4.746   4.412  0.5078 -0.4761 -0.5342
   91MOL   C10623686   2.438   4.657   4.369  0.3020 -0.6132  0.4618
   91MOL   C10723687   2.373   4.793   4.327  0.1862 -0.0335 -0.1753
   91MOL   C10823688   2.301   4.809   4.211 -0.3392  0.1631 -0.6754
   91MOL   C10923689   2.301   4.707   4.105 -0.2257 -0.8731 -0.1529
   91MOL   C11023690   2.222   4.935   4.167  0.4396 -0.3852  0.7463
   91MOL   H11123691   2.395   4.634   4.466 -2.3348  2.9863  0.2487
   91MOL   H11223692   2.394   4.577   4.310 -2.8212  1.9163 -0.8300
   91MOL   H11323693   2.378   4.872   4.400 -2.5293  1.4484 -1.4972
   91MOL   H11423694   2.403   4.670   4.089  0.7453  1.3733  0.7082
   91MOL   H11523695   2.274   4.741   4.005  0.6623 -0.8584 -0.3959
   91MOL   H11623696   2.240   4.622   4.136  1.0646 -0.8856  2.4783
   91MOL   H11723697   2.229   5.008   4.247  0.3194  1.1249 -0.6036
   91MOL   H11823698   2.118   4.909   4.146  0.7700 -0.2714 -1.1111
   91MOL   C11923699   2.260   5.003   4.038 -0.0565  0.7306  0.0393
   91MOL   C12023700   2.414   5.023   4.043  0.6818  0.7044 -0.5991
   91MOL   C12123701   2.474   5.141   4.017 -0.3374  0.0563  0.2147
   91MOL   C12223702   2.400   5.276   4.015 -0.0472 -0.1064 -0.8273
   91MOL   C12323703   2.627   5.155   4.003  0.0201 -0.1407 -0.4626
   91MOL   H12423704   2.217   5.101   4.016 -0.0862  0.1246 -2.7867
   91MOL   H12523705   2.233   4.947   3.949  0.5476  1.0789 -0.3713
   91MOL   H12623706   2.485   4.942   4.046  0.5748  0.6630  1.4249
   91MOL   H12723707   2.368   5.282   3.911 -0.1030 -0.3241 -0.8224
   91MOL   H12823708   2.479   5.348   4.039 -1.2714  0.1573  2.6873
   91MOL   H12923709   2.322   5.280   4.091  1.4658 -0.8688  0.8159
   91MOL   H13023710   2.639   5.216   3.914  2.7039 -0.3325 -0.2848
   91MOL   H13123711   2.670   5.062   3.966 -1.6930 -0.4376 -1.7369
   91MOL   C13223712   2.715   5.223   4.116 -0.0798  0.0839 -0.0966
   91MOL   C13323713   2.732   5.138   4.241 -0.5046 -0.2398  0.0986
   91MOL   C13423714   2.672   5.146   4.367 -0.3666 -0.0145  0.2189
   91MOL   C13523715   2.594   5.267   4.418  0.2772 -0.1951  0.6997
   91MOL   C13623716   2.699   5.043   4.475 -0.2209 -0.3790  0.7512
   91MOL   H13723717   2.668   5.314   4.152 -0.5500 -0.2201  0.0648
   91MOL   H13823718   2.812   5.247   4.072  0.4102 -2.6042 -0.5619
   91MOL   H13923719   2.791   5.051   4.219 -0.5335 -0.1925 -0.1608
   91MOL   H14023720   2.663   5.346   4.450 -0.0459  1.0933 -1.7217
   91MOL   H14123721   2.524   5.235   4.495 -0.3725  0.7368  0.5000
   91MOL   H14223722   2.535   5.297   4.332 -1.7157  0.1099  2.1434
   91MOL   H14323723   2.750   4.958   4.430  0.4832  1.4813 -2.1501
   91MOL   H14423724   2.602   4.998   4.496  0.4308 -1.3578  1.7106
   91MOL   C14523725   2.772   5.103   4.595 -0.8190 -0.0386 -0.2013
   91MOL   C14623726   2.839   4.997   4.684  0.3439 -0.3532  0.4206
   91MOL   C14723727   2.808   4.965   4.813 -0.5438 -0.4541 -0.3641
   91MOL   C14823728   2.693   5.023   4.896  0.1340  0.2783 -0.1373
   91MOL   C14923729   2.894   4.870   4.890  0.4002 -0.2748 -0.4990
   91MOL   H15023730   2.704   5.172   4.646 -0.8163  1.3281 -1.9807
   91MOL   H15123731   2.854   5.166   4.561 -0.9300 -0.1744 -0.7296
   91MOL   H15223732   2.919   4.941   4.638 -2.1913 -2.4526 -1.6705
   91MOL   H15323733   2.624   5.083   4.836 -0.7127  0.7516  1.2919
   91MOL   H15423734   2.738   5.081   4.976 -1.1944  2.0780 -0.6580
   91MOL   H15523735   2.639   4.940   4.942 -0.7285  0.4119 -0.8867
   91MOL   H15623736   2.959   4.822   4.816 -0.8812 -1.1473 -1.0609
   91MOL   H15723737   2.830   4.791   4.929 -0.1611  0.2958 -0.2631
   91MOL   C15823738   2.984   4.934   4.990 -0.1147 -0.2042  0.0689
   91MOL   C15923739   3.057   4.835   5.070 -0.3420  0.5732  0.9112
   91MOL   C16023740   3.168   4.867   5.138  0.0609  0.0329 -0.4477
   91MOL   C16123741   3.209   5.010   5.157  0.0756  0.0470 -0.0214
   91MOL   C16223742   3.255   4.766   5.212  0.5748  0.3916 -0.2896
   91MOL   H16323743   2.925   4.993   5.061 -2.3075 -1.7200 -0.4566
   91MOL   H16423744   3.048   5.003   4.935 -0.1545  0.1896  0.5111
   91MOL   H16523745   3.021   4.734   5.057 -1.9758  1.4562 -2.0848
   91MOL   H16623746   3.249   5.029   5.257 -1.6815  0.7909  0.5635
   91MOL   H16723747   3.128   5.079   5.133  0.8523  1.3262  0.9481
   91MOL   H16823748   3.295   5.037   5.096 -0.6428  0.4993 -0.8375
   91MOL   H16923749   3.186   4.683   5.229  0.9473 -0.1304 -1.3026
   91MOL   H17023750   3.293   4.813   5.302 -2.2343  1.7302  0.2554
   91MOL   C17123751   3.371   4.726   5.119 -0.9926  0.9827  0.6198
   91MOL   C17223752   3.472   4.642   5.203  0.2831 -0.4521  0.7136
   91MOL   C17323753   3.503   4.511   5.180 -0.3281 -0.5785  0.3694
   91MOL   C17423754   3.448   4.420   5.075 -0.6219  0.4571 -0.5191
   91MOL   C17523755   3.623   4.451   5.252 -0.2968  0.6035  0.2957
   91MOL   H17623756   3.421   4.807   5.067  0.4007 -0.9713 -1.1891
   91MOL   H17723757   3.319   4.661   5.049 -0.4683 -0.3797  1.4703
   91MOL   H17823758   3.525   4.694   5.282  0.1942 -2.3134  2.0367
   91MOL   H17923759   3.402   4.332   5.121  0.8995 -0.7336 -1.1989
   91MOL   H18023760   3.521   4.379   5.005 -0.3244 -0.3062  0.2246
   91MOL   H18123761   3.379   4.475   5.012  0.5635  2.5453 -0.0610
   91MOL   H18223762   3.590   4.355   5.290  2.2484 -0.5741 -0.3153
   91MOL   H18323763   3.642   4.513   5.339 -0.3016  1.0188  0.0004
   91MOL   C18423764   3.754   4.441   5.161  0.3121 -1.1522 -0.2650
   91MOL   C18523765   3.848   4.561   5.168 -0.5112 -0.0137 -0.0399
   91MOL   C18623766   3.978   4.548   5.201 -0.0403  0.3588  0.4959
   91MOL   C18723767   4.051   4.423   5.203 -0.0676  0.4829  0.0631
   91MOL   C18823768   4.060   4.674   5.223  0.2437  0.1918  0.3715
   91MOL   H18923769   3.716   4.437   5.059  3.4902 -2.8563 -1.4327
   91MOL   H19023770   3.807   4.350   5.187  0.1021 -0.4648  2.6728
   91MOL   H19123771   3.807   4.661   5.165  3.2413  1.5961 -0.2964
   91MOL   H19223772   4.057   4.400   5.310 -0.8171  1.2312  0.2740
   91MOL   H19323773   4.152   4.440   5.166 -0.5153 -0.1970 -1.4808
   91MOL   H19423774   4.007   4.334   5.158  1.3624  1.3973 -3.2959
   91MOL   H19523775   4.102   4.686   5.323  0.4721 -1.1298  0.4425
   91MOL   H19623776   3.996   4.761   5.207  0.0970  0.3278  1.6800
   91MOL   C19723777   4.186   4.690   5.138  0.6362 -0.2381 -0.5311
   91MOL   C19823778   4.244   4.828   5.164 -0.1116  0.5281 -0.4927
   91MOL   C19923779   4.319   4.903   5.083  0.1790  0.1311 -0.2188
   91MOL   C20023780   4.346   4.880   4.942  0.5705 -1.0272  0.0432
   91MOL   C20123781   4.389   5.024   5.137 -0.1712  0.3702  0.0182
   91MOL   H20223782   4.163   4.695   5.032 -0.5870 -0.2828 -0.2792
   91MOL   H20323783   4.261   4.617   5.170 -0.1514 -0.0270  1.9576
   91MOL   H20423784   4.224   4.861   5.264  1.3357 -1.2416  0.4080
   91MOL   H20523785   4.340   4.969   4.878 -2.5704 -3.0454 -2.6207
   91MOL   H20623786   4.272   4.816   4.894 -0.4363 -0.4465  0.8082
   91MOL   H20723787   4.446   4.838   4.928  0.6949 -1.1146  1.1818
   91MOL   H20823788   4.494   5.002   5.116 -0.3875 -0.1540 -0.5546
   91MOL   H20923789   4.382   5.014   5.245 -2.4371  3.0301  0.1631
   91MOL   C21023790   4.322   5.160   5.097 -0.5113  0.1784 -0.5094
   91MOL   C21123791   4.411   5.276   5.145 -0.1326  0.3127  0.3001
   91MOL   C21223792   4.379   5.400   5.175  0.1722 -0.0996 -0.2925
   91MOL   C21323793   4.246   5.458   5.159  1.0569  0.0498 -0.1502
   91MOL   C21423794   4.484   5.496   5.226  0.3341 -0.3501 -0.1737
   91MOL   H21523795   4.222   5.178   5.137 -0.3161 -0.7751  0.4386
   91MOL   H21623796   4.321   5.162   4.988 -0.2982 -0.9489 -0.5383
   91MOL   H21723797   4.516   5.251   5.152 -0.2691 -0.3350  0.0918
   91MOL   H21823798   4.189   5.475   5.251 -0.5306  0.0569 -1.1160
   91MOL   H21923799   4.180   5.391   5.104 -0.7768  0.0017  2.0198
   91MOL   H22023800   4.257   5.549   5.101  1.6546 -0.3911 -0.7357
   91MOL   H22123801   4.494   5.579   5.156  1.4474 -0.7942 -0.5655
   91MOL   H22223802   4.582   5.448   5.231  1.1381  1.0494 -1.9051
   91MOL   C22323803   4.463   5.550   5.367 -0.3526 -0.0104  0.0960
   91MOL   C22423804   4.567   5.642   5.414 -0.1098  0.0061 -0.2808
   91MOL   C22523805   4.686   5.600   5.449 -0.3855 -0.5848 -0.0659
   91MOL   C22623806   4.737   5.458   5.436  0.0199 -0.9378 -0.0053
   91MOL   C22723807   4.799   5.695   5.480  0.1771 -0.3101 -0.8089
   91MOL   H22823808   4.449   5.466   5.435  1.6783  0.5426  1.2496
   91MOL   H22923809   4.364   5.596   5.365 -0.6301 -0.6109 -0.0439
   91MOL   H23023810   4.560   5.750   5.414  1.3857  0.1110 -1.6596
   91MOL   H23123811   4.788   5.428   5.528  0.9794 -0.7813 -0.4819
   91MOL   H23223812   4.801   5.440   5.350  0.5752 -4.2325  0.9953
   91MOL   H23323813   4.656   5.386   5.424 -1.2235  0.4782 -0.2750
   91MOL   H23423814   4.847   5.656   5.570  0.1462  0.7185 -0.3482
   91MOL   H23523815   4.759   5.787   5.521  0.6920 -0.4063 -0.0819
   91MOL   C23623816   4.890   5.716   5.362 -0.7520 -0.2013 -0.7944
   91MOL   C23723817   4.996   5.818   5.393  0.4066  0.3780 -0.2401
   91MOL   C23823818   5.033   5.918   5.311 -0.0439 -0.1492 -0.4481
   91MOL   C23923819   4.984   5.931   5.172  0.3963 -0.4497  0.1464
   91MOL   C24023820   5.144   6.012   5.361 -0.1391  0.2267  0.4500
   91MOL   H24123821   4.842   5.735   5.266 -0.1421 -1.3985 -1.3503
   91MOL   H24223822   4.944   5.622   5.351  2.7541  1.6443 -0.2770
   91MOL   H24323823   5.039   5.816   5.492 -1.2360  1.3531  0.5251
   91MOL   H24423824   4.900   6.000   5.168  0.0582 -0.8976 -0.4970
   91MOL   H24523825   4.945   5.838   5.130 -1.2389 -0.5816  1.8627
   91MOL   H24623826   5.063   5.960   5.103 -0.7885 -0.5016 -1.2501
   91MOL   H24723827   5.226   6.018   5.290 -0.6815 -0.5185 -0.2501
   91MOL   H24823828   5.176   5.973   5.457  0.5411  0.0869  0.1666
   91MOL   C24923829   5.094   6.150   5.403 -0.4907  0.1361  0.5577
   91MOL   C25023830   5.204   6.237   5.464 -0.6933 -0.0160 -0.2520
   91MOL   C25123831   5.276   6.338   5.409  0.3716 -0.1008 -0.2143
   91MOL   C25223832   5.265   6.377   5.262  0.4157  0.5240  0.6262
   91MOL   C25323833   5.391   6.400   5.489 -0.9241  0.0367 -1.0501
   91MOL   H25423834   5.022   6.141   5.485 -1.2810  1.1764 -0.0182
   91MOL   H25523835   5.045   6.201   5.321 -0.0715 -0.2278  0.0777
   91MOL   H25623836   5.219   6.201   5.565  0.4935  0.4915 -0.2293
   91MOL   H25723837   5.211   6.472   5.262  0.8879  0.7903  1.8285
   91MOL   H25823838   5.208   6.310   5.197 -0.5593  1.4533  0.5158
   91MOL   H25923839   5.363   6.390   5.215 -0.9834  2.9526 -1.7771
   91MOL   H26023840   5.405   6.341   5.580 -2.3853  0.8106 -0.2922
   91MOL   H26123841   5.370   6.496   5.536  0.7572 -0.2322  0.2951
   91MOL   H26223842   5.485   6.395   5.436  0.3583  0.2644  1.1248
   92MOL     C123843   1.099   7.851   7.763  0.3875  0.1381  0.7900
   92MOL     C223844   0.946   7.866   7.783 -0.0183 -0.4687 -0.6788
   92MOL     C323845   0.873   7.824   0.007  0.4902 -0.5601 -0.1604
   92MOL     C423846   0.942   7.749   0.120 -0.2432  0.2037  0.0075
   92MOL     C523847   0.725   7.849   0.024  0.8921  0.3034 -0.2918
   92MOL     H623848   1.127   7.837   7.659  2.3394 -1.0715  1.4264
   92MOL     H723849   1.137   0.068   7.786  1.6954 -0.6709  2.3109
   92MOL     H823850   0.896   0.043   7.709 -0.5055  0.4947  0.4090
   92MOL     H923851   0.948   7.643   0.094 -0.7763  0.3393 -0.6937
   92MOL    H1023852   0.892   7.762   0.216  0.0692  0.8640  0.0812
   92MOL    H1123853   1.043   7.779   0.148  0.5255 -1.1537 -1.2271
   92MOL    H1223854   0.664   7.759   0.029  1.4251 -0.0823 -0.6194
   92MOL    H1323855   0.687   7.879   7.809  0.6329 -0.2481 -0.3638
   92MOL    H1423856   1.149   7.773   7.821 -0.6203  0.1330  1.6738
   92MOL    C1523857   0.678   0.067   0.130 -0.1471 -0.2972  0.0551
   92MOL    C1623858   0.530   0.098   0.100 -0.4463  0.8310  0.1857
   92MOL    C1723859   0.484   0.226   0.090  0.3493 -0.0064  0.2962
   92MOL    C1823860   0.589   0.344   0.087 -0.0742 -0.2346 -0.1448
   92MOL    C1923861   0.334   0.251   0.094 -0.2867 -0.8774 -0.4168
   92MOL    H2023862   0.740   0.156   0.136  2.3704 -2.1726  4.2168
   92MOL    H2123863   0.682   0.013   0.225  0.5821 -2.6992 -1.3147
   92MOL    H2223864   0.470   0.009   0.096  1.3459 -0.4313  0.8546
   92MOL    H2323865   0.543   0.434   0.046  1.4948 -0.1411 -1.7417
   92MOL    H2423866   0.676   0.323   0.025 -0.9618 -1.0043 -1.1519
   92MOL    H2523867   0.625   0.368   0.187  1.7498  3.3841 -1.5706
   92MOL    H2623868   0.283   0.165   0.136  1.5473 -2.0927 -0.6309
   92MOL    H2723869   0.297   0.289   7.882  0.9448 -1.6299 -1.2089
   92MOL    C2823870   0.287   0.367   0.186  0.2150  0.1665 -0.6150
   92MOL    C2923871   0.148   0.430   0.153  0.6297 -0.1316 -0.3724
   92MOL    C3023872   0.029   0.390   0.201 -0.0019  0.6369 -0.5476
   92MOL    C3123873   0.022   0.284   0.309 -0.1677  0.2990 -0.4018
   92MOL    C3223874   7.774   0.442   0.154 -0.6455 -0.3721 -0.0616
   92MOL    H3323875   0.355   0.452   0.189  0.0146  0.2801  2.1124
   92MOL    H3423876   0.279   0.322   0.286 -0.6277  1.7472  0.0491
   92MOL    H3523877   0.147   0.504   0.073 -1.4644  1.0035  0.6514
   92MOL    H3623878   0.022   0.336   0.405 -0.9665 -0.2958 -0.0735
   92MOL    H3723879   0.102   0.210   0.311 -1.4214 -1.0755  0.1524
   92MOL    H3823880   7.813   0.229   0.290 -0.2679  0.8302 -1.4472
   92MOL    H3923881   7.726   0.504   0.230 -1.4675  0.7984 -1.5077
   92MOL    H4023882   7.698   0.368   0.129  0.7666 -2.1673  0.8610
   92MOL    C4123883   7.781   0.548   0.038  0.5916 -0.2782 -0.0450
   92MOL    C4223884   7.652   0.594   7.855  0.0226 -0.5580 -0.6215
   92MOL    C4323885   7.621   0.726   7.843 -0.2992  0.1343 -0.4269
   92MOL    C4423886   7.702   0.841   0.018 -0.2077  0.0798 -0.5823
   92MOL    C4523887   7.505   0.768   7.755 -0.0795  0.0051  0.0388
   92MOL    H4623888   7.831   0.496   7.839 -0.0449 -0.5486 -0.2647
   92MOL    H4723889   7.855   0.626   0.056 -0.1469  0.5455 -0.5498
   92MOL    H4823890   7.580   0.523   7.818 -3.3332  2.0977  0.5127
   92MOL    H4923891   7.639   0.923   0.053 -0.0005  0.1122 -0.2841
   92MOL    H5023892   7.769   0.889   7.829  1.5300  0.3384  1.1626
   92MOL    H5123893   7.758   0.811   0.107  1.3932 -0.3229 -1.7072
   92MOL    H5223894   7.450   0.681   7.720  2.1393 -1.8653  1.0105
   92MOL    H5323895   7.553   0.809   7.666  0.8261 -1.2887 -0.0911
   92MOL    C5423896   7.401   0.864   7.806  0.0240  0.2829 -0.8368
   92MOL    C5523897   7.300   0.889   7.701 -0.0390  0.2705 -0.2816
   92MOL    C5623898   7.174   0.846   7.691  0.2426  0.3486 -0.3883
   92MOL    C5723899   7.111   0.765   7.805 -0.2226  0.6281 -0.3605
   92MOL    C5823900   7.086   0.873   7.572 -0.2735 -0.3028 -0.5217
   92MOL    H5923901   7.441   0.961   7.833  1.3365 -0.4343 -0.1230
   92MOL    H6023902   7.350   0.829   0.013 -2.8844 -0.0955 -2.5620
   92MOL    H6123903   7.335   0.944   7.615  0.1316 -0.5670 -0.7584
   92MOL    H6223904   7.024   0.817   7.846  0.2080 -0.1391  1.5976
   92MOL    H6323905   7.177   0.737   0.005 -1.8313 -1.5303  0.2447
   92MOL    H6423906   7.083   0.670   7.760  2.4734 -0.3356 -0.0864
   92MOL    H6523907   7.059   0.777   7.528 -0.3247 -0.9804  0.9332
   92MOL    H6623908   7.146   0.923   7.496 -0.6820 -0.0798 -0.6986
   92MOL    C6723909   6.954   0.940   7.596  0.1172 -0.1675  0.5270
   92MOL    C6823910   6.973   1.055   7.685 -0.4954 -0.7131  0.8523
   92MOL    C6923911   6.900   1.095   7.790  0.2788  0.4338  0.2042
   92MOL    C7023912   6.784   1.015   7.843 -0.4287  0.2242 -0.0325
   92MOL    C7123913   6.937   1.214   7.879 -0.1567 -1.2389  0.2398
   92MOL    H7223914   6.893   0.860   7.638  0.9167 -1.1467 -0.1438
   92MOL    H7323915   6.895   0.962   7.506 -0.4886 -1.2728  0.6486
   92MOL    H7423916   7.057   1.116   7.655 -0.2455 -1.6226 -0.3117
   92MOL    H7523917   6.745   0.943   7.771 -2.1670  0.3427  0.7680
   92MOL    H7623918   6.703   1.084   7.863 -0.1760  0.2316  0.9875
   92MOL    H7723919   6.810   0.960   0.050 -0.6416  0.1252 -0.0314
   92MOL    H7823920   7.046   1.214   7.875 -0.0584  0.8958  1.7203
   92MOL    H7923921   6.905   1.204   0.100 -2.5724 -0.7883 -0.4297
   92MOL    C8023922   6.880   1.345   7.817 -0.7452  0.6568  0.1854
   92MOL    C8123923   6.916   1.470   0.011 -0.7128 -0.8918 -0.0696
   92MOL    C8223924   6.886   1.597   7.857 -0.4490 -0.1482  0.1364
   92MOL    C8323925   6.799   1.625   7.740 -0.8413 -0.2530 -0.7618
   92MOL    C8423926   6.929   1.729   0.047  0.2815  0.1862 -0.3616
   92MOL    H8523927   6.775   1.318   7.818 -0.3415 -1.0067  1.8852
   92MOL    H8623928   6.910   1.356   7.713 -2.4893  1.7938 -0.2168
   92MOL    H8723929   6.979   1.452   0.097  0.9452 -0.2474 -1.1262
   92MOL    H8823930   6.696   1.609   7.771 -0.6091  1.0895  0.7919
   92MOL    H8923931   6.821   1.559   7.656  0.5683 -0.7406 -0.0350
   92MOL    H9023932   6.804   1.723   7.693 -3.4638  0.6662  0.7915
   92MOL    H9123933   6.850   1.804   0.058  1.7090  1.5929  0.6897
   92MOL    H9223934   7.001   1.782   7.867  1.3268 -1.6713 -0.7421
   92MOL    C9323935   6.988   1.715   0.189  0.4394  0.0933 -0.6582
   92MOL    C9423936   6.999   1.854   0.253  0.3189  0.1987  0.6108
   92MOL    C9523937   6.975   1.894   0.381 -0.2402 -0.0799  0.0014
   92MOL    C9623938   6.909   1.808   0.485  0.0051  0.9941 -0.5682
   92MOL    C9723939   7.000   2.035   0.431 -0.2089 -0.3210  0.3161
   92MOL    H9823940   7.090   1.679   0.180  0.1720 -0.8317 -0.0298
   92MOL    H9923941   6.931   1.644   0.249 -0.3177  0.9475 -0.3474
   92MOL   H10023942   7.054   1.917   0.184  1.4457  0.5286  1.7923
   92MOL   H10123943   6.961   1.831   0.578 -0.5095 -1.7824  0.4738
   92MOL   H10223944   6.931   1.702   0.470  2.9455  1.6055 -0.9240
   92MOL   H10323945   6.801   1.818   0.489 -0.3825 -2.8256  1.6778
   92MOL   H10423946   7.077   2.075   0.365 -1.0196  0.8207  0.0651
   92MOL   H10523947   7.054   2.035   0.526  0.1686 -0.3178  0.1029
   92MOL   C10623948   6.881   2.129   0.441 -0.0008  0.5868  0.7632
   92MOL   C10723949   6.926   2.266   0.470  0.1751  0.2459  0.0700
   92MOL   C10823950   6.870   2.355   0.557  0.2034 -0.2750 -0.6450
   92MOL   C10923951   6.752   2.330   0.659  0.4968  0.0877  0.5941
   92MOL   C11023952   6.913   2.500   0.553 -0.2665  0.0545 -0.1705
   92MOL   H11123953   6.815   2.098   0.521 -2.3061  1.6793 -0.6808
   92MOL   H11223954   6.809   2.133   0.359 -1.5639 -1.6567  1.9814
   92MOL   H11323955   6.986   2.306   0.389 -0.1189 -1.6174 -1.1104
   92MOL   H11423956   6.691   2.418   0.681 -0.1961 -0.1697 -0.2833
   92MOL   H11523957   6.793   2.313   0.759 -0.1953 -0.2870  0.8158
   92MOL   H11623958   6.691   2.243   0.635  0.5855  0.8248 -2.4906
   92MOL   H11723959   7.011   2.500   0.505  0.3678 -0.9137  1.0913
   92MOL   H11823960   6.946   2.550   0.644  1.2709  1.2744 -1.3782
   92MOL   C11923961   6.813   2.591   0.481  0.8598 -1.4505 -0.2133
   92MOL   C12023962   6.871   2.736   0.473  0.5643 -0.1392  0.8073
   92MOL   C12123963   6.937   2.793   0.365 -0.3428  0.3835 -0.0981
   92MOL   C12223964   6.967   2.730   0.233  0.9170  0.3431 -0.0172
   92MOL   C12323965   6.994   2.933   0.373  0.0009  0.1109  0.3809
   92MOL   H12423966   6.723   2.602   0.541  1.4596 -0.8229  0.5811
   92MOL   H12523967   6.773   2.550   0.388 -0.6232 -0.6201  0.0513
   92MOL   H12623968   6.857   2.803   0.558 -0.2702  0.8669 -0.1120
   92MOL   H12723969   7.061   2.766   0.193  0.3333  0.8486 -0.9468
   92MOL   H12823970   6.890   2.754   0.160  0.9750  0.0953 -0.1602
   92MOL   H12923971   6.968   2.621   0.246  0.7772  0.5048  1.5240
   92MOL   H13023972   6.931   3.010   0.417 -0.2054  2.2905 -3.4914
   92MOL   H13123973   7.000   2.975   0.273  0.7160  0.3236  0.5070
   92MOL   C13223974   7.132   2.950   0.432  0.2262  0.3626  0.5948
   92MOL   C13323975   7.225   2.836   0.398  0.1255 -0.6956  0.2723
   92MOL   C13423976   7.314   2.840   0.296 -0.1272 -0.4886  0.6939
   92MOL   C13523977   7.331   2.955   0.192  0.2894 -0.2704  0.0127
   92MOL   C13623978   7.410   2.726   0.276 -0.1112 -0.5401  0.1159
   92MOL   H13723979   7.135   2.957   0.541  2.1431  0.6574  0.5373
   92MOL   H13823980   7.169   3.045   0.394  0.5925  0.2523  0.6725
   92MOL   H13923981   7.208   2.765   0.478 -0.1741  0.8542  1.6140
   92MOL   H14023982   7.436   2.967   0.165  0.1993 -0.9212 -0.6217
   92MOL   H14123983   7.281   3.050   0.209 -1.5520 -0.4155 -4.0601
   92MOL   H14223984   7.287   2.916   0.101 -3.3445  1.2807  1.0178
   92MOL   H14323985   7.403   2.659   0.362  1.6078 -0.0115  0.6754
   92MOL   H14423986   7.507   2.769   0.299 -0.6253  0.8551 -0.2645
   92MOL   C14523987   7.418   2.660   0.139 -0.3431 -0.2558 -0.3314
   92MOL   C14623988   7.294   2.588   0.083 -0.2875 -0.0507 -0.7973
   92MOL   C14723989   7.272   2.457   0.067  1.1740  0.5132  0.1502
   92MOL   C14823990   7.369   2.354   0.119 -0.3924  0.2709  0.0698
   92MOL   C14923991   7.146   2.398   0.007  1.1739  0.8257 -0.3070
   92MOL   H15023992   7.496   2.584   0.153 -2.0407 -1.7272  1.4159
   92MOL   H15123993   7.465   2.731   0.071 -1.2163  0.0204 -0.6372
   92MOL   H15223994   7.223   2.665   0.058 -0.0615  0.1980 -0.6845
   92MOL   H15323995   7.327   2.289   0.196 -0.2995  0.0206 -0.0933
   92MOL   H15423996   7.444   2.408   0.177  2.5586 -1.7430 -1.7715
   92MOL   H15523997   7.420   2.289   0.049 -1.5099  0.2882 -0.7806
   92MOL   H15623998   7.185   2.317   7.827  1.9680  0.4405  0.6850
   92MOL   H15723999   7.086   2.472   7.836  2.1624  0.3920 -2.0783
   92MOL   C15824000   7.049   2.338   0.110  0.0973  0.4234  1.3107
   92MOL   C15924001   6.939   2.245   0.050  0.7209  0.2011 -0.6152
   92MOL   C16024002   6.811   2.251   0.080  0.4896  1.0880  0.5549
   92MOL   C16124003   6.745   2.359   0.162 -0.3691  0.2448 -0.2426
   92MOL   C16224004   6.719   2.136   0.040  0.4319 -0.5705  0.4101
   92MOL   H16324005   6.995   2.417   0.162 -2.2717 -0.1038 -0.2724
   92MOL   H16424006   7.101   2.278   0.184 -0.8250  0.6689  2.1643
   92MOL   H16524007   6.977   2.163   7.874 -1.4214 -0.3921 -1.2263
   92MOL   H16624008   6.776   2.457   0.124 -0.2796 -0.0216 -0.8695
   92MOL   H16724009   6.769   2.337   0.266  2.1119 -0.9048 -1.0168
   92MOL   H16824010   6.637   2.364   0.152 -0.1798  0.9613 -2.1821
   92MOL   H16924011   6.635   2.120   0.106 -1.0731  0.7771 -1.1209
   92MOL   H17024012   6.779   2.045   0.043 -1.2551 -1.6777  0.5116
   92MOL   C17124013   6.667   2.150   7.779  0.0987  0.3280  0.0825
   92MOL   C17224014   6.598   2.024   7.725 -0.3516 -0.2315  0.9524
   92MOL   C17324015   6.465   2.013   7.719  0.8467  0.5322  0.4237
   92MOL   C17424016   6.368   2.115   7.770 -0.0945  0.2676  0.2412
   92MOL   C17524017   6.406   1.891   7.652  0.4970  0.2152  0.6298
   92MOL   H17624018   6.747   2.180   7.710 -0.8643  0.5760 -0.9406
   92MOL   H17724019   6.600   2.235   7.776 -0.3842 -0.0980 -1.9211
   92MOL   H17824020   6.662   1.947   7.683 -1.6029 -0.8731  0.2053
   92MOL   H17924021   6.409   2.165   7.858  3.4247  2.0109 -2.2591
   92MOL   H18024022   6.278   2.061   7.798 -0.9160  0.5482 -1.7629
   92MOL   H18124023   6.329   2.171   7.685  0.2590 -1.1425 -0.8647
   92MOL   H18224024   6.482   1.847   7.589 -0.7919 -0.7178 -0.2916
   92MOL   H18324025   6.318   1.919   7.593  1.8005 -1.0275 -1.9782
   92MOL   C18424026   6.359   1.783   7.757 -0.4254 -0.0486 -0.4019
   92MOL   C18524027   6.258   1.685   7.705 -0.2006 -0.6848  0.7182
   92MOL   C18624028   6.137   1.672   7.754  0.2803 -0.5094 -0.0411
   92MOL   C18724029   6.069   1.753   7.867  0.2647 -0.3689 -0.1759
   92MOL   C18824030   6.046   1.555   7.711 -0.2259 -0.1818  0.6911
   92MOL   H18924031   6.321   1.833   7.846 -0.4109  0.0855 -0.4719
   92MOL   H19024032   6.452   1.733   7.787 -1.4334 -2.1154 -0.6008
   92MOL   H19124033   6.292   1.627   7.620  2.7572  0.1366  1.2794
   92MOL   H19224034   5.966   1.775   7.839 -0.7097  1.3080  4.3222
   92MOL   H19324035   6.120   1.845   0.014 -0.3491 -0.5191  1.3905
   92MOL   H19424036   6.053   1.685   0.068 -1.4721  0.2219 -0.0009
   92MOL   H19524037   6.013   1.502   7.801  0.2766 -0.1007  0.9250
   92MOL   H19624038   6.107   1.483   7.655  0.1356  0.3505  0.3930
   92MOL   C19724039   5.927   1.593   7.621  0.2379 -0.6804 -0.2598
   92MOL   C19824040   5.832   1.475   7.591  0.0742 -0.2460  0.6797
   92MOL   C19924041   5.829   1.403   7.478  0.7416  0.2280 -0.1095
   92MOL   C20024042   5.923   1.423   7.352 -0.0898 -0.0145  0.4590
   92MOL   C20124043   5.765   1.266   7.466 -0.3418  0.1896  0.2525
   92MOL   H20224044   5.967   1.629   7.526  0.7235 -0.7276 -0.0732
   92MOL   H20324045   5.876   1.679   7.665 -0.0475 -2.0155  2.1022
   92MOL   H20424046   5.767   1.448   7.672  1.1345  0.7991  1.8919
   92MOL   H20524047   5.884   1.376   7.261  0.7208 -0.2139  0.2112
   92MOL   H20624048   6.022   1.379   7.358  0.5678  1.2533 -0.7115
   92MOL   H20724049   5.938   1.528   7.328  2.8980 -0.7321 -0.9917
   92MOL   H20824050   5.702   1.263   7.377  0.8366  0.1266 -0.5928
   92MOL   H20924051   5.696   1.263   7.550  0.4421  1.9645  0.9800
   92MOL   C21024052   5.860   1.147   7.482 -0.5014 -0.0507  0.0847
   92MOL   C21124053   5.783   1.021   7.453 -0.2132 -0.2103 -0.7574
   92MOL   C21224054   5.747   0.977   7.330 -0.0528 -0.1278 -0.5060
   92MOL   C21324055   5.790   1.046   7.198 -0.1289  0.9062 -0.4586
   92MOL   C21424056   5.665   0.849   7.305  0.1870 -0.1956  0.5415
   92MOL   H21524057   5.900   1.123   7.580  1.2313 -0.1422 -0.6381
   92MOL   H21624058   5.948   1.149   7.418 -0.1841  0.0602  0.5302
   92MOL   H21724059   5.752   0.966   7.541 -0.1630  1.4704  0.3528
   92MOL   H21824060   5.884   1.099   7.212 -0.3066  1.0798  0.1037
   92MOL   H21924061   5.718   1.122   7.168 -0.9381 -1.0492 -3.7841
   92MOL   H22024062   5.800   0.980   7.112 -2.9438  0.5312 -0.5612
   92MOL   H22124063   5.650   0.786   7.392 -1.5477  1.0406  1.1649
   92MOL   H22224064   5.731   0.794   7.238 -0.0261  1.9101 -1.4850
   92MOL   C22324065   5.528   0.888   7.237 -0.6861  1.1075 -0.1458
   92MOL   C22424066   5.456   0.769   7.174 -0.2225  0.0080  0.0213
   92MOL   C22524067   5.324   0.755   7.165 -0.5706 -0.7978 -0.3021
   92MOL   C22624068   5.230   0.860   7.209 -0.0567  0.0458  0.7153
   92MOL   C22724069   5.269   0.628   7.089  0.4036 -0.0230  0.4294
   92MOL   H22824070   5.530   0.955   7.151 -0.0659  0.5786 -0.5436
   92MOL   H22924071   5.463   0.928   7.315 -0.2795 -0.3793  0.9764
   92MOL   H23024072   5.520   0.685   7.152  0.1557 -0.1346  1.5630
   92MOL   H23124073   5.230   0.946   7.141  0.1812 -2.4007 -2.5054
   92MOL   H23224074   5.247   0.890   7.312  1.3170 -0.0817  0.5346
   92MOL   H23324075   5.128   0.821   7.209 -0.0459  0.0065 -0.3646
   92MOL   H23424076   5.277   0.648   6.982  0.1768  1.0146  0.6048
   92MOL   H23524077   5.162   0.627   7.113 -0.4379  0.1955 -3.0078
   92MOL   C23624078   5.330   0.489   7.128  0.0525  0.3053 -0.0076
   92MOL   C23724079   5.269   0.376   7.047 -0.7608 -0.3544 -0.0254
   92MOL   C23824080   5.194   0.269   7.091 -0.3996  0.0026  0.8405
   92MOL   C23924081   5.165   0.239   7.232 -0.2448 -0.2996 -0.2452
   92MOL   C24024082   5.143   0.164   6.989 -0.1442 -0.1991 -0.1223
   92MOL   H24124083   5.330   0.475   7.237  0.7550  0.4998  0.0224
   92MOL   H24224084   5.433   0.488   7.092  0.4854 -0.7814  1.2192
   92MOL   H24324085   5.288   0.379   6.941 -2.7179 -1.7230 -0.4539
   92MOL   H24424086   5.067   0.196   7.255 -1.0154  2.6208  2.1965
   92MOL   H24524087   5.169   0.335   7.283  2.3603 -0.1441 -0.6888
   92MOL   H24624088   5.241   0.171   7.270 -2.4931 -2.0901  1.2393
   92MOL   H24724089   5.183   0.202   6.895 -0.2178  1.2339  0.4061
   92MOL   H24824090   5.035   0.176   6.977  0.0460  1.2919 -0.5019
   92MOL   C24924091   5.182   0.020   7.013  0.5659  0.1431 -0.6382
   92MOL   C25024092   5.089   7.811   6.928  0.1195 -1.2405  0.0813
   92MOL   C25124093   5.033   7.697   6.972 -0.0935  0.0261 -1.1713
   92MOL   C25224094   5.044   7.646   7.110  0.5138 -0.2703  0.3392
   92MOL   C25324095   4.928   7.620   6.888  0.5289 -0.0360 -0.1211
   92MOL   H25424096   5.170   7.872   7.117 -0.0114  0.7811 -0.5140
   92MOL   H25524097   5.289   0.013   6.993  0.6021  0.7042 -0.6340
   92MOL   H25624098   5.071   7.841   6.826  0.7323 -2.2450 -0.3212
   92MOL   H25724099   5.024   7.539   7.109 -1.6406  0.0976  1.4234
   92MOL   H25824100   4.981   7.696   7.184  1.7637  2.2963 -0.2616
   92MOL   H25924101   5.147   7.659   7.145  0.4865  1.4792 -0.1582
   92MOL   H26024102   4.933   7.514   6.913  1.4401  0.4716  1.9619
   92MOL   H26124103   4.947   7.627   6.781 -2.0947  0.7024 -0.5747
   92MOL   H26224104   4.824   7.638   6.916  0.3672 -0.5472 -0.3852
   93MOL     C124105   1.903   4.587   3.961  0.8475 -0.6513  0.0512
   93MOL     C224106   1.787   4.628   3.875 -0.5330  0.3996 -0.1002
   93MOL     C324107   1.776   4.601   3.746  0.4325  0.0356  0.0893
   93MOL     C424108   1.875   4.527   3.652 -0.4736 -0.1130  0.3677
   93MOL     C524109   1.661   4.667   3.675 -0.1748 -0.6403  0.0747
   93MOL     H624110   1.993   4.573   3.901  0.0714 -1.3570 -0.9334
   93MOL     H724111   1.940   4.678   4.009 -1.6832  0.8108 -0.7211
   93MOL     H824112   1.709   4.680   3.928 -0.1301  0.3246  0.5761
   93MOL     H924113   1.907   4.593   3.571  1.2288  0.4084  1.4270
   93MOL    H1024114   1.818   4.450   3.600  0.1774 -1.4180  1.5501
   93MOL    H1124115   1.952   4.475   3.710  1.5537  0.2102 -1.9358
   93MOL    H1224116   1.572   4.675   3.738  0.1596  1.2685  0.3638
   93MOL    H1324117   1.649   4.590   3.599 -1.9263  0.1903 -0.5140
   93MOL    H1424118   1.884   4.506   4.031 -0.3067  1.1081  1.8460
   93MOL    C1524119   1.695   4.808   3.602 -0.7959 -0.1612  0.2379
   93MOL    C1624120   1.594   4.860   3.508 -0.2097 -0.4439  0.1137
   93MOL    C1724121   1.612   4.925   3.390 -0.1692 -0.3296 -0.3728
   93MOL    C1824122   1.744   4.969   3.333 -0.0705  0.7567 -0.3291
   93MOL    C1924123   1.494   4.957   3.301  0.1275  0.3620 -0.6369
   93MOL    H2024124   1.788   4.787   3.549 -0.1672 -0.7538  1.5556
   93MOL    H2124125   1.712   4.884   3.678 -0.9362 -1.3929  1.5347
   93MOL    H2224126   1.493   4.843   3.543 -1.3037 -1.1895 -3.2146
   93MOL    H2324127   1.737   4.964   3.225 -0.0927  1.6627 -0.3779
   93MOL    H2424128   1.830   4.912   3.367  0.1794  1.2214 -0.1825
   93MOL    H2524129   1.760   5.076   3.345  2.1766  0.2710  1.3734
   93MOL    H2624130   1.408   4.899   3.335  3.2544 -2.7432  2.3462
   93MOL    H2724131   1.507   4.909   3.203 -1.6096 -1.2061 -0.1410
   93MOL    C2824132   1.473   5.107   3.304 -0.4782 -0.0513  1.1710
   93MOL    C2924133   1.351   5.146   3.228 -0.4628  0.1302 -0.0920
   93MOL    C3024134   1.229   5.170   3.271 -0.0433  0.1814  0.5991
   93MOL    C3124135   1.204   5.169   3.419 -0.1979  0.6524  0.0247
   93MOL    C3224136   1.117   5.206   3.174  0.6513  0.1137  0.5603
   93MOL    H3324137   1.557   5.159   3.259  0.0273 -1.0960  0.8911
   93MOL    H3424138   1.464   5.144   3.407 -2.6814  1.3672  0.5115
   93MOL    H3524139   1.370   5.148   3.122 -1.3697 -0.7830 -0.2770
   93MOL    H3624140   1.185   5.068   3.455  0.2661 -0.3246 -2.4020
   93MOL    H3724141   1.112   5.224   3.438  0.9474  2.6108  0.0112
   93MOL    H3824142   1.287   5.221   3.466  0.2165  1.2041 -1.2835
   93MOL    H3924143   1.034   5.146   3.212 -1.3292  2.7290  0.5379
   93MOL    H4024144   1.131   5.168   3.073  2.5855  1.3223  0.3429
   93MOL    C4124145   1.098   5.358   3.163 -0.0329 -0.2670  0.7348
   93MOL    C4224146   1.223   5.442   3.129  0.2043 -0.6216 -0.2510
   93MOL    C4324147   1.257   5.505   3.013  0.3561 -1.0154  0.2119
   93MOL    C4424148   1.171   5.512   2.886  0.0877 -0.0395  0.1236
   93MOL    C4524149   1.387   5.579   2.996  0.0832  0.1316  0.0053
   93MOL    H4624150   1.054   5.397   3.255  0.4815  2.5255 -0.1408
   93MOL    H4724151   1.015   5.368   3.093  0.1119 -4.2226 -0.1339
   93MOL    H4824152   1.303   5.447   3.200  0.5502  2.5232 -0.8113
   93MOL    H4924153   1.239   5.538   2.805  0.6685  0.4887  0.7662
   93MOL    H5024154   1.095   5.590   2.881  1.2345  0.9149 -4.5698
   93MOL    H5124155   1.129   5.412   2.879  2.3155 -0.9399 -1.0641
   93MOL    H5224156   1.427   5.617   3.091  1.3951  4.2739 -2.0716
   93MOL    H5324157   1.379   5.675   2.944 -1.6030 -0.0137 -0.0274
   93MOL    C5424158   1.491   5.482   2.932 -0.6908  0.7197 -0.5409
   93MOL    C5524159   1.509   5.502   2.783 -0.1200 -0.2071 -0.1301
   93MOL    C5624160   1.506   5.406   2.687  0.6118 -0.2336  0.1055
   93MOL    C5724161   1.486   5.262   2.711  0.3455  0.6709 -0.0521
   93MOL    C5824162   1.521   5.447   2.542  0.8641 -0.7618 -0.9681
   93MOL    H5924163   1.463   5.380   2.961 -2.1333  1.2030 -0.1806
   93MOL    H6024164   1.590   5.500   2.973 -0.9010 -1.6178  1.0997
   93MOL    H6124165   1.534   5.603   2.752  0.2312  0.2301  1.5573
   93MOL    H6224166   1.378   5.246   2.721  0.6491 -1.2394  0.2662
   93MOL    H6324167   1.517   5.236   2.812 -1.0179  1.1465  0.4990
   93MOL    H6424168   1.545   5.199   2.645 -1.4896 -1.9049  0.7256
   93MOL    H6524169   1.578   5.373   2.486  0.7219 -0.2449 -1.8065
   93MOL    H6624170   1.570   5.542   2.521  1.7839 -0.5532  1.8519
   93MOL    C6724171   1.381   5.445   2.480  0.0993 -0.7284  0.0074
   93MOL    C6824172   1.386   5.459   2.328 -0.0953  0.2816 -0.1788
   93MOL    C6924173   1.316   5.540   2.249  0.1822 -0.4671 -0.4875
   93MOL    C7024174   1.208   5.640   2.296 -0.5240  0.0089  0.0254
   93MOL    C7124175   1.336   5.535   2.105 -0.1235 -0.0930  0.3449
   93MOL    H7224176   1.332   5.532   2.525  1.0443  0.0399 -0.4205
   93MOL    H7324177   1.322   5.356   2.500 -1.2674  0.3739  1.0209
   93MOL    H7424178   1.452   5.391   2.277  0.3062 -0.8316  1.7639
   93MOL    H7524179   1.244   5.741   2.315  0.8552 -0.5975  0.6329
   93MOL    H7624180   1.163   5.613   2.391  1.4198 -0.6531  0.7833
   93MOL    H7724181   1.120   5.653   2.232  0.1078 -0.7478 -1.0230
   93MOL    H7824182   1.431   5.485   2.088  0.2288  0.1996  1.4194
   93MOL    H7924183   1.348   5.634   2.062  1.9559 -1.0711 -1.4272
   93MOL    C8024184   1.235   5.447   2.031 -0.1895 -0.0197 -0.7342
   93MOL    C8124185   1.285   5.408   1.895 -0.1973 -0.1478 -0.5836
   93MOL    C8224186   1.250   5.451   1.772  0.2820  0.4003  0.3679
   93MOL    C8324187   1.142   5.551   1.736 -0.1557  0.0433  0.5231
   93MOL    C8424188   1.312   5.379   1.656 -0.2161 -0.0436 -0.3438
   93MOL    H8524189   1.139   5.497   2.018 -0.4151 -0.4331 -0.6712
   93MOL    H8624190   1.230   5.353   2.085  1.8732 -0.0405 -0.5540
   93MOL    H8724191   1.364   5.335   1.897  0.0778  0.1752  2.1339
   93MOL    H8824192   1.067   5.503   1.674  0.8003 -0.5828 -0.1656
   93MOL    H8924193   1.170   5.631   1.667 -2.3220 -1.1516 -1.8261
   93MOL    H9024194   1.086   5.590   1.821 -0.9130 -0.5643  0.3092
   93MOL    H9124195   1.236   5.343   1.587 -0.7508 -0.0779  0.2619
   93MOL    H9224196   1.371   5.293   1.687 -1.1860 -0.3342  0.6829
   93MOL    C9324197   1.392   5.476   1.573 -0.2064  0.7109 -0.2356
   93MOL    C9424198   1.510   5.541   1.642 -0.7337  0.5727  0.0073
   93MOL    C9524199   1.523   5.666   1.694 -0.1769  0.2405 -0.3031
   93MOL    C9624200   1.417   5.770   1.697  0.2948  0.2516  0.5962
   93MOL    C9724201   1.646   5.698   1.777  0.9155  0.4374  0.1771
   93MOL    H9824202   1.332   5.546   1.515 -0.3553  0.7951  0.0162
   93MOL    H9924203   1.428   5.400   1.503  2.7662  0.7338  1.1949
   93MOL   H10024204   1.597   5.478   1.651  0.1522  1.8089  0.2784
   93MOL   H10124205   1.336   5.752   1.626  1.4301 -1.9765 -0.1668
   93MOL   H10224206   1.454   5.871   1.678  0.1497 -0.0224 -1.2110
   93MOL   H10324207   1.374   5.750   1.795 -0.6234 -0.6065  0.0281
   93MOL   H10424208   1.669   5.804   1.788  0.8435  0.3411  1.3216
   93MOL   H10524209   1.730   5.649   1.728  0.5445 -0.9263  0.8868
   93MOL   C10624210   1.629   5.643   1.920 -0.1613 -0.3888 -0.3898
   93MOL   C10724211   1.749   5.670   2.011 -0.6947  0.1060  0.2007
   93MOL   C10824212   1.751   5.705   2.143  0.3586 -0.0631  0.3270
   93MOL   C10924213   1.622   5.719   2.230 -0.0000  0.5678  0.0131
   93MOL   C11024214   1.878   5.723   2.216 -0.1512  0.0039  0.0390
   93MOL   H11124215   1.600   5.538   1.921 -0.0631 -0.4202  2.0347
   93MOL   H11224216   1.536   5.682   1.963 -0.6419 -1.6700 -0.2588
   93MOL   H11324217   1.838   5.665   1.950 -1.8649  0.4235 -1.5764
   93MOL   H11424218   1.531   5.701   2.172  0.5017  0.3803 -0.7268
   93MOL   H11524219   1.618   5.814   2.282  3.0843  1.0649 -0.5445
   93MOL   H11624220   1.619   5.649   2.313  1.4611 -1.4681 -1.6013
   93MOL   H11724221   1.960   5.688   2.154 -0.7750  0.2888 -0.9429
   93MOL   H11824222   1.877   5.665   2.309  2.0190  1.0045  0.7118
   93MOL   C11924223   1.904   5.870   2.265 -0.4708  0.4833 -0.3324
   93MOL   C12024224   2.046   5.897   2.322 -0.2276 -0.2763 -0.1410
   93MOL   C12124225   2.077   5.955   2.440 -0.5413 -0.4344 -0.1682
   93MOL   C12224226   1.977   5.980   2.558 -0.4872 -0.4625  0.1235
   93MOL   C12324227   2.225   5.970   2.474  0.3358  0.3825  0.5780
   93MOL   H12424228   1.839   5.870   2.353 -0.4867 -1.0360 -0.3335
   93MOL   H12524229   1.870   5.944   2.193 -1.0741  2.8665  2.3166
   93MOL   H12624230   2.119   5.874   2.246  0.2960  2.8653 -0.6498
   93MOL   H12724231   1.995   6.072   2.613  1.1484  0.4608 -1.8909
   93MOL   H12824232   1.963   5.899   2.629 -1.9788 -1.2756 -1.0559
   93MOL   H12924233   1.876   5.988   2.517 -0.0798 -2.1807 -1.2791
   93MOL   H13024234   2.292   5.931   2.398 -0.9404  0.9896 -0.8952
   93MOL   H13124235   2.247   5.913   2.564 -0.0522 -1.2230 -0.3183
   93MOL   C13224236   2.249   6.120   2.493  0.1131 -0.3231 -0.1105
   93MOL   C13324237   2.388   6.156   2.549  0.0820 -1.1854  0.2658
   93MOL   C13424238   2.480   6.231   2.484 -0.0771  0.2767 -0.6680
   93MOL   C13524239   2.462   6.292   2.345  0.1736 -0.3532  0.3327
   93MOL   C13624240   2.614   6.263   2.544  0.5036 -0.4339  0.2164
   93MOL   H13724241   2.185   6.155   2.574  0.7394  0.9470 -0.1543
   93MOL   H13824242   2.214   6.180   2.409 -0.0168  0.5696  0.5811
   93MOL   H13924243   2.418   6.120   2.646 -0.7475 -2.4183  0.0920
   93MOL   H14024244   2.369   6.250   2.307 -1.6894  3.1726  0.8368
   93MOL   H14124245   2.546   6.257   2.284  0.1174 -1.4495  0.8648
   93MOL   H14224246   2.458   6.401   2.347  3.6284 -0.1827  0.2516
   93MOL   H14324247   2.690   6.255   2.466 -1.3603 -2.7533 -1.4172
   93MOL   H14424248   2.643   6.191   2.621  0.4861 -0.5160  0.1451
   93MOL   C14524249   2.620   6.407   2.600 -0.4953  0.0330 -0.4988
   93MOL   C14624250   2.750   6.421   2.682  0.2375 -0.1949  0.1709
   93MOL   C14724251   2.761   6.450   2.811  0.4944 -0.2886  0.0716
   93MOL   C14824252   2.654   6.487   2.909 -0.6530  0.9518 -0.3647
   93MOL   C14924253   2.900   6.443   2.876 -0.3049  0.0028 -0.1617
   93MOL   H15024254   2.532   6.426   2.660 -0.8742 -1.1130 -0.6850
   93MOL   H15124255   2.617   6.472   2.513 -0.4631  1.6350  0.6868
   93MOL   H15224256   2.839   6.409   2.621 -0.2426 -0.2432 -0.5360
   93MOL   H15324257   2.557   6.490   2.859  0.1944  1.0413 -2.0614
   93MOL   H15424258   2.671   6.590   2.942  0.1112  1.4208 -2.1477
   93MOL   H15524259   2.640   6.414   2.988 -0.2507  1.5320  0.2433
   93MOL   H15624260   2.914   6.539   2.926 -0.3303 -0.5043  0.8460
   93MOL   H15724261   2.985   6.437   2.809 -1.5613 -1.2668 -1.6689
   93MOL   C15824262   2.908   6.334   2.991 -0.0463  0.0441  0.3980
   93MOL   C15924263   3.052   6.333   3.043  0.4307 -0.0195  0.6518
   93MOL   C16024264   3.113   6.219   3.091 -0.3604 -0.1770 -0.4262
   93MOL   C16124265   3.034   6.095   3.114 -0.5016 -0.8185  0.2056
   93MOL   C16224266   3.264   6.213   3.119  0.0044 -0.5184 -0.4411
   93MOL   H16324267   2.878   6.232   2.965 -0.0119  0.0743  0.2338
   93MOL   H16424268   2.845   6.369   3.072 -0.4830 -0.9670  0.5067
   93MOL   H16524269   3.111   6.422   3.030 -0.9934  0.7927 -0.3759
   93MOL   H16624270   2.936   6.118   3.156  0.2761  1.4966  0.8230
   93MOL   H16724271   3.089   6.042   3.192 -1.0149 -0.6208  0.7033
   93MOL   H16824272   3.015   6.028   3.030 -0.3358  2.3186 -2.4313
   93MOL   H16924273   3.307   6.122   3.077  0.3169 -0.6321  0.1169
   93MOL   H17024274   3.281   6.218   3.227  0.3633  2.0390 -0.6024
   93MOL   C17124275   3.343   6.320   3.045 -0.1617 -0.0651 -0.3888
   93MOL   C17224276   3.491   6.286   3.036  0.3189 -0.1110 -0.3485
   93MOL   C17324277   3.594   6.364   3.071  0.7604 -0.3309  0.6478
   93MOL   C17424278   3.582   6.507   3.118  0.3386 -0.2322 -0.2186
   93MOL   C17524279   3.743   6.319   3.050 -0.0433 -0.4260 -0.4546
   93MOL   H17624280   3.314   6.420   3.078  0.4622 -0.3078  0.9109
   93MOL   H17724281   3.324   6.314   2.937 -2.4084 -3.7136  0.1068
   93MOL   H17824282   3.516   6.185   3.006 -1.0327 -0.4731 -0.2844
   93MOL   H17924283   3.587   6.560   3.023 -1.4925  1.4839  0.6001
   93MOL   H18024284   3.678   6.534   3.162 -0.5285  1.3300  0.7681
   93MOL   H18124285   3.496   6.534   3.180 -0.4893 -0.9789 -1.0256
   93MOL   H18224286   3.778   6.277   3.144  0.8507  1.5897  0.1323
   93MOL   H18324287   3.809   6.406   3.047  1.8657 -1.8239 -0.4849
   93MOL   C18424288   3.768   6.216   2.941  0.0480  0.1565 -0.4318
   93MOL   C18524289   3.920   6.190   2.930  0.8766 -0.3823  0.4404
   93MOL   C18624290   3.991   6.185   2.820 -0.7832  0.2296  0.3528
   93MOL   C18724291   3.935   6.185   2.681 -0.3994 -0.0877 -0.1926
   93MOL   C18824292   4.148   6.175   2.818  0.3928  0.6387 -0.1590
   93MOL   H18924293   3.733   6.251   2.844  2.4600 -0.2054 -1.4607
   93MOL   H19024294   3.713   6.126   2.967 -0.2995  0.9432  1.6421
   93MOL   H19124295   3.972   6.175   3.024  0.8803  0.9497  0.6549
   93MOL   H19224296   3.999   6.132   2.611  0.3655 -0.2571  0.6347
   93MOL   H19324297   3.932   6.285   2.637  0.1132 -0.6032 -1.4060
   93MOL   H19424298   3.830   6.157   2.673 -0.2841 -0.2810 -1.0940
   93MOL   H19524299   4.187   6.218   2.726 -0.2246  0.0193 -0.7167
   93MOL   H19624300   4.151   6.066   2.814  1.1324  0.6667 -0.4447
   93MOL   C19724301   4.224   6.228   2.944 -0.5516  0.7701 -0.5684
   93MOL   C19824302   4.376   6.216   2.939  0.3656  0.6209  0.4287
   93MOL   C19924303   4.465   6.309   2.980 -0.1478 -0.2377 -0.1174
   93MOL   C20024304   4.437   6.445   3.036 -0.0959  0.6754  0.4145
   93MOL   C20124305   4.610   6.286   2.955  0.2037  0.2446 -0.1056
   93MOL   H20224306   4.185   6.177   3.032  2.3010 -0.8900 -0.2085
   93MOL   H20324307   4.194   6.332   2.955 -0.6468  0.7233 -0.3845
   93MOL   H20424308   4.405   6.120   2.900 -0.8048  0.8426 -1.0256
   93MOL   H20524309   4.474   6.521   2.966  0.3422 -0.2389 -0.3611
   93MOL   H20624310   4.472   6.464   3.137 -0.9615  1.0049  0.6591
   93MOL   H20724311   4.330   6.454   3.054 -0.6926  1.6309 -3.1695
   93MOL   H20824312   4.655   6.371   2.905  3.7136 -2.9354 -2.6685
   93MOL   H20924313   4.617   6.212   2.875 -0.5448  1.7046 -1.5470
   93MOL   C21024314   4.694   6.254   3.082  0.2047  0.2240  0.1194
   93MOL   C21124315   4.842   6.272   3.052 -0.4064 -0.3245  0.5667
   93MOL   C21224316   4.935   6.179   3.063  0.6789 -0.7561  0.4644
   93MOL   C21324317   4.915   6.052   3.139 -0.0619 -0.2242 -0.1106
   93MOL   C21424318   5.082   6.210   3.021 -0.5713 -0.7274  0.3576
   93MOL   H21524319   4.673   6.157   3.127 -0.5875  1.1318  1.7671
   93MOL   H21624320   4.655   6.314   3.164 -0.2618 -0.9683  0.7767
   93MOL   H21724321   4.861   6.364   2.998  1.8038 -0.5364  0.9117
   93MOL   H21824322   5.010   6.023   3.183 -0.4396  0.5246  1.2313
   93MOL   H21924323   4.883   5.974   3.070  0.5410 -1.2939  0.8215
   93MOL   H22024324   4.846   6.068   3.221  1.5163  3.8183  0.5513
   93MOL   H22124325   5.156   6.163   3.086  0.1356 -1.7014 -1.1039
   93MOL   H22224326   5.108   6.315   3.031 -1.8390 -0.1974 -1.6658
   93MOL   C22324327   5.109   6.171   2.880  0.0389  0.3829  0.4262
   93MOL   C22424328   5.244   6.228   2.824  0.5625 -0.5299 -0.1842
   93MOL   C22524329   5.360   6.163   2.806 -0.3817 -1.1304  0.3643
   93MOL   C22624330   5.377   6.012   2.820  0.0943 -0.1030 -0.0494
   93MOL   C22724331   5.480   6.244   2.758 -0.1613  0.4685 -0.3797
   93MOL   H22824332   5.028   6.203   2.815 -0.9216  2.0102  2.3695
   93MOL   H22924333   5.098   6.063   2.879 -1.8421  0.5760 -0.1906
   93MOL   H23024334   5.248   6.334   2.806 -1.3678  0.0875  2.6099
   93MOL   H23124335   5.297   5.960   2.872 -0.0547  0.0381 -0.1356
   93MOL   H23224336   5.462   5.988   2.883 -2.7216 -3.2310  2.7098
   93MOL   H23324337   5.393   5.952   2.730  1.8929  0.5303 -0.1908
   93MOL   H23424338   5.562   6.202   2.817 -1.6598 -1.6876  0.2520
   93MOL   H23524339   5.470   6.349   2.784 -2.5000  0.4189 -0.9758
   93MOL   C23624340   5.505   6.226   2.608 -0.4224 -0.4516 -0.4670
   93MOL   C23724341   5.603   6.321   2.553  0.3603 -0.2609 -0.4497
   93MOL   C23824342   5.684   6.308   2.443  0.0262 -0.6371 -0.2058
   93MOL   C23924343   5.660   6.195   2.338 -0.4353 -0.0255  0.4473
   93MOL   C24024344   5.791   6.412   2.409 -0.2126  0.1502  0.5341
   93MOL   H24124345   5.408   6.235   2.558 -0.3256  0.8240 -0.4454
   93MOL   H24224346   5.535   6.126   2.575 -0.2729  0.3085 -2.7337
   93MOL   H24324347   5.600   6.419   2.598 -0.9455 -1.1562  1.4965
   93MOL   H24424348   5.637   6.228   2.237  1.4185  1.1355  0.3683
   93MOL   H24524349   5.580   6.127   2.365 -0.4062  0.9106  3.0682
   93MOL   H24624350   5.749   6.134   2.323  0.1539  0.7873  0.5828
   93MOL   H24724351   5.887   6.361   2.409 -0.4776 -0.3579  0.4927
   93MOL   H24824352   5.793   6.483   2.492 -0.6029 -1.5923  2.0689
   93MOL   C24924353   5.771   6.476   2.266 -0.8391 -0.5266 -0.2263
   93MOL   C25024354   5.851   6.595   2.244  0.1607 -0.0391  0.1210
   93MOL   C25124355   5.843   6.692   2.150  1.1172  0.6023 -0.3297
   93MOL   C25224356   5.734   6.710   2.044  0.1921 -0.6943  0.1689
   93MOL   C25324357   5.950   6.792   2.134  0.3117  0.3205  0.4137
   93MOL   H25424358   5.666   6.505   2.256 -0.7757 -0.5994 -1.1088
   93MOL   H25524359   5.801   6.410   2.185 -0.7510 -1.7649  0.7915
   93MOL   H25624360   5.935   6.601   2.311  0.1387  2.8850 -0.0606
   93MOL   H25724361   5.764   6.679   1.944 -1.4550  0.0878 -0.5956
   93MOL   H25824362   5.699   6.813   2.039  0.3956 -0.5214  2.1313
   93MOL   H25924363   5.648   6.647   2.068 -0.6636  0.4620  0.1994
   93MOL   H26024364   6.006   6.811   2.226  3.4508  0.6167 -1.4997
   93MOL   H26124365   5.908   6.890   2.114 -0.4733 -0.0546  0.1848
   93MOL   H26224366   6.023   6.769   2.057  0.3544 -0.3170  0.6390
   94MOL     C124367   7.443   6.656   7.485 -0.9635  0.1874 -0.2195
   94MOL     C224368   7.473   6.650   7.635  0.1226  0.6756 -0.7750
   94MOL     C324369   7.446   6.558   7.730  0.0861 -0.1797 -0.5871
   94MOL     C424370   7.396   6.416   7.696 -0.8068 -0.3866 -0.2867
   94MOL     C524371   7.460   6.597   7.877 -0.0720 -0.3113  0.3072
   94MOL     H624372   7.356   6.710   7.446 -0.6433  0.7737 -0.1292
   94MOL     H724373   7.517   6.724   7.445  0.3892  0.1310  2.0999
   94MOL     H824374   7.493   6.749   7.672  0.8841 -0.3292  1.5765
   94MOL     H924375   7.376   6.407   7.589 -0.6139 -3.0633 -0.1469
   94MOL    H1024376   7.295   6.406   7.736 -1.6392 -1.6755 -2.5517
   94MOL    H1124377   7.457   6.335   7.735 -1.0519  0.2010  1.3203
   94MOL    H1224378   7.531   6.680   0.005  0.3368 -0.4091 -1.5109
   94MOL    H1324379   7.503   6.510   0.044 -1.2454 -0.4278  1.1386
   94MOL    H1424380   7.466   6.569   7.425  0.7272 -0.8156  1.8446
   94MOL    C1524381   7.323   6.628   0.063  0.1432  0.1489 -0.4135
   94MOL    C1624382   7.337   6.670   0.200  0.0776 -0.4174 -0.4993
   94MOL    C1724383   7.335   6.795   0.246 -1.1122 -0.6355  0.1873
   94MOL    C1824384   7.338   6.921   0.153 -0.6703 -0.1344 -0.6302
   94MOL    C1924385   7.334   6.805   0.399 -0.5365 -0.0857  0.0677
   94MOL    H2024386   7.254   6.546   0.044 -0.8209  0.5289  1.3888
   94MOL    H2124387   7.275   6.713   0.015  0.4036 -0.8725 -2.5652
   94MOL    H2224388   7.336   6.591   0.274 -3.6166 -1.1780 -1.2681
   94MOL    H2324389   7.387   6.999   0.212 -2.7477  1.1895 -0.6227
   94MOL    H2424390   7.239   6.938   0.112 -0.5353 -0.3739 -1.0593
   94MOL    H2524391   7.402   6.888   0.072  0.2737 -0.6444  0.3015
   94MOL    H2624392   7.251   6.755   0.449  0.2030  0.2613  1.6774
   94MOL    H2724393   7.311   6.910   0.422  0.2266  0.1348 -0.1663
   94MOL    C2824394   7.469   6.749   0.467  0.4761  0.5227  0.4656
   94MOL    C2924395   7.456   6.610   0.518 -0.6640  0.4794  0.0041
   94MOL    C3024396   7.558   6.541   0.575 -0.5194  0.6421  0.4894
   94MOL    C3124397   7.703   6.594   0.592  0.1609 -0.5229  0.1873
   94MOL    C3224398   7.548   6.394   0.625 -0.5397 -0.4077 -0.1282
   94MOL    H3324399   7.495   6.811   0.553  0.4985 -0.9451  1.5229
   94MOL    H3424400   7.554   6.762   0.401  0.3266  0.8631  0.3345
   94MOL    H3524401   7.357   6.567   0.512 -0.0244 -0.9784 -0.3769
   94MOL    H3624402   7.729   6.632   0.493  0.5725 -1.1938  0.0317
   94MOL    H3724403   7.777   6.515   0.606  0.4774 -0.5003 -1.2933
   94MOL    H3824404   7.704   6.668   0.673  0.4164  0.0325 -0.3211
   94MOL    H3924405   7.605   6.326   0.561 -0.4682  1.7735 -2.4413
   94MOL    H4024406   7.444   6.368   0.602 -1.1360 -0.3978  2.3791
   94MOL    C4124407   7.565   6.380   0.772  0.1587 -0.8936 -0.2487
   94MOL    C4224408   7.549   6.231   0.810 -0.0865  0.0552 -0.1765
   94MOL    C4324409   7.453   6.173   0.884 -0.5390 -0.4399  0.3993
   94MOL    C4424410   7.332   6.246   0.935  0.1640 -0.0104 -0.1058
   94MOL    C4524411   7.471   6.028   0.924  0.4097 -0.4084  0.2654
   94MOL    H4624412   7.491   6.447   0.817  0.1778 -2.8892  2.9093
   94MOL    H4724413   7.660   6.420   0.805 -0.0876 -0.0695 -0.5194
   94MOL    H4824414   7.626   6.169   0.767 -1.3109 -2.1277  0.6939
   94MOL    H4924415   7.352   6.348   0.968 -1.8335  0.4490 -0.2688
   94MOL    H5024416   7.291   6.201   1.026  1.4153 -0.7738  0.0934
   94MOL    H5124417   7.255   6.235   0.859 -0.7341 -0.3332  0.8329
   94MOL    H5224418   7.498   6.033   1.030 -2.7357  0.3275  1.0794
   94MOL    H5324419   7.560   5.993   0.870  0.6532  2.5525 -1.3812
   94MOL    C5424420   7.364   5.936   0.882  0.2889 -0.2908  0.3899
   94MOL    C5524421   7.343   5.940   0.727 -0.2614  0.7759 -0.2009
   94MOL    C5624422   7.236   5.947   0.649  0.4704 -0.7792 -0.1369
   94MOL    C5724423   7.097   5.977   0.708  0.4772 -0.2681 -0.0393
   94MOL    C5824424   7.243   5.940   0.498 -0.5443 -0.3185  1.1076
   94MOL    H5924425   7.280   5.953   0.950 -0.1550  1.3092 -0.5400
   94MOL    H6024426   7.394   5.836   0.914  0.4040 -1.0965 -2.1651
   94MOL    H6124427   7.437   5.921   0.677  0.8096  1.0730  1.6635
   94MOL    H6224428   7.050   6.070   0.674 -1.5734 -1.6587 -1.1431
   94MOL    H6324429   7.097   5.975   0.817 -1.4993 -0.4623 -0.0261
   94MOL    H6424430   7.037   5.888   0.689  0.5195 -0.3261  0.0971
   94MOL    H6524431   7.217   5.839   0.463 -0.9850  0.7101 -1.6890
   94MOL    H6624432   7.348   5.942   0.471 -0.8773 -0.1265 -0.2487
   94MOL    C6724433   7.185   6.063   0.420  0.0412 -0.4873  0.9944
   94MOL    C6824434   7.197   6.047   0.263 -0.4353 -0.7410 -0.2075
   94MOL    C6924435   7.273   6.120   0.182 -0.3087  0.3569 -0.9289
   94MOL    C7024436   7.363   6.228   0.238 -0.2089 -0.1278 -0.3455
   94MOL    C7124437   7.266   6.104   0.032  0.2747  0.1797 -0.4209
   94MOL    H7224438   7.234   6.154   0.456 -0.7666  0.7502 -0.9358
   94MOL    H7324439   7.078   6.065   0.439 -0.1513 -1.4893  0.0743
   94MOL    H7424440   7.126   5.980   0.218  0.6102 -1.1442 -1.2664
   94MOL    H7524441   7.412   6.211   0.334 -0.5275  0.8834  0.0044
   94MOL    H7624442   7.308   6.322   0.239  0.3596  0.2202 -1.4835
   94MOL    H7724443   7.452   6.231   0.176  1.8125  0.9710  2.5112
   94MOL    H7824444   7.247   6.204   7.876  0.2404  0.4890  0.3898
   94MOL    H7924445   7.176   6.049   0.004 -0.3409  2.4888 -3.1611
   94MOL    C8024446   7.388   6.042   7.851 -0.0199  0.5443 -0.4859
   94MOL    C8124447   7.354   5.997   7.711 -0.4555 -0.2434  0.1268
   94MOL    C8224448   7.287   5.888   7.679 -0.5586  0.0016 -0.1798
   94MOL    C8324449   7.242   5.789   7.780 -0.0058  0.0642 -0.2734
   94MOL    C8424450   7.234   5.855   7.544  0.8401  0.4611  0.0535
   94MOL    H8524451   7.432   5.956   0.020  0.2047  1.0247  0.1330
   94MOL    H8624452   7.473   6.110   7.849  0.5138 -0.0430  1.0917
   94MOL    H8724453   7.369   6.064   7.627  1.1446 -0.3667  0.2911
   94MOL    H8824454   7.133   5.788   7.783 -0.0252 -2.0224 -0.9814
   94MOL    H8924455   7.282   5.806   7.879  0.7673  0.7534 -0.6983
   94MOL    H9024456   7.285   5.695   7.746 -0.0825  0.6168 -1.9860
   94MOL    H9124457   7.192   5.945   7.499  0.4326  0.2518  0.0175
   94MOL    H9224458   7.150   5.786   7.553  0.7330  0.5922  0.0570
   94MOL    C9324459   7.342   5.800   7.455 -0.3769 -0.2283 -0.7876
   94MOL    C9424460   7.290   5.754   7.319  0.4466 -0.4809  0.4093
   94MOL    C9524461   7.346   5.665   7.239  0.2083 -0.7286  0.3307
   94MOL    C9624462   7.471   5.586   7.266  0.0386 -0.1989 -0.5128
   94MOL    C9724463   7.279   5.629   7.105  0.1624  0.1806  0.1411
   94MOL    H9824464   7.391   5.711   7.495  1.8342  0.5558 -1.6265
   94MOL    H9924465   7.423   5.872   7.442  2.8258 -3.2152  1.3938
   94MOL   H10024466   7.206   5.803   7.270  0.4208  0.1212  1.0381
   94MOL   H10124467   7.449   5.480   7.282  1.6388 -0.4016  0.3695
   94MOL   H10224468   7.526   5.623   7.352 -1.5145 -0.3305  0.5692
   94MOL   H10324469   7.535   5.580   7.178  1.0784  2.1710  0.0609
   94MOL   H10424470   7.342   5.656   7.021 -1.9800 -0.9893 -1.9150
   94MOL   H10524471   7.191   5.691   7.088  0.3040  0.3430  0.0130
   94MOL   C10624472   7.236   5.480   7.092  0.0187 -0.0524  0.0616
   94MOL   C10724473   7.175   5.434   6.962  0.2466  0.2410 -0.4407
   94MOL   C10824474   7.237   5.373   6.857 -0.2800 -1.2078  0.1285
   94MOL   C10924475   7.382   5.329   6.845  0.0769 -0.4451  0.5404
   94MOL   C11024476   7.153   5.343   6.730 -0.1149 -0.3657 -0.4283
   94MOL   H11124477   7.170   5.441   7.170 -0.4506 -2.8482 -1.6716
   94MOL   H11224478   7.324   5.416   7.104  1.0166  1.5363  1.3270
   94MOL   H11324479   7.070   5.455   6.951  0.5693  3.0440  1.4476
   94MOL   H11424480   7.388   5.220   6.837  1.6975 -0.4534  1.6757
   94MOL   H11524481   7.448   5.357   6.927  0.7174 -1.4403  0.3713
   94MOL   H11624482   7.425   5.372   6.754 -0.1146 -1.1082  0.1317
   94MOL   H11724483   7.193   5.415   6.659  0.3642 -1.7737 -1.6087
   94MOL   H11824484   7.048   5.371   6.741  0.2319  0.9646 -0.3750
   94MOL   C11924485   7.146   5.201   6.678 -0.0623  0.9291  0.6961
   94MOL   C12024486   7.069   5.209   6.549 -0.3804  0.4207  0.3869
   94MOL   C12124487   6.991   5.113   6.497  0.2827  0.6086  0.1882
   94MOL   C12224488   6.965   4.981   6.560 -0.0092  0.4961 -0.7033
   94MOL   C12324489   6.934   5.134   6.363  0.0728 -1.0503  0.4179
   94MOL   H12424490   7.102   5.132   6.750  0.5563 -0.6738 -0.4416
   94MOL   H12524491   7.242   5.154   6.661 -0.8720  0.4345 -3.0735
   94MOL   H12624492   7.093   5.281   6.471  0.2232 -0.5780 -0.3541
   94MOL   H12724493   6.956   4.902   6.486 -0.5096 -0.1113 -0.0014
   94MOL   H12824494   6.867   4.986   6.607 -1.1703 -0.6303 -2.9068
   94MOL   H12924495   7.032   4.962   6.644 -0.9385  3.6901  0.8373
   94MOL   H13024496   6.958   5.043   6.309  0.3388 -0.7789  0.0713
   94MOL   H13124497   6.990   5.212   6.311  0.4399 -1.1422  0.6751
   94MOL   C13224498   6.777   5.163   6.360  0.0419 -0.5822 -0.1162
   94MOL   C13324499   6.721   5.203   6.220 -0.1296 -1.1496  0.2435
   94MOL   C13424500   6.610   5.281   6.200  0.4300  0.3416 -0.5609
   94MOL   C13524501   6.538   5.351   6.319  0.0680  0.0793 -0.3035
   94MOL   C13624502   6.560   5.321   6.057  0.3994  0.2570 -0.1897
   94MOL   H13724503   6.771   5.244   6.432 -0.3905 -0.3133 -0.4608
   94MOL   H13824504   6.716   5.084   6.404 -1.5212  0.2367 -0.7727
   94MOL   H13924505   6.766   5.164   6.130 -2.1304 -0.6673 -1.0158
   94MOL   H14024506   6.448   5.297   6.347  0.8935 -0.2845  1.7155
   94MOL   H14124507   6.536   5.458   6.298 -0.6344 -0.2857 -2.1411
   94MOL   H14224508   6.593   5.344   6.413 -0.6668 -2.0270 -0.0141
   94MOL   H14324509   6.458   5.284   6.050  0.5535 -0.1984 -0.0253
   94MOL   H14424510   6.621   5.263   5.988 -0.9482 -0.6988 -0.5920
   94MOL   C14524511   6.564   5.467   6.019  0.7078 -0.9913 -0.5945
   94MOL   C14624512   6.514   5.502   5.881  0.3335 -0.7273 -0.3143
   94MOL   C14724513   6.557   5.603   5.802  0.1407  0.0908 -0.2115
   94MOL   C14824514   6.669   5.698   5.837  0.2986 -0.1838 -0.6575
   94MOL   C14924515   6.480   5.649   5.675 -0.7130 -0.6075  0.1404
   94MOL   H15024516   6.664   5.505   6.039 -0.1258  0.6193  0.5963
   94MOL   H15124517   6.487   5.511   6.082  1.7795  0.6247 -0.3795
   94MOL   H15224518   6.420   5.457   5.852  0.5894 -2.2039  1.0795
   94MOL   H15324519   6.747   5.646   5.892  0.7956 -1.6783 -2.7134
   94MOL   H15424520   6.643   5.800   5.866 -1.6226 -1.3354  1.8900
   94MOL   H15524521   6.722   5.718   5.744  0.4455 -0.8588 -0.7199
   94MOL   H15624522   6.406   5.575   5.645  1.0488 -1.9778 -0.8672
   94MOL   H15724523   6.554   5.644   5.596 -1.7390  0.3860 -0.9103
   94MOL   C15824524   6.434   5.796   5.668 -0.3057  0.2066 -0.5566
   94MOL   C15924525   6.414   5.841   5.522 -0.1904  0.1608  0.0473
   94MOL   C16024526   6.296   5.881   5.461 -0.3202  0.6236 -0.6709
   94MOL   C16124527   6.167   5.921   5.541 -0.1040  0.2124 -0.5860
   94MOL   C16224528   6.294   5.917   5.312  0.1875 -0.6628  0.1369
   94MOL   H16324529   6.509   5.863   5.709  1.0511  0.0558 -2.7638
   94MOL   H16424530   6.348   5.813   5.733 -2.2580 -2.2749 -2.4006
   94MOL   H16524531   6.500   5.831   5.457 -1.5658 -0.8909 -1.6362
   94MOL   H16624532   6.084   5.862   5.503 -0.9457  1.0890 -0.1348
   94MOL   H16724533   6.134   6.025   5.532 -1.3853 -0.0400  0.9595
   94MOL   H16824534   6.184   5.913   5.648  1.1435 -1.6043 -0.8994
   94MOL   H16924535   6.240   5.845   5.250  1.6696  0.6919 -2.8362
   94MOL   H17024536   6.393   5.904   5.269  0.2366 -0.5120  0.2039
   94MOL   C17124537   6.239   6.060   5.293 -0.5067 -0.1079 -0.5672
   94MOL   C17224538   6.305   6.106   5.164  0.8175 -0.0581 -0.0752
   94MOL   C17324539   6.385   6.208   5.149  0.9364  0.1408 -0.5364
   94MOL   C17424540   6.451   6.277   5.268 -0.1861  0.4216 -0.0952
   94MOL   C17524541   6.405   6.264   5.012  0.1431 -0.0355 -0.0689
   94MOL   H17624542   6.254   6.130   5.375 -1.8194 -0.2034 -0.2334
   94MOL   H17724543   6.133   6.074   5.275 -0.4223 -0.0458 -1.0299
   94MOL   H17824544   6.266   6.062   5.073  1.3527 -2.4069  0.7923
   94MOL   H17924545   6.414   6.380   5.267 -0.7994  0.2239  1.1589
   94MOL   H18024546   6.560   6.281   5.258 -0.1873 -1.5567 -1.0569
   94MOL   H18124547   6.440   6.225   5.363 -4.8344  1.7973  0.2455
   94MOL   H18224548   6.358   6.361   4.996 -1.0955 -0.4251  1.1137
   94MOL   H18324549   6.354   6.205   4.935  0.8174  1.1332 -1.4248
   94MOL   C18424550   6.550   6.263   4.970 -0.3990 -0.6103 -0.7769
   94MOL   C18524551   6.564   6.286   4.817 -0.0637  0.3540  0.4090
   94MOL   C18624552   6.571   6.197   4.715 -0.1745 -0.0170  0.0561
   94MOL   C18724553   6.552   6.048   4.746  0.0111  0.2318  0.4076
   94MOL   C18824554   6.596   6.235   4.570 -0.0306  0.0906 -0.5780
   94MOL   H18924555   6.596   6.168   4.998 -0.4841 -0.2504  0.5947
   94MOL   H19024556   6.604   6.335   5.031 -2.3198 -0.4726  0.8200
   94MOL   H19124557   6.566   6.391   4.791  1.0582 -0.2963 -2.2628
   94MOL   H19224558   6.510   6.000   4.658  1.2511  1.2740 -0.7856
   94MOL   H19324559   6.476   6.042   4.824 -0.4472  1.4010  0.0582
   94MOL   H19424560   6.642   5.995   4.779  1.8713  2.2366 -1.2586
   94MOL   H19524561   6.510   6.289   4.530 -0.0163 -0.0841 -0.8458
   94MOL   H19624562   6.616   6.142   4.518 -1.3215 -0.3115 -0.3673
   94MOL   C19724563   6.720   6.327   4.547  0.6299 -0.3095  0.0630
   94MOL   C19824564   6.721   6.375   4.405  0.4027  0.6632 -0.7463
   94MOL   C19924565   6.722   6.507   4.369 -0.4898  0.9574  0.0549
   94MOL   C20024566   6.722   6.617   4.469 -0.4853  0.3432 -0.5899
   94MOL   C20124567   6.747   6.553   4.224 -0.7493  0.4338  0.0156
   94MOL   H20224568   6.806   6.261   4.563  1.6473  0.8811 -0.4138
   94MOL   H20324569   6.725   6.412   4.615 -1.7856  1.4941 -1.9304
   94MOL   H20424570   6.726   6.297   4.330 -0.2310 -1.0939  1.0165
   94MOL   H20524571   6.816   6.637   4.521 -1.0887 -2.7627  1.8422
   94MOL   H20624572   6.653   6.609   4.553 -0.0581  2.6281  0.0043
   94MOL   H20724573   6.697   6.710   4.418  1.7419  0.4428 -1.5620
   94MOL   H20824574   6.847   6.596   4.231 -1.5808  2.5536 -0.6362
   94MOL   H20924575   6.682   6.629   4.179 -0.1855  1.9189  1.6604
   94MOL   C21024576   6.758   6.439   4.120 -0.3201  0.1707  0.0548
   94MOL   C21124577   6.772   6.492   3.978  0.5012  0.2335 -0.3034
   94MOL   C21224578   6.868   6.454   3.893 -0.1055 -0.1368 -0.3932
   94MOL   C21324579   6.993   6.364   3.916 -0.8412  0.3903 -0.2688
   94MOL   C21424580   6.876   6.511   3.754 -0.4515 -0.2147  0.9213
   94MOL   H21524581   6.670   6.375   4.127 -0.2268  0.1568  1.1335
   94MOL   H21624582   6.835   6.366   4.144  0.8433  0.9959 -1.0783
   94MOL   H21724583   6.700   6.559   3.932  0.0910  0.2347  0.3345
   94MOL   H21824584   7.061   6.428   3.971  0.7722 -2.9990  1.8653
   94MOL   H21924585   7.051   6.330   3.830  0.9186  0.6425  0.7906
   94MOL   H22024586   6.974   6.271   3.971  0.4663  1.2959  1.7781
   94MOL   H22124587   6.969   6.568   3.755  0.6586 -1.9379 -0.5711
   94MOL   H22224588   6.800   6.587   3.736  0.5385  0.5847 -0.0387
   94MOL   C22324589   6.867   6.416   3.635  0.2659 -0.0989  0.2956
   94MOL   C22424590   6.851   6.495   3.498  0.4065 -0.2900  0.1908
   94MOL   C22524591   6.884   6.438   3.385  0.2877 -0.4364  0.4129
   94MOL   C22624592   6.923   6.292   3.366  0.6354  0.1143  0.2694
   94MOL   C22724593   6.857   6.521   3.265  1.1310 -0.7789 -0.0421
   94MOL   H22824594   6.784   6.347   3.643  1.7883 -1.7596  2.7080
   94MOL   H22924595   6.961   6.361   3.648 -0.1581 -0.8600  0.1108
   94MOL   H23024596   6.805   6.593   3.504 -2.0058 -1.4746  2.1771
   94MOL   H23124597   7.012   6.269   3.308  0.0459  0.4146 -0.7514
   94MOL   H23224598   6.838   6.232   3.334 -0.4586  0.8697  1.7208
   94MOL   H23324599   6.939   6.249   3.465  1.5462  0.8794  0.4593
   94MOL   H23424600   6.808   6.615   3.293 -0.1499 -1.5185  0.2116
   94MOL   H23524601   6.775   6.468   3.216 -0.9426  2.0475  0.2303
   94MOL   C23624602   6.979   6.555   3.180  0.9705 -0.0390 -0.2694
   94MOL   C23724603   6.938   6.613   3.049 -0.4814  0.0959 -0.2161
   94MOL   C23824604   6.943   6.547   2.932  0.3635 -0.5641 -0.5182
   94MOL   C23924605   7.011   6.411   2.919 -0.2328  0.0474  0.1448
   94MOL   C24024606   6.898   6.616   2.805  0.4937  0.4386 -0.5365
   94MOL   H24124607   7.050   6.472   3.180  0.7654 -0.2207  1.0092
   94MOL   H24224608   7.035   6.631   3.233 -1.0475  1.0123  0.4032
   94MOL   H24324609   6.890   6.709   3.057 -1.5300 -0.2370 -2.3175
   94MOL   H24424610   6.968   6.331   2.978 -1.5054  0.0185 -0.7961
   94MOL   H24524611   7.118   6.423   2.939  0.3532 -1.4168 -1.9056
   94MOL   H24624612   6.998   6.393   2.812 -3.1810  5.0422 -0.5253
   94MOL   H24724613   6.803   6.652   2.843  1.4493  1.4960  0.9236
   94MOL   H24824614   6.865   6.539   2.736  1.1323  0.0671 -0.4333
   94MOL   C24924615   6.998   6.719   2.747  0.1001  0.0516  0.6767
   94MOL   C25024616   6.926   6.810   2.648 -0.0842  0.6092 -1.1011
   94MOL   C25124617   6.940   6.948   2.625 -0.3237  0.5376 -0.2800
   94MOL   C25224618   7.030   7.043   2.700 -0.3850  0.3445 -0.3240
   94MOL   C25324619   6.833   7.021   2.547 -0.0434 -0.3391  0.0178
   94MOL   H25424620   7.084   6.670   2.701  1.1834  0.6884  1.9908
   94MOL   H25524621   7.028   6.784   2.829 -1.0458  0.1783  0.9944
   94MOL   H25624622   6.838   6.771   2.599 -0.2132  0.5647 -0.8353
   94MOL   H25724623   6.978   7.121   2.756 -0.2552  0.6540 -0.6299
   94MOL   H25824624   7.103   7.104   2.646  0.7369 -0.4777  0.2245
   94MOL   H25924625   7.087   6.997   2.780 -1.1157 -1.2702 -0.7159
   94MOL   H26024626   6.827   6.974   2.449  0.2786 -1.4906  0.5513
   94MOL   H26124627   6.853   7.128   2.534  0.3694 -0.4914 -0.6303
   94MOL   H26224628   6.740   7.009   2.603 -1.0471 -0.2874 -1.5809
   95MOL     C124629   7.612   6.653   6.171 -0.2917 -0.7158 -0.3401
   95MOL     C224630   7.558   6.590   6.041 -0.5905  0.2211 -0.0543
   95MOL     C324631   7.600   6.476   5.987  0.3476  0.0783 -0.1947
   95MOL     C424632   7.715   6.395   6.036  0.4230 -0.7351  0.0268
   95MOL     C524633   7.536   6.434   5.860  0.2391 -0.0438  0.0417
   95MOL     H624634   7.717   6.647   6.201 -0.3615  3.1818  0.9714
   95MOL     H724635   7.598   6.761   6.167  0.5040 -0.5568  0.8265
   95MOL     H824636   7.477   6.643   5.993 -0.5661 -1.1561 -1.6696
   95MOL     H924637   7.814   6.410   5.993  1.0231 -0.6395  1.4262
   95MOL    H1024638   7.702   6.286   6.040  0.3610 -0.7722 -1.1311
   95MOL    H1124639   7.712   6.415   6.143  0.1510  3.3459 -0.6805
   95MOL    H1224640   7.600   6.370   5.799  0.6799  0.2472  0.1944
   95MOL    H1324641   7.505   6.520   5.800  0.4432  0.3523  0.4983
   95MOL    H1424642   7.559   6.622   6.260  1.0018  2.8540  1.7863
   95MOL    C1524643   7.401   6.368   5.885 -0.3095  0.0832  0.1087
   95MOL    C1624644   7.413   6.219   5.921 -0.4654 -0.0194  0.3240
   95MOL    C1724645   7.334   6.115   5.879  0.0737 -0.6779 -0.3384
   95MOL    C1824646   7.198   6.129   5.816 -0.7772 -0.6754  0.3771
   95MOL    C1924647   7.356   5.973   5.938 -0.4968 -0.1095 -0.6489
   95MOL    H2024648   7.344   6.362   5.792 -1.6326  0.1753  0.9071
   95MOL    H2124649   7.343   6.412   5.966 -0.8216 -3.3333  1.6828
   95MOL    H2224650   7.508   6.185   5.960  0.0197 -0.7080 -1.4076
   95MOL    H2324651   7.197   6.059   5.732  1.6696 -0.9973  0.5821
   95MOL    H2424652   7.185   6.226   5.767  2.7030 -0.1888  0.3019
   95MOL    H2524653   7.112   6.097   5.875 -0.3363 -0.3530  1.2008
   95MOL    H2624654   7.456   5.969   5.982 -1.3661  1.4164  1.5573
   95MOL    H2724655   7.353   5.905   5.853  1.8489 -0.0418 -0.8374
   95MOL    C2824656   7.253   5.916   6.034  0.2885 -0.1254 -0.2926
   95MOL    C2924657   7.296   5.774   6.070  0.0409 -0.0366 -0.0392
   95MOL    C3024658   7.211   5.671   6.092  0.2103 -0.4427  0.0044
   95MOL    C3124659   7.063   5.676   6.063 -0.7108  0.0541 -0.3855
   95MOL    C3224660   7.270   5.534   6.113 -0.0731  0.3856  0.0945
   95MOL    H3324661   7.149   5.917   6.005  0.0803 -0.3641  0.4174
   95MOL    H3424662   7.261   5.962   6.133  0.7342 -2.9572  1.0715
   95MOL    H3524663   7.402   5.756   6.084  0.7546  2.7936 -1.4361
   95MOL    H3624664   7.008   5.601   6.120 -0.5168  0.6829  0.6393
   95MOL    H3724665   7.057   5.654   5.956  0.2807 -1.9006 -0.0736
   95MOL    H3824666   7.011   5.768   6.086 -0.5077  0.2305 -0.6310
   95MOL    H3924667   7.239   5.508   6.214  2.8654  1.2273  1.2718
   95MOL    H4024668   7.377   5.551   6.128 -0.4619  1.4918  1.7391
   95MOL    C4124669   7.238   5.430   6.009  0.4746  0.3937 -0.2821
   95MOL    C4224670   7.305   5.303   6.033 -0.4025 -0.9896 -0.0685
   95MOL    C4324671   7.393   5.248   5.948  0.4424 -0.1150 -0.0323
   95MOL    C4424672   7.443   5.297   5.810 -0.3771 -0.0440 -0.0260
   95MOL    C4524673   7.455   5.110   5.982  0.2169  0.2257  0.3924
   95MOL    H4624674   7.267   5.457   5.907  1.2565 -0.8922 -0.4152
   95MOL    H4724675   7.132   5.408   5.996  0.7293 -1.6253  0.8648
   95MOL    H4824676   7.275   5.268   6.131  0.3743 -2.2311 -0.2636
   95MOL    H4924677   7.552   5.288   5.802 -0.1771  0.3073  1.9141
   95MOL    H5024678   7.415   5.393   5.766 -1.6934 -1.3167 -2.0103
   95MOL    H5124679   7.396   5.230   5.739 -0.1088 -0.6696  0.3798
   95MOL    H5224680   7.442   5.085   6.087  0.0199 -1.9398 -0.1264
   95MOL    H5324681   7.561   5.133   5.974 -0.0307  0.5704 -2.4532
   95MOL    C5424682   7.398   4.990   5.894  0.0332 -0.3557  0.1200
   95MOL    C5524683   7.456   4.863   5.938 -0.6797  0.7334 -0.4231
   95MOL    C5624684   7.379   4.759   5.979 -0.1141  0.0066  0.3174
   95MOL    C5724685   7.227   4.761   5.984  0.4525 -0.3173 -0.4565
   95MOL    C5824686   7.439   4.631   6.024  0.5041 -0.2075 -0.5560
   95MOL    H5924687   7.431   5.005   5.791 -1.9252  0.5390 -0.3937
   95MOL    H6024688   7.289   4.993   5.895 -0.0597 -2.2686 -1.2587
   95MOL    H6124689   7.564   4.853   5.941 -0.8009 -1.0601 -1.1974
   95MOL    H6224690   7.194   4.837   6.055  0.4894 -1.8141  1.1883
   95MOL    H6324691   7.194   4.662   6.014  0.0837  0.1147  0.5804
   95MOL    H6424692   7.186   4.773   5.884  1.7670  0.5842 -0.9072
   95MOL    H6524693   7.413   4.611   6.128  1.1025  1.0965 -0.1482
   95MOL    H6624694   7.547   4.644   6.023  0.1100  3.7985  0.7837
   95MOL    C6724695   7.407   4.514   5.935  0.5815  0.0560  0.4112
   95MOL    C6824696   7.428   4.392   6.021 -0.7731 -0.6700 -0.3707
   95MOL    C6924697   7.360   4.279   6.018 -0.2870 -0.4128  0.3976
   95MOL    C7024698   7.237   4.246   5.929 -0.3404  0.7363 -0.4713
   95MOL    C7124699   7.405   4.166   6.103 -0.1666  0.2789  0.2793
   95MOL    H7224700   7.460   4.515   5.839  0.6983  0.7755  0.4782
   95MOL    H7324701   7.302   4.518   5.906  0.3715  3.7349  1.3898
   95MOL    H7424702   7.519   4.401   6.079 -2.0511  0.3630  1.5435
   95MOL    H7524703   7.232   4.321   5.850 -2.8770 -1.2785 -2.3349
   95MOL    H7624704   7.142   4.236   5.983 -0.5727 -0.0196 -1.0081
   95MOL    H7724705   7.260   4.162   5.864 -0.0319 -1.6512  2.6417
   95MOL    H7824706   7.502   4.180   6.150  0.0835  1.1430 -0.4591
   95MOL    H7924707   7.400   4.081   6.034  1.3981  1.6967 -1.6536
   95MOL    C8024708   7.301   4.142   6.212 -0.1014 -0.6096  0.1927
   95MOL    C8124709   7.328   4.230   6.330 -0.4610 -0.3468 -0.2929
   95MOL    C8224710   7.251   4.330   6.380 -0.5569 -0.0557  0.4230
   95MOL    C8324711   7.121   4.385   6.323 -0.2573 -0.4891  0.0978
   95MOL    C8424712   7.293   4.398   6.515  0.7076 -0.2365  0.2662
   95MOL    H8524713   7.306   4.046   6.263 -0.8281 -0.6120  0.2668
   95MOL    H8624714   7.201   4.154   6.169 -0.0176  2.9729  0.8275
   95MOL    H8724715   7.413   4.203   6.391 -0.1066 -0.7478 -0.9589
   95MOL    H8824716   7.080   4.465   6.384  0.3616  1.2369 -1.6776
   95MOL    H8924717   7.044   4.308   6.336 -1.7015  0.8207 -0.5088
   95MOL    H9024718   7.131   4.419   6.220  0.1426  1.7623  0.8565
   95MOL    H9124719   7.338   4.318   6.573  0.0562 -2.3060 -1.9826
   95MOL    H9224720   7.206   4.431   6.570  0.8668  2.6624 -1.1528
   95MOL    C9324721   7.394   4.505   6.490 -0.1140 -0.2021 -0.5673
   95MOL    C9424722   7.408   4.598   6.604  0.3828 -0.4001 -0.4360
   95MOL    C9524723   7.519   4.645   6.661 -0.1210 -0.2358  0.4879
   95MOL    C9624724   7.652   4.614   6.601  0.7981  0.3613  0.2044
   95MOL    C9724725   7.525   4.745   6.777  0.0465 -0.2212 -0.4629
   95MOL    H9824726   7.364   4.576   6.413  0.1554  0.7580  0.2083
   95MOL    H9924727   7.484   4.454   6.456  0.0061 -0.8754  0.7330
   95MOL   H10024728   7.314   4.626   6.649 -1.0940 -0.5529 -3.2964
   95MOL   H10124729   7.721   4.674   6.660  2.2693  0.2684 -1.4052
   95MOL   H10224730   7.663   4.631   6.494  0.8546 -0.9309 -0.0008
   95MOL   H10324731   7.674   4.510   6.626  0.0471  0.3877  0.9997
   95MOL   H10424732   7.425   4.790   6.776  0.3818  0.5816  0.6613
   95MOL   H10524733   7.572   4.839   6.746 -1.3926  0.9197  0.6891
   95MOL   C10624734   7.587   4.684   6.902 -0.9130 -0.8298 -0.2606
   95MOL   C10724735   7.535   4.768   7.012 -0.1396  0.2000  0.1961
   95MOL   C10824736   7.514   4.736   7.137  0.1556 -1.1868  0.8640
   95MOL   C10924737   7.517   4.592   7.194  0.1615 -0.6645 -0.0572
   95MOL   C11024738   7.469   4.832   7.252 -0.1415  0.4695 -0.1581
   95MOL   H11124739   7.696   4.690   6.901 -0.7191 -4.0293 -1.9367
   95MOL   H11224740   7.559   4.581   6.923 -2.3197 -0.1021  1.5778
   95MOL   H11324741   7.518   4.871   6.984 -2.4268  0.3596  1.9955
   95MOL   H11424742   7.513   4.590   7.303 -4.5679  2.6251 -0.0178
   95MOL   H11524743   7.607   4.546   7.155  2.5490  1.9778  2.0731
   95MOL   H11624744   7.421   4.544   7.172 -0.2217 -0.3422  0.8819
   95MOL   H11724745   7.540   4.827   7.333 -1.2269  0.6356  0.8184
   95MOL   H11824746   7.382   4.780   7.293  0.0171 -1.5212 -2.2289
   95MOL   C11924747   7.464   4.983   7.209  0.1078  0.0941 -0.1671
   95MOL   C12024748   7.407   5.066   7.324 -0.1058  0.3445  0.0225
   95MOL   C12124749   7.284   5.113   7.341  0.4905 -0.2953  0.1989
   95MOL   C12224750   7.186   5.113   7.234 -0.1101 -0.3985  0.6424
   95MOL   C12324751   7.237   5.188   7.461 -0.6054  0.8003 -0.1867
   95MOL   H12424752   7.417   5.006   7.114  1.3695  1.5600 -0.4366
   95MOL   H12524753   7.563   5.024   7.192  1.0040 -2.0674 -0.3676
   95MOL   H12624754   7.467   5.083   7.412  1.1469 -1.0086 -0.5515
   95MOL   H12724755   7.156   5.215   7.209  3.0589 -0.0619 -2.0845
   95MOL   H12824756   7.086   5.076   7.257 -0.3847  1.6095  3.0312
   95MOL   H12924757   7.215   5.064   7.141 -3.3776 -0.0672 -0.6074
   95MOL   H13024758   7.136   5.150   7.476 -0.1619  0.5212  2.3809
   95MOL   H13124759   7.239   5.297   7.468 -2.4533  0.8669 -0.4586
   95MOL   C13224760   7.308   5.141   7.589  0.2804 -0.9170 -0.0164
   95MOL   C13324761   7.237   5.163   7.718  0.8310 -0.2320  0.3068
   95MOL   C13424762   7.259   5.244   7.822  0.0642  0.1737 -0.1156
   95MOL   C13524763   7.378   5.324   7.831  0.0094 -0.0070 -0.1495
   95MOL   C13624764   7.172   5.251   0.060 -0.4366  0.0896  0.1183
   95MOL   H13724765   7.405   5.192   7.595 -0.4295  0.5393 -0.7605
   95MOL   H13824766   7.329   5.034   7.590  0.5871 -0.8676 -0.8685
   95MOL   H13924767   7.142   5.111   7.718  1.3109 -1.1116 -0.5565
   95MOL   H14024768   7.360   5.432   7.835  3.0737  0.5094  0.7107
   95MOL   H14124769   7.441   5.320   7.743 -1.0628 -1.8156 -0.8492
   95MOL   H14224770   7.446   5.291   0.028 -1.6079 -1.4529  0.6776
   95MOL   H14324771   7.222   5.280   0.152  0.9909 -0.9651 -0.3086
   95MOL   H14424772   7.128   5.159   0.097 -0.6744 -0.2739 -1.0377
   95MOL   C14524773   7.056   5.359   0.052 -0.3817  0.1686 -0.2626
   95MOL   C14624774   7.018   5.405   0.192  0.6352  0.4172 -0.4682
   95MOL   C14724775   7.051   5.517   0.254  0.0248 -0.1835 -0.8473
   95MOL   C14824776   7.118   5.637   0.188  0.0890  0.4520 -0.5346
   95MOL   C14924777   7.023   5.539   0.407  1.2322  0.5181  0.0035
   95MOL   H15024778   6.967   5.309   0.014 -0.7296  0.4078  0.2240
   95MOL   H15124779   7.065   5.439   7.861 -2.6976  0.6143 -0.0936
   95MOL   H15224780   6.969   5.330   0.252  1.4195 -1.5258 -2.1931
   95MOL   H15324781   7.143   5.616   0.084 -0.3276 -2.5695 -0.0912
   95MOL   H15424782   7.206   5.674   0.240  1.0114 -0.2306 -1.5804
   95MOL   H15524783   7.041   5.714   0.180 -0.2324  0.1382 -0.5015
   95MOL   H15624784   7.112   5.537   0.470 -0.8789 -0.4410  3.0282
   95MOL   H15724785   6.960   5.459   0.444 -0.2394  2.6546  2.2859
   95MOL   C15824786   6.945   5.670   0.428  0.2820 -0.2254  0.1943
   95MOL   C15924787   6.804   5.677   0.372 -0.1284 -0.1533  0.1577
   95MOL   C16024788   6.726   5.790   0.376 -0.0529 -0.1623 -0.0264
   95MOL   C16124789   6.781   5.929   0.410  0.8226  0.3301  0.8459
   95MOL   C16224790   6.583   5.777   0.336  0.6994 -0.5836 -0.5040
   95MOL   H16324791   7.006   5.758   0.408 -0.0570 -0.0779 -0.2113
   95MOL   H16424792   6.929   5.658   0.535 -1.1739 -0.1873  0.0028
   95MOL   H16524793   6.764   5.581   0.343  0.4271 -0.6605  1.0437
   95MOL   H16624794   6.847   5.934   0.497  0.6947  0.5624  0.9305
   95MOL   H16724795   6.696   5.995   0.427  1.2441  0.8861  0.8140
   95MOL   H16824796   6.838   5.966   0.325  2.7927 -1.8717  1.1622
   95MOL   H16924797   6.524   5.827   0.413  0.1206  1.0194 -1.9551
   95MOL   H17024798   6.564   5.670   0.341 -2.1140 -0.0363  1.9152
   95MOL   C17124799   6.546   5.840   0.203 -0.6632 -0.3409 -0.7869
   95MOL   C17224800   6.567   5.753   0.089 -0.4838  0.3748 -1.2176
   95MOL   C17324801   6.654   5.773   7.865 -0.3185  0.6776 -0.0995
   95MOL   C17424802   6.748   5.891   7.847  0.0853 -0.1132 -0.9442
   95MOL   C17524803   6.669   5.660   7.770  0.4367  0.0915 -0.2497
   95MOL   H17624804   6.587   5.941   0.194 -1.2400 -0.2023 -2.0279
   95MOL   H17724805   6.439   5.864   0.206 -0.2587  1.6511 -1.4861
   95MOL   H17824806   6.511   5.660   0.088  0.7182 -0.3992  0.4878
   95MOL   H17924807   6.726   5.944   7.754  2.5207  0.0429 -1.4479
   95MOL   H18024808   6.848   5.852   7.830  0.3266  0.3138 -0.5042
   95MOL   H18124809   6.745   5.966   0.044 -1.2250 -0.2885 -0.8061
   95MOL   H18224810   6.671   5.697   7.667 -1.4906  1.5117  0.1862
   95MOL   H18324811   6.575   5.605   7.759  1.1572 -1.4691  1.2299
   95MOL   C18424812   6.788   5.565   7.794  0.1830  0.6141 -0.2666
   95MOL   C18524813   6.790   5.459   7.682  0.4834 -0.7474 -0.2012
   95MOL   C18624814   6.879   5.427   7.587 -0.0921  0.0015 -0.1591
   95MOL   C18724815   7.015   5.495   7.578  0.1925 -0.3421  1.0336
   95MOL   C18824816   6.862   5.307   7.494 -0.0781  0.3155  0.0022
   95MOL   H18924817   6.793   5.518   0.009  0.1585  0.3281 -0.4018
   95MOL   H19024818   6.882   5.620   7.795  0.5150  0.0353  0.5683
   95MOL   H19124819   6.702   5.398   7.676 -0.1834  0.2695 -0.8719
   95MOL   H19224820   7.022   5.530   7.475 -1.2615 -0.9212  0.7199
   95MOL   H19324821   7.093   5.422   7.599 -0.5811 -1.7080 -0.7427
   95MOL   H19424822   7.025   5.588   7.635  1.5856  0.1955 -0.0564
   95MOL   H19524823   6.772   5.249   7.516 -1.7223  1.8891 -2.3599
   95MOL   H19624824   6.932   5.232   7.532 -1.0389 -0.0684  1.0351
   95MOL   C19724825   6.876   5.342   7.343  0.0292  0.1159 -0.3383
   95MOL   C19824826   6.840   5.216   7.264  0.3410 -0.1546 -0.5261
   95MOL   C19924827   6.785   5.211   7.142  0.0246 -0.7876  0.4087
   95MOL   C20024828   6.740   5.329   7.058  0.0439 -0.6077 -0.2719
   95MOL   C20124829   6.782   5.076   7.072  0.8096 -1.2608 -0.3484
   95MOL   H20224830   6.977   5.373   7.318 -0.1519  0.2535 -0.9187
   95MOL   H20324831   6.810   5.428   7.326  2.8465  1.8831 -3.0017
   95MOL   H20424832   6.871   5.119   7.298  2.6021  0.0003 -2.0268
   95MOL   H20524833   6.645   5.304   7.010 -1.7441 -0.1836  2.8737
   95MOL   H20624834   6.820   5.346   6.987 -0.0744 -0.6745 -0.4212
   95MOL   H20724835   6.723   5.418   7.118  0.0916 -0.3242 -0.6816
   95MOL   H20824836   6.688   5.070   7.017  0.0006  1.8139  0.5780
   95MOL   H20924837   6.779   4.998   7.148 -0.8035 -1.0997 -0.2283
   95MOL   C21024838   6.892   5.056   6.975 -0.0411 -0.6898  0.6353
   95MOL   C21124839   6.898   4.916   6.910  0.3738 -0.2049  0.5351
   95MOL   C21224840   7.010   4.844   6.893  0.0360  0.3480 -0.1279
   95MOL   C21324841   7.147   4.893   6.929  0.4925 -0.5850 -0.8751
   95MOL   C21424842   7.002   4.695   6.847 -0.6315 -0.5598 -0.7462
   95MOL   H21524843   6.987   5.082   7.021  0.6526  1.3022 -1.7981
   95MOL   H21624844   6.873   5.128   6.896 -3.3744 -0.3198  1.6610
   95MOL   H21724845   6.805   4.883   6.868  0.1945 -1.2932  1.7614
   95MOL   H21824846   7.214   4.857   6.851 -0.9083 -1.1549 -1.8285
   95MOL   H21924847   7.176   4.859   7.028 -0.9405  2.1754  0.5799
   95MOL   H22024848   7.160   5.002   6.926 -0.7499 -0.4509 -2.7640
   95MOL   H22124849   7.069   4.682   6.762 -0.4418  0.8248 -0.8246
   95MOL   H22224850   6.905   4.664   6.809 -0.0153 -1.9320 -1.2378
   95MOL   C22324851   7.048   4.608   6.964  0.0086  0.3245 -0.0648
   95MOL   C22424852   7.025   4.461   6.931 -0.1606 -0.5005 -0.9141
   95MOL   C22524853   7.122   4.378   6.902  0.0035 -0.1268  0.0066
   95MOL   C22624854   7.269   4.417   6.876  0.5886 -0.4815 -0.2497
   95MOL   C22724855   7.090   4.230   6.904 -0.1085 -0.1945  0.6499
   95MOL   H22824856   6.980   4.636   7.044  0.6968 -1.2253  1.0934
   95MOL   H22924857   7.149   4.628   7.000 -0.5479 -0.8177  2.2573
   95MOL   H23024858   6.924   4.427   6.946 -0.1127  0.0547  0.8162
   95MOL   H23124859   7.273   4.525   6.867  2.9513 -0.6826 -2.1184
   95MOL   H23224860   7.306   4.369   6.785  1.0945 -0.9689  0.2036
   95MOL   H23324861   7.335   4.393   6.959  1.2747 -0.9879 -0.9293
   95MOL   H23424862   6.991   4.207   6.941  0.2203 -1.7450  0.6001
   95MOL   H23524863   7.157   4.195   6.983 -1.8874 -1.1452  1.7672
   95MOL   C23624864   7.118   4.161   6.761 -0.3887  0.7663  0.3899
   95MOL   C23724865   7.088   4.017   6.773 -0.3009  0.0859  0.3716
   95MOL   C23824866   7.007   3.951   6.687 -0.9587  0.4843 -0.5210
   95MOL   C23924867   6.946   4.004   6.561 -0.6660 -0.6925 -0.1080
   95MOL   C24024868   6.957   3.815   6.714  0.7212  0.4215 -0.0194
   95MOL   H24124869   7.217   4.170   6.716 -1.0050 -1.2398 -1.5070
   95MOL   H24224870   7.062   4.217   6.686  3.8548  1.2357 -2.5861
   95MOL   H24324871   7.130   3.963   6.857 -2.3118 -0.4817  1.0528
   95MOL   H24424872   6.841   4.013   6.586 -0.4919  0.0483  0.3467
   95MOL   H24524873   6.967   3.935   6.479 -0.9704  0.8724 -1.5274
   95MOL   H24624874   6.985   4.100   6.528  1.5082 -0.2968  3.3993
   95MOL   H24724875   7.035   3.749   6.750  0.8952  0.6846  0.0863
   95MOL   H24824876   6.940   3.767   6.617 -1.0602  1.0808 -0.0497
   95MOL   C24924877   6.838   3.794   6.814 -1.1135 -0.2897 -0.1293
   95MOL   C25024878   6.865   3.863   6.947 -0.1785 -0.3278 -0.1828
   95MOL   C25124879   6.863   3.801   7.065 -0.9248  0.4762 -0.2700
   95MOL   C25224880   6.833   3.661   7.097 -0.0815  0.4111 -0.2288
   95MOL   C25324881   6.894   3.893   7.183 -0.0193  0.0845  0.3884
   95MOL   H25424882   6.829   3.687   6.831 -0.5138 -0.4640 -0.9046
   95MOL   H25524883   6.752   3.824   6.755  0.4282  1.1144 -1.7216
   95MOL   H25624884   6.881   3.969   6.932  2.0734 -0.6410 -0.1467
   95MOL   H25724885   6.732   3.649   7.137  0.5573  2.2746  2.0526
   95MOL   H25824886   6.899   3.627   7.177  0.3741  1.3759 -0.1896
   95MOL   H25924887   6.836   3.591   7.013  1.5863  2.4794 -1.9497
   95MOL   H26024888   6.900   3.997   7.150  1.2993 -0.3849 -0.9164
   95MOL   H26124889   6.979   3.857   7.240  0.4952  0.0383 -0.3986
   95MOL   H26224890   6.810   3.901   7.252 -0.2005 -0.4075  0.2295
   96MOL     C124891   4.326   4.471   3.518  0.8249 -0.0172 -0.5467
   96MOL     C224892   4.297   4.496   3.376  0.3075 -0.2940  0.4271
   96MOL     C324893   4.333   4.603   3.303 -0.0483  0.0643 -1.1301
   96MOL     C424894   4.408   4.716   3.354 -0.7118  0.1392  0.4309
   96MOL     C524895   4.301   4.617   3.154 -0.1103  0.4079 -0.9406
   96MOL     H624896   4.376   4.374   3.516 -0.4202 -0.7035  1.0153
   96MOL     H724897   4.381   4.553   3.565 -1.0939  0.2798  1.2510
   96MOL     H824898   4.240   4.422   3.322 -3.0910  3.0545 -0.8217
   96MOL     H924899   4.478   4.702   3.436  1.3743 -0.7726 -1.4474
   96MOL    H1024900   4.337   4.793   3.385 -0.9144  0.5009 -0.8754
   96MOL    H1124901   4.465   4.753   3.268 -0.9088  2.1495  1.1565
   96MOL    H1224902   4.259   4.527   3.109 -1.4040  1.7980 -2.5707
   96MOL    H1324903   4.398   4.637   3.108  0.7696  1.9548  1.4664
   96MOL    H1424904   4.230   4.466   3.569  0.5246  1.9941 -0.8558
   96MOL    C1524905   4.190   4.728   3.130 -0.4024  0.7442 -0.0355
   96MOL    C1624906   4.149   4.710   2.986 -0.3532 -0.0414  0.6807
   96MOL    C1724907   4.026   4.701   2.935 -0.0101  0.4144  0.1850
   96MOL    C1824908   3.909   4.689   3.021 -0.4973 -0.2085 -0.1794
   96MOL    C1924909   4.005   4.678   2.784 -0.5694  0.0313  0.6603
   96MOL    H2024910   4.218   4.828   3.162  2.2067 -0.0021  0.1826
   96MOL    H2124911   4.104   4.700   3.191 -1.3510  0.0942 -1.6216
   96MOL    H2224912   4.229   4.723   2.915 -0.3603  0.5552  0.7775
   96MOL    H2324913   3.894   4.585   3.051 -0.0841 -0.4126 -0.6624
   96MOL    H2424914   3.825   4.711   2.955 -1.2552  1.5986  1.3758
   96MOL    H2524915   3.900   4.764   3.099  2.1230  1.4059 -1.3454
   96MOL    H2624916   3.952   4.584   2.766  0.8516 -0.1619 -2.8198
   96MOL    H2724917   4.101   4.667   2.735 -0.3887  2.9291  0.2953
   96MOL    C2824918   3.942   4.802   2.719 -0.0759 -0.1387  0.6285
   96MOL    C2924919   3.922   4.799   2.567  0.6556  0.3321 -0.3426
   96MOL    C3024920   3.797   4.811   2.504 -0.1154  0.2785 -0.5884
   96MOL    C3124921   3.668   4.826   2.572  0.7254  0.0404  1.1102
   96MOL    C3224922   3.789   4.800   2.354 -0.2351 -0.2726 -0.0704
   96MOL    H3324923   4.016   4.881   2.726  0.6426 -0.7073 -0.4427
   96MOL    H3424924   3.850   4.832   2.769 -0.3026 -0.0280  0.1458
   96MOL    H3524925   4.006   4.769   2.505  0.1129 -1.5555 -0.1957
   96MOL    H3624926   3.608   4.738   2.597  0.4399 -0.5579 -1.5008
   96MOL    H3724927   3.609   4.891   2.509  1.2923 -0.3412  0.1670
   96MOL    H3824928   3.676   4.888   2.661  0.2540 -0.0413  1.2130
   96MOL    H3924929   3.712   4.723   2.346 -1.0143  0.3461  1.3059
   96MOL    H4024930   3.890   4.768   2.329 -0.4078  0.9141 -2.5200
   96MOL    C4124931   3.764   4.928   2.269 -0.3713 -0.3567 -0.3161
   96MOL    C4224932   3.705   4.881   2.137 -0.2562  0.2126  0.8452
   96MOL    C4324933   3.646   4.958   2.042  0.4705  0.1888 -0.6853
   96MOL    C4424934   3.630   5.105   2.057 -0.0243 -0.9459  0.0181
   96MOL    C4524935   3.608   4.903   1.908  0.7290 -0.1197 -0.4029
   96MOL    H4624936   3.857   4.984   2.254 -0.4791 -0.2504 -0.5884
   96MOL    H4724937   3.697   4.993   2.325 -1.5356 -2.6340  0.9806
   96MOL    H4824938   3.728   4.779   2.111 -0.2325  0.4135  0.0637
   96MOL    H4924939   3.666   5.139   2.154 -2.6883  2.6211 -0.1092
   96MOL    H5024940   3.524   5.128   2.046  0.3173  0.4456 -0.4717
   96MOL    H5124941   3.687   5.158   1.980 -2.0326  2.6880  0.8769
   96MOL    H5224942   3.500   4.914   1.917  0.6851 -0.9924  0.2585
   96MOL    H5324943   3.627   4.796   1.913 -1.3475 -0.4945 -0.2431
   96MOL    C5424944   3.672   4.967   1.783 -0.2229  0.5019 -1.2286
   96MOL    C5524945   3.607   4.936   1.653  0.0032 -0.4584  0.5765
   96MOL    C5624946   3.544   5.016   1.571 -0.0952  0.3169 -0.9727
   96MOL    C5724947   3.529   5.164   1.591 -0.2500  0.0032 -0.1792
   96MOL    C5824948   3.482   4.959   1.450  0.2096  0.0338 -0.3928
   96MOL    H5924949   3.775   4.933   1.775 -0.3603 -0.3550  0.4709
   96MOL    H6024950   3.685   5.075   1.789 -0.7097  0.5910 -1.7117
   96MOL    H6124951   3.609   4.830   1.633  3.3542 -0.3742  0.1160
   96MOL    H6224952   3.435   5.195   1.547  1.0767  0.2422 -2.9998
   96MOL    H6324953   3.603   5.215   1.529 -1.9406  1.6816 -0.8637
   96MOL    H6424954   3.540   5.196   1.694 -0.3011 -0.3426 -0.0640
   96MOL    H6524955   3.374   4.967   1.438 -0.2090 -3.9025  0.1081
   96MOL    H6624956   3.496   4.851   1.437  0.5938  0.0489 -0.1025
   96MOL    C6724957   3.538   5.017   1.316 -0.0673 -0.0645  0.3725
   96MOL    C6824958   3.461   4.986   1.187 -0.2357  0.4469 -0.3077
   96MOL    C6924959   3.502   4.908   1.089  0.2345 -0.6179  0.4943
   96MOL    C7024960   3.645   4.843   1.080 -1.0328  0.2475  0.6482
   96MOL    C7124961   3.404   4.887   0.971  0.1684  0.1731  0.9321
   96MOL    H7224962   3.642   4.986   1.317  0.4516  1.6260  0.3272
   96MOL    H7324963   3.539   5.126   1.314 -2.2431 -0.0197  0.2905
   96MOL    H7424964   3.371   5.045   1.174 -1.9292 -1.7946  1.0540
   96MOL    H7524965   3.711   4.906   1.021 -1.9281  3.4070  2.8631
   96MOL    H7624966   3.633   4.744   1.038 -0.3615  1.0557 -1.4758
   96MOL    H7724967   3.689   4.837   1.180 -0.8652  0.3027  0.5766
   96MOL    H7824968   3.451   4.914   0.877 -0.5588 -0.0549  0.5017
   96MOL    H7924969   3.321   4.955   0.988  1.6036  1.6823  2.1060
   96MOL    C8024970   3.348   4.752   0.957  0.5833  0.2546 -0.1755
   96MOL    C8124971   3.246   4.733   0.834 -0.2086  0.3213 -0.4009
   96MOL    C8224972   3.111   4.741   0.848 -0.2653  0.1729  0.0467
   96MOL    C8324973   3.042   4.795   0.975 -0.7805 -0.6904  0.1172
   96MOL    C8424974   3.021   4.707   0.725 -0.1856 -0.1636  0.1566
   96MOL    H8524975   3.307   4.728   1.055 -0.6211  1.6056 -0.3422
   96MOL    H8624976   3.431   4.684   0.936  1.7711  2.0123 -1.3423
   96MOL    H8724977   3.294   4.710   0.740 -0.5097 -1.2430 -0.1889
   96MOL    H8824978   3.108   4.855   1.038 -0.2309 -1.6987  0.5161
   96MOL    H8924979   3.004   4.713   1.035  1.4570 -0.7570  1.4867
   96MOL    H9024980   2.955   4.857   0.955 -0.5372 -0.6431 -0.7916
   96MOL    H9124981   3.079   4.696   0.634 -1.3311  0.3185 -0.6472
   96MOL    H9224982   2.953   4.792   0.714 -0.1938 -0.2498 -0.4546
   96MOL    C9324983   2.936   4.576   0.739 -0.3972  0.3464  0.2370
   96MOL    C9424984   2.994   4.446   0.681 -0.2745  0.0514  0.0079
   96MOL    C9524985   2.972   4.386   0.562  0.6073 -0.1557  0.2417
   96MOL    C9624986   2.889   4.459   0.452 -0.3605  0.3763 -0.1514
   96MOL    C9724987   3.041   4.258   0.514 -0.7565  0.1025  0.5687
   96MOL    H9824988   2.842   4.592   0.687 -2.0701 -0.2327  2.9630
   96MOL    H9924989   2.919   4.574   0.847 -0.0352  0.5187  0.2986
   96MOL   H10024990   3.060   4.393   0.747 -0.1785 -0.4394 -0.4766
   96MOL   H10124991   2.884   4.563   0.484  1.1280  0.4328 -0.0597
   96MOL   H10224992   2.791   4.413   0.459  0.1919 -0.6645  1.0322
   96MOL   H10324993   2.931   4.442   0.353 -1.8809 -1.1403 -0.5528
   96MOL   H10424994   2.960   4.204   0.464 -0.0227 -0.3394 -0.1452
   96MOL   H10524995   3.074   4.190   0.592 -1.7510 -0.7181  0.2981
   96MOL   C10624996   3.151   4.294   0.414 -0.3838  0.3915  0.2478
   96MOL   C10724997   3.203   4.170   0.324 -0.1724 -0.4387 -0.1290
   96MOL   C10824998   3.228   4.168   0.196 -0.0096 -0.2464 -0.4916
   96MOL   C10924999   3.212   4.290   0.101 -0.0605  0.6942 -0.1000
   96MOL   C11025000   3.268   4.033   0.130  0.1735  0.1986 -0.2350
   96MOL   H11125001   3.236   4.329   0.472 -0.2830 -2.1847  1.7091
   96MOL   H11225002   3.121   4.373   0.344  1.4028  0.2997 -0.6400
   96MOL   H11325003   3.223   4.079   0.379  1.1916 -0.3822 -0.5030
   96MOL   H11425004   3.309   4.320   0.060 -0.4629  0.0841 -1.5180
   96MOL   H11525005   3.166   4.378   0.147 -1.1004  0.5468 -0.8640
   96MOL   H11625006   3.160   4.255   0.012 -0.3027  3.0095 -0.8987
   96MOL   H11725007   3.363   4.001   0.174  0.5824  2.7334  0.8032
   96MOL   H11825008   3.297   4.056   0.028  2.8278  0.0855  0.4326
   96MOL   C11925009   3.160   3.921   0.128  0.5092 -0.4217  0.5412
   96MOL   C12025010   3.200   3.812   0.027  0.2880 -0.1795 -0.9402
   96MOL   C12125011   3.222   3.681   0.036  0.3408 -0.3186  0.3492
   96MOL   C12225012   3.219   3.608   0.164 -0.2559 -0.5692  0.2283
   96MOL   C12325013   3.261   3.598   7.793 -0.2632 -0.1430 -0.4701
   96MOL   H12425014   3.075   3.973   0.084  2.1175  1.3667 -0.5241
   96MOL   H12525015   3.134   3.890   0.229  0.7321 -1.8656  0.1733
   96MOL   H12625016   3.207   3.849   7.808 -3.3380 -1.1471 -1.6267
   96MOL   H12725017   3.239   3.684   0.239  0.9852 -1.2931  0.6531
   96MOL   H12825018   3.286   3.522   0.159  1.6694  0.9958 -2.5581
   96MOL   H12925019   3.116   3.577   0.177 -0.2470 -0.0308  1.6934
   96MOL   H13025020   3.343   3.537   7.831 -0.7979 -1.0268 -0.7185
   96MOL   H13125021   3.295   3.664   7.713 -0.1347  0.6690  0.2410
   96MOL   C13225022   3.142   3.516   7.744  0.3716  0.2899 -0.7001
   96MOL   C13325023   3.187   3.396   7.661 -0.6845  0.2319 -0.4967
   96MOL   C13425024   3.140   3.332   7.551  0.2498 -0.3047 -0.2935
   96MOL   C13525025   3.008   3.372   7.484  0.1804  0.0857  0.6433
   96MOL   C13625026   3.214   3.217   7.481 -0.0635 -0.1575 -0.2234
   96MOL   H13725027   3.066   3.570   7.688 -1.4271  0.2388  1.6205
   96MOL   H13825028   3.086   3.465   7.823  2.9942 -0.2450  0.8879
   96MOL   H13925029   3.275   3.352   7.707 -0.6198  0.8572 -0.0159
   96MOL   H14025030   2.936   3.422   7.549 -0.1223  1.8136 -0.9783
   96MOL   H14125031   2.957   3.282   7.450  1.3226  0.2660 -1.6929
   96MOL   H14225032   3.024   3.431   7.393 -0.0173 -0.1623  0.4492
   96MOL   H14325033   3.237   3.260   7.384 -1.1271 -1.6859 -1.1676
   96MOL   H14425034   3.153   3.134   7.446 -1.6389  1.0075 -0.2777
   96MOL   C14525035   3.337   3.157   7.555 -0.0975  0.3443 -0.1414
   96MOL   C14625036   3.401   3.046   7.473 -0.1747  0.4227  0.2062
   96MOL   C14725037   3.391   2.909   7.484 -0.7500 -0.2046 -0.2740
   96MOL   C14825038   3.311   2.836   7.590 -0.0842  0.0587 -0.2879
   96MOL   C14925039   3.462   2.814   7.385  0.0897  0.5802  0.5172
   96MOL   H15025040   3.303   3.113   7.649 -2.3954  1.2506 -0.5282
   96MOL   H15125041   3.424   3.223   7.560  0.3324 -0.0337 -2.0947
   96MOL   H15225042   3.471   3.083   7.399 -1.5997  0.1041 -1.3314
   96MOL   H15325043   3.256   2.749   7.553 -0.7126 -0.5408  1.9697
   96MOL   H15425044   3.232   2.898   7.632  1.1076  0.1805  1.8417
   96MOL   H15525045   3.373   2.805   7.674 -1.2630 -0.3002  0.4579
   96MOL   H15625046   3.468   2.843   7.281  1.9412  1.8378  0.9446
   96MOL   H15725047   3.382   2.740   7.381 -1.4563  2.1989  0.8361
   96MOL   C15825048   3.604   2.769   7.432  0.5613 -0.0076  0.2395
   96MOL   C15925049   3.636   2.636   7.367  0.0439  0.2847 -0.6919
   96MOL   C16025050   3.753   2.590   7.322  0.0585 -0.1026  0.0397
   96MOL   C16125051   3.886   2.667   7.331  0.3620  0.2911  0.2372
   96MOL   C16225052   3.776   2.451   7.265  0.1251  0.2283 -0.7407
   96MOL   H16325053   3.616   2.761   7.540  0.7899 -0.6257  0.1692
   96MOL   H16425054   3.683   2.837   7.402  1.2081 -0.8887 -0.0742
   96MOL   H16525055   3.552   2.568   7.374  0.3514 -0.4361 -3.3861
   96MOL   H16625056   3.883   2.748   7.403  0.7503  0.1481  0.4119
   96MOL   H16725057   3.918   2.713   7.237 -0.6451  2.1646  0.7824
   96MOL   H16825058   3.962   2.594   7.359 -1.2264 -1.3670  0.3431
   96MOL   H16925059   3.692   2.383   7.277  1.6111 -1.5638 -0.1330
   96MOL   H17025060   3.854   2.404   7.325 -0.1434  1.4271  0.5837
   96MOL   C17125061   3.805   2.456   7.114  0.2004  0.4420  0.5118
   96MOL   C17225062   3.793   2.324   7.048 -0.0277  0.2859  0.1205
   96MOL   C17325063   3.688   2.278   6.976 -0.1299  0.0677  0.9207
   96MOL   C17425064   3.558   2.347   6.938  0.7008 -0.2144 -0.1443
   96MOL   C17525065   3.702   2.138   6.909  0.2635 -0.7652  0.5357
   96MOL   H17625066   3.907   2.494   7.126  0.6392 -0.9304  1.1692
   96MOL   H17725067   3.751   2.534   7.060  0.6290 -1.1655 -2.3489
   96MOL   H17825068   3.881   2.260   7.054  1.0133  1.1573 -3.9329
   96MOL   H17925069   3.542   2.328   6.832 -0.8190 -0.3519  0.1111
   96MOL   H18025070   3.562   2.454   6.961 -0.2131 -0.4829  1.2671
   96MOL   H18125071   3.467   2.311   6.984  0.3709  0.1182 -0.5341
   96MOL   H18225072   3.801   2.093   6.921  0.1500 -0.7272  1.6777
   96MOL   H18325073   3.679   2.144   6.803  1.6016  2.1296  0.3665
   96MOL   C18425074   3.605   2.035   6.965 -0.4175 -0.3560  0.9932
   96MOL   C18525075   3.625   1.895   6.907 -0.3008  0.1390  0.7233
   96MOL   C18625076   3.629   1.775   6.977  0.1811  0.5643  0.3862
   96MOL   C18725077   3.609   1.767   7.126 -0.1049  0.2736  0.2291
   96MOL   C18825078   3.658   1.646   6.915  0.7170  0.1281  0.0614
   96MOL   H18925079   3.504   2.059   6.934 -0.4505 -1.5503  0.1796
   96MOL   H19025080   3.601   2.042   7.074  0.2596  0.8524  0.9629
   96MOL   H19125081   3.645   1.885   6.801  1.8354  1.4196  0.9893
   96MOL   H19225082   3.570   1.671   7.160  1.5537  0.3567  2.5250
   96MOL   H19325083   3.555   1.845   7.180 -1.4281  0.2056 -0.9901
   96MOL   H19425084   3.709   1.777   7.170 -0.0940  0.9853  0.0508
   96MOL   H19525085   3.646   1.642   6.806  1.9187 -2.3572 -0.0140
   96MOL   H19625086   3.588   1.568   6.944  0.6563 -0.4968 -1.6943
   96MOL   C19725087   3.798   1.593   6.949  0.1563 -0.1638 -0.7477
   96MOL   C19825088   3.916   1.680   6.915 -0.3482 -0.2755  0.0703
   96MOL   C19925089   4.030   1.648   6.856  0.0939 -0.2823 -0.3965
   96MOL   C20025090   4.076   1.503   6.829 -0.0501  0.4213 -0.6360
   96MOL   C20125091   4.135   1.758   6.820 -0.1144  0.4563 -0.1279
   96MOL   H20225092   3.809   1.504   6.887  0.4354 -0.0695 -0.8378
   96MOL   H20325093   3.817   1.561   7.051 -2.2038  1.5768  0.2858
   96MOL   H20425094   3.895   1.786   6.917  0.2826 -0.1430 -0.3609
   96MOL   H20525095   4.179   1.487   6.861  0.1348 -0.4610 -1.6633
   96MOL   H20625096   4.069   1.491   6.721 -0.5388 -0.4099 -0.5140
   96MOL   H20725097   4.010   1.422   6.861  0.0238  0.8171  0.5607
   96MOL   H20825098   4.080   1.852   6.819 -2.9484 -1.1412 -0.3937
   96MOL   H20925099   4.177   1.750   6.719 -3.0046 -1.0743 -1.2625
   96MOL   C21025100   4.252   1.750   6.927 -0.1764  0.0414  0.1095
   96MOL   C21125101   4.329   1.875   6.913  0.5682  0.3474  0.1769
   96MOL   C21225102   4.451   1.891   6.870  0.3566 -0.5483  0.7180
   96MOL   C21325103   4.537   1.780   6.820 -0.2982  0.9341 -0.6456
   96MOL   C21425104   4.517   2.027   6.878 -0.1757  0.2735  0.5063
   96MOL   H21525105   4.316   1.665   6.905  0.2417  0.5291 -0.5967
   96MOL   H21625106   4.222   1.749   7.032  1.1863  1.4684  0.5262
   96MOL   H21725107   4.291   1.967   6.956  2.4818  0.6906  1.2001
   96MOL   H21825108   4.568   1.810   6.720 -3.6389  0.3831 -1.9280
   96MOL   H21925109   4.496   1.679   6.815  1.2937  0.3293 -1.4778
   96MOL   H22025110   4.615   1.758   6.893  0.7258  1.7048 -1.4924
   96MOL   H22125111   4.621   2.024   6.911  0.1294  2.8498 -0.1432
   96MOL   H22225112   4.481   2.084   6.963  0.6253  0.0125  1.0246
   96MOL   C22325113   4.504   2.105   6.744 -0.5731 -0.4568 -0.7702
   96MOL   C22425114   4.612   2.209   6.734 -0.3844  0.0212 -0.2001
   96MOL   C22525115   4.606   2.327   6.781  0.0064  0.5652  0.4393
   96MOL   C22625116   4.478   2.390   6.852 -0.6252  1.1321  0.5806
   96MOL   C22725117   4.722   2.420   6.766 -1.3205  0.0663  0.3794
   96MOL   H22825118   4.405   2.151   6.733  0.4206  2.2918  1.1853
   96MOL   H22925119   4.519   2.041   6.657 -0.9383 -3.2799  1.1906
   96MOL   H23025120   4.704   2.182   6.685  0.3058  0.8546  0.6158
   96MOL   H23125121   4.386   2.377   6.795 -1.3709  1.1702  1.7727
   96MOL   H23225122   4.495   2.495   6.874 -0.0508  0.9592  0.9796
   96MOL   H23325123   4.467   2.344   6.950  0.2412 -0.5416 -0.0950
   96MOL   H23425124   4.814   2.368   6.741 -2.2857  0.2955 -4.1506
   96MOL   H23525125   4.743   2.455   6.867  0.4148 -0.8365  0.3530
   96MOL   C23625126   4.701   2.536   6.662  0.0620  0.8896 -0.8136
   96MOL   C23725127   4.676   2.480   6.521 -0.4969 -0.3045 -0.1077
   96MOL   C23825128   4.580   2.529   6.445 -0.2829  0.4782 -0.8109
   96MOL   C23925129   4.490   2.644   6.489  0.9236 -0.2461 -0.1629
   96MOL   C24025130   4.550   2.472   6.302  0.1329  0.1437  0.0461
   96MOL   H24125131   4.781   2.609   6.669 -0.4536  1.2710  1.8636
   96MOL   H24225132   4.620   2.594   6.708 -0.6595 -1.3410  0.8344
   96MOL   H24325133   4.739   2.399   6.489 -1.0800 -0.4326 -0.9485
   96MOL   H24425134   4.419   2.613   6.566  1.6027 -1.4234  0.0054
   96MOL   H24525135   4.419   2.674   6.412  1.7751  0.3259 -0.7364
   96MOL   H24625136   4.543   2.737   6.508 -0.0681  0.2752  0.0828
   96MOL   H24725137   4.629   2.402   6.275  0.1083 -0.2415  0.9810
   96MOL   H24825138   4.555   2.547   6.222  0.3973  1.7876  1.5795
   96MOL   C24925139   4.413   2.408   6.299  0.1742 -0.0097 -0.6291
   96MOL   C25025140   4.366   2.373   6.166  0.0248 -0.3867  0.1377
   96MOL   C25125141   4.242   2.396   6.116  0.3970  0.4683  0.5269
   96MOL   C25225142   4.126   2.458   6.192  0.2300 -0.1513  0.7345
   96MOL   C25325143   4.215   2.360   5.967 -0.0109  0.0342  0.2810
   96MOL   H25425144   4.341   2.486   6.326 -0.2126  0.2489 -2.3178
   96MOL   H25525145   4.411   2.325   6.370  0.9797  0.5576  0.0715
   96MOL   H25625146   4.429   2.325   6.093  0.2254  1.9271 -1.2462
   96MOL   H25725147   4.117   2.562   6.163 -0.0879 -0.7242 -1.2977
   96MOL   H25825148   4.127   2.444   6.300 -0.5990 -0.2448  0.7307
   96MOL   H25925149   4.030   2.416   6.161  0.7771 -0.2140 -0.9046
   96MOL   H26025150   4.301   2.346   5.901 -0.5686  0.5768 -0.5769
   96MOL   H26125151   4.158   2.441   5.922 -1.4264 -1.1948 -0.1576
   96MOL   H26225152   4.156   2.268   5.964  0.3652 -0.1797 -1.0724
   97MOL     C125153   6.329   1.601   2.150 -0.3042 -1.0349 -0.1362
   97MOL     C225154   6.274   1.641   2.285 -0.3170  0.8044 -0.4012
   97MOL     C325155   6.141   1.655   2.311 -0.1598  0.1114 -0.1971
   97MOL     C425156   6.027   1.648   2.210 -0.2380 -0.1701  0.9742
   97MOL     C525157   6.104   1.674   2.456  0.5953 -0.6624  0.6446
   97MOL     H625158   6.369   1.688   2.097 -0.4711 -0.7504  0.1954
   97MOL     H725159   6.405   1.525   2.166 -0.5836 -1.4852 -0.9147
   97MOL     H825160   6.353   1.655   2.357  1.5598  0.0472 -2.2684
   97MOL     H925161   5.974   1.556   2.234 -2.5965  0.2934 -2.1408
   97MOL    H1025162   6.060   1.641   2.106 -0.1052  0.1690  0.9920
   97MOL    H1125163   5.956   1.728   2.228 -0.9878 -0.6943  0.3846
   97MOL    H1225164   6.047   1.767   2.457  2.3819  0.5772 -3.5904
   97MOL    H1325165   6.191   1.687   2.520  0.0500  2.1856  0.9062
   97MOL    H1425166   6.258   1.554   2.083 -1.3732 -0.7273  0.7589
   97MOL    C1525167   6.021   1.562   2.518 -0.2244  0.0449  0.1798
   97MOL    C1625168   5.988   1.600   2.664 -0.1549 -0.5050 -0.1161
   97MOL    C1725169   5.993   1.520   2.769 -0.3701 -0.2078  0.1594
   97MOL    C1825170   6.030   1.371   2.760  0.0156 -0.3191  0.6683
   97MOL    C1925171   5.983   1.573   2.914  0.1188 -0.1359 -0.2962
   97MOL    H2025172   6.072   1.466   2.507  0.6727  0.5175  0.1412
   97MOL    H2125173   5.932   1.557   2.455  0.0156  0.6433 -0.2157
   97MOL    H2225174   5.967   1.705   2.677  2.5380  0.0637 -0.1880
   97MOL    H2325175   5.983   1.328   2.671  1.2782  1.2754 -0.8084
   97MOL    H2425176   6.000   1.321   2.852 -0.6371  0.2644  0.7776
   97MOL    H2525177   6.138   1.360   2.750 -0.0097 -1.2798  1.4267
   97MOL    H2625178   5.982   1.682   2.920  0.1129 -0.2084  1.2301
   97MOL    H2725179   6.079   1.546   2.959  0.2971  1.8351  0.5535
   97MOL    C2825180   5.869   1.511   2.998  0.2642 -0.5579 -0.5565
   97MOL    C2925181   5.840   1.582   3.131 -0.3047 -0.1276 -0.2166
   97MOL    C3025182   5.794   1.527   3.242  0.2352 -0.4047  0.5047
   97MOL    C3125183   5.738   1.382   3.252 -1.1449 -0.4429  0.0462
   97MOL    C3225184   5.761   1.603   3.373 -0.6155  0.6101 -0.1011
   97MOL    H3325185   5.888   1.412   3.040 -2.1972  0.0517  2.2023
   97MOL    H3425186   5.777   1.512   2.939 -1.5315 -0.3912  2.1364
   97MOL    H3525187   5.872   1.686   3.131  1.7453 -0.7204  0.3025
   97MOL    H3625188   5.747   1.323   3.160  1.3078 -0.5233  0.2995
   97MOL    H3725189   5.632   1.378   3.277 -1.3083  1.1966 -0.3518
   97MOL    H3825190   5.797   1.323   3.322 -1.6819 -0.1379  0.7484
   97MOL    H3925191   5.654   1.598   3.389 -0.6735  1.1404 -0.2805
   97MOL    H4025192   5.788   1.707   3.350 -1.3151  0.4067 -1.9291
   97MOL    C4125193   5.832   1.554   3.501 -0.7778 -0.6556 -0.6331
   97MOL    C4225194   5.814   1.654   3.609 -0.0014 -0.5165  0.5982
   97MOL    C4325195   5.701   1.672   3.681  0.2587  0.2928  0.3253
   97MOL    C4425196   5.575   1.589   3.662  0.1087 -0.4930 -0.1755
   97MOL    C4525197   5.684   1.773   3.791 -0.5266 -0.2776 -0.3070
   97MOL    H4625198   5.937   1.544   3.476 -1.1795 -1.4376 -2.0408
   97MOL    H4725199   5.785   1.460   3.529 -1.2866 -0.2759 -0.1874
   97MOL    H4825200   5.892   1.723   3.637  0.6288 -0.6617 -0.7452
   97MOL    H4925201   5.485   1.650   3.665  0.1003 -0.5536  1.0751
   97MOL    H5025202   5.555   1.519   3.744 -1.3830 -0.1064 -0.1846
   97MOL    H5125203   5.568   1.543   3.563  1.1751  0.3842 -0.6550
   97MOL    H5225204   5.622   1.860   3.765  0.5294  0.4907 -0.3016
   97MOL    H5325205   5.786   1.802   3.818 -0.5172 -0.5666 -0.0313
   97MOL    C5425206   5.619   1.717   3.920 -0.5213 -0.4766 -0.5574
   97MOL    C5525207   5.617   1.813   4.034  0.2880 -0.5881 -0.4385
   97MOL    C5625208   5.512   1.894   4.071  0.0307 -0.2453  0.6712
   97MOL    C5725209   5.372   1.886   4.007  0.8229 -0.0907  0.7492
   97MOL    C5825210   5.528   2.007   4.176  0.1544  0.1330  0.1265
   97MOL    H5925211   5.690   1.637   3.939 -0.2231 -0.2373 -0.6593
   97MOL    H6025212   5.525   1.662   3.916  1.1152 -3.2976 -0.9392
   97MOL    H6125213   5.712   1.815   4.086  0.1836 -1.6919 -0.1894
   97MOL    H6225214   5.359   1.959   3.928 -2.0860  1.3623  2.4744
   97MOL    H6325215   5.286   1.898   4.073 -0.6229 -0.6629 -0.9792
   97MOL    H6425216   5.366   1.789   3.957  0.9824  1.1160 -1.7021
   97MOL    H6525217   5.506   2.108   4.142  0.9428  0.3968  0.3896
   97MOL    H6625218   5.631   2.007   4.212 -0.0902  2.1227  0.8825
   97MOL    C6725219   5.446   1.971   4.300  0.7711 -0.0625  0.4503
   97MOL    C6825220   5.491   2.025   4.429  0.1533  0.4875  0.6278
   97MOL    C6925221   5.529   1.969   4.541 -0.3668  0.0719 -0.7402
   97MOL    C7025222   5.515   1.817   4.563  0.4559 -0.2621  0.0717
   97MOL    C7125223   5.567   2.048   4.666  0.0818  0.0609  0.8262
   97MOL    H7225224   5.434   1.863   4.297 -2.1630  0.2128  0.7858
   97MOL    H7325225   5.346   2.015   4.292  1.1769  0.8391  0.3332
   97MOL    H7425226   5.505   2.132   4.428  0.9282  0.4117  2.3965
   97MOL    H7525227   5.576   1.786   4.648  1.6604 -0.2875 -0.7829
   97MOL    H7625228   5.549   1.767   4.472  2.6861  3.1421 -1.0757
   97MOL    H7725229   5.413   1.798   4.596  0.4914 -0.5466  0.0177
   97MOL    H7825230   5.669   2.045   4.706  0.5562  0.2461 -0.3733
   97MOL    H7925231   5.506   2.008   4.748  0.9584 -0.7130  1.1121
   97MOL    C8025232   5.532   2.199   4.663 -0.0700  0.0842  0.0440
   97MOL    C8125233   5.566   2.277   4.785 -0.2390  0.0952 -0.5457
   97MOL    C8225234   5.578   2.414   4.789 -0.0119  0.5242  0.1611
   97MOL    C8325235   5.553   2.507   4.666 -0.2292  0.2735 -0.1577
   97MOL    C8425236   5.627   2.488   4.909  0.9822  0.5631 -0.7177
   97MOL    H8525237   5.433   2.239   4.641  0.6399  0.8961 -1.8297
   97MOL    H8625238   5.600   2.237   4.585 -0.4664 -0.3142 -0.4983
   97MOL    H8725239   5.581   2.221   4.877  1.4465 -3.2392 -2.7636
   97MOL    H8825240   5.478   2.581   4.692  0.1178  0.4879  0.2542
   97MOL    H8925241   5.526   2.449   4.578 -1.2404  0.2324  0.1732
   97MOL    H9025242   5.634   2.577   4.645  0.8015 -0.6902  0.5225
   97MOL    H9125243   5.710   2.554   4.887 -0.1707  1.1310 -3.5308
   97MOL    H9225244   5.659   2.404   4.972  0.6260  1.9941  1.4209
   97MOL    C9325245   5.528   2.570   4.995 -0.2830 -0.4337 -0.2793
   97MOL    C9425246   5.432   2.471   5.066 -0.0640  0.4539  0.2152
   97MOL    C9525247   5.408   2.467   5.200  0.1342 -0.1745 -0.7330
   97MOL    C9625248   5.484   2.549   5.301  0.0404 -0.3178 -0.6235
   97MOL    C9725249   5.318   2.360   5.252  0.0920  0.7013  0.4007
   97MOL    H9825250   5.466   2.628   4.926  2.8705  4.0749  0.4710
   97MOL    H9925251   5.581   2.635   5.065 -0.5847  1.7879 -2.0603
   97MOL   H10025252   5.392   2.398   4.997  1.1274  1.0991 -1.1790
   97MOL   H10125253   5.450   2.529   5.403 -0.1595 -1.0286 -0.8277
   97MOL   H10225254   5.472   2.656   5.283  0.0197 -0.3762 -0.9558
   97MOL   H10325255   5.589   2.523   5.290  0.3903  1.0856 -0.6847
   97MOL   H10425256   5.240   2.339   5.179  0.9286 -2.3438  0.2976
   97MOL   H10525257   5.260   2.396   5.337 -1.9203 -1.9872  0.2417
   97MOL   C10625258   5.388   2.231   5.298 -0.3331 -0.5589  0.5562
   97MOL   C10725259   5.427   2.140   5.185 -0.0257  0.5511 -0.1473
   97MOL   C10825260   5.545   2.076   5.166  1.1667 -0.6950 -0.5317
   97MOL   C10925261   5.660   2.087   5.266  0.1694  0.3394  0.0518
   97MOL   C11025262   5.571   1.989   5.051 -0.2013 -0.2935  0.8443
   97MOL   H11125263   5.313   2.171   5.351  0.4277 -0.8697  1.2969
   97MOL   H11225264   5.469   2.248   5.369  1.1899 -0.8443 -1.0878
   97MOL   H11325265   5.359   2.142   5.101  1.3240  0.5440 -1.2653
   97MOL   H11425266   5.758   2.063   5.227  1.5584  4.0140  1.0124
   97MOL   H11525267   5.641   2.040   5.362  0.1360  1.3036  0.5220
   97MOL   H11625268   5.679   2.192   5.290  1.7261 -0.3825  2.1060
   97MOL   H11725269   5.660   2.018   4.995 -1.3988 -2.5351 -2.3821
   97MOL   H11825270   5.491   2.003   4.978 -1.1195 -2.3569  1.4019
   97MOL   C11925271   5.577   1.836   5.068 -0.4002 -0.6264 -0.7014
   97MOL   C12025272   5.615   1.755   4.942 -0.0634 -0.0198 -0.2310
   97MOL   C12125273   5.734   1.701   4.917 -0.3133  0.4686 -0.2969
   97MOL   C12225274   5.854   1.727   5.009  0.1111 -0.1138 -0.3431
   97MOL   C12325275   5.762   1.623   4.793 -0.3694  0.2796  0.1060
   97MOL   H12425276   5.485   1.787   5.101  0.7243 -2.2623  0.1060
   97MOL   H12525277   5.641   1.812   5.154 -2.4398 -0.2131  0.9655
   97MOL   H12625278   5.528   1.744   4.879 -0.2380  1.8447 -0.3326
   97MOL   H12725279   5.849   1.816   5.072 -0.9428 -1.0267  0.8944
   97MOL   H12825280   5.946   1.734   4.951  0.4591 -0.3898  0.1708
   97MOL   H12925281   5.891   1.645   5.071 -0.6904 -0.7345 -0.6701
   97MOL   H13025282   5.665   1.589   4.757  0.2439  0.8960 -2.2112
   97MOL   H13125283   5.815   1.529   4.810  0.2778  0.5440 -0.4419
   97MOL   C13225284   5.841   1.693   4.679  0.0994  0.0336  0.0274
   97MOL   C13325285   5.843   1.612   4.554 -0.4262  0.7527 -0.0904
   97MOL   C13425286   5.946   1.536   4.509 -0.0317 -0.2130  0.5579
   97MOL   C13525287   6.082   1.541   4.567 -0.0859 -0.2053  0.4632
   97MOL   C13625288   5.929   1.464   4.371 -0.3808  0.9172 -0.4586
   97MOL   H13725289   5.944   1.715   4.708  0.7762  0.2384 -2.4571
   97MOL   H13825290   5.792   1.786   4.651 -1.6225 -0.3956  1.5449
   97MOL   H13925291   5.746   1.611   4.507 -2.3298  2.2009  3.5539
   97MOL   H14025292   6.089   1.539   4.675  2.0954 -0.9570  0.3310
   97MOL   H14125293   6.129   1.627   4.519 -1.7981  0.9110  0.7303
   97MOL   H14225294   6.139   1.452   4.542 -1.0118 -0.9738  1.0566
   97MOL   H14325295   5.829   1.481   4.329 -2.2365 -0.4120  3.1901
   97MOL   H14425296   5.932   1.355   4.374  0.8947  0.9620  0.1432
   97MOL   C14525297   6.024   1.505   4.260 -0.1339 -0.5302 -0.0959
   97MOL   C14625298   6.019   1.651   4.228 -0.9042  0.2633 -0.4887
   97MOL   C14725299   6.129   1.738   4.223 -0.4343 -0.5602  0.2892
   97MOL   C14825300   6.271   1.688   4.220 -0.1365  0.0339  0.1057
   97MOL   C14925301   6.116   1.888   4.230 -0.1419 -0.2350 -0.0567
   97MOL   H15025302   6.002   1.444   4.172 -2.2371 -0.0976  0.1032
   97MOL   H15125303   6.118   1.465   4.298  0.6634  1.1446 -0.2809
   97MOL   H15225304   5.919   1.692   4.219 -0.3261  1.8635  0.1031
   97MOL   H15325305   6.288   1.645   4.319  1.5200 -1.3132 -0.7325
   97MOL   H15425306   6.346   1.766   4.220 -1.3723  1.2371  0.8528
   97MOL   H15525307   6.280   1.616   4.138 -0.1881  1.0111 -0.7558
   97MOL   H15625308   6.014   1.920   4.212  0.2685  0.4534 -1.2267
   97MOL   H15725309   6.175   1.925   4.146 -1.0625  0.2025 -0.5140
   97MOL   C15825310   6.162   1.938   4.366  0.3070 -0.4209 -0.2805
   97MOL   C15925311   6.128   2.088   4.395  0.5734 -0.4811  0.4999
   97MOL   C16025312   6.010   2.128   4.439  0.3014  0.0086 -0.0268
   97MOL   C16125313   5.901   2.037   4.481 -0.1487  0.1699  0.0664
   97MOL   C16225314   5.979   2.269   4.477  0.6293  0.7986  0.0993
   97MOL   H16325315   6.267   1.924   4.393  0.4257 -0.1945 -0.6126
   97MOL   H16425316   6.117   1.876   4.443 -0.2891  1.0646  0.5732
   97MOL   H16525317   6.204   2.162   4.374  1.0442 -0.5785  1.8601
   97MOL   H16625318   5.807   2.092   4.476 -0.2466  0.0846  0.8725
   97MOL   H16725319   5.924   2.009   4.584 -0.6229 -0.8084 -0.0858
   97MOL   H16825320   5.908   1.944   4.424  1.4976  0.6473 -0.5267
   97MOL   H16925321   5.964   2.276   4.584 -0.6875  1.2011 -0.1084
   97MOL   H17025322   5.885   2.301   4.433  0.0275 -0.9594  0.0582
   97MOL   C17125323   6.082   2.374   4.433 -0.3056  0.4772  0.3414
   97MOL   C17225324   6.055   2.516   4.482 -0.3846  0.4869 -0.4956
   97MOL   C17325325   6.033   2.621   4.398 -0.0755 -0.8344 -0.0306
   97MOL   C17425326   6.014   2.614   4.249 -0.3357 -0.2353  0.2415
   97MOL   C17525327   6.011   2.757   4.453 -0.4271 -0.7670 -0.3653
   97MOL   H17625328   6.102   2.385   4.326  0.9189 -1.4193  0.3603
   97MOL   H17725329   6.177   2.340   4.474  0.5347  0.0361 -1.9156
   97MOL   H17825330   6.070   2.521   4.589 -1.6114  0.7539 -0.3302
   97MOL   H17925331   5.980   2.523   4.200 -3.0104  0.3734  0.9275
   97MOL   H18025332   6.101   2.649   4.193 -0.4733 -0.8747 -0.3845
   97MOL   H18125333   5.934   2.683   4.226  0.4165 -0.2740 -2.6826
   97MOL   H18225334   5.997   2.745   4.561 -0.6559  1.6844 -0.0975
   97MOL   H18325335   5.921   2.804   4.415 -0.2844 -0.9277 -0.9085
   97MOL   C18425336   6.131   2.845   4.426  0.3944 -0.0570  0.0932
   97MOL   C18525337   6.138   2.961   4.523 -0.1873  0.3375  0.0751
   97MOL   C18625338   6.248   3.017   4.580 -0.2214 -0.0762  0.0351
   97MOL   C18725339   6.393   2.977   4.536  0.1488  0.0228  0.0391
   97MOL   C18825340   6.235   3.117   4.701 -0.4595  0.2039 -0.2921
   97MOL   H18925341   6.130   2.863   4.318 -2.2312 -1.1043 -0.0993
   97MOL   H19025342   6.219   2.785   4.448  0.1641 -1.0555 -1.6304
   97MOL   H19125343   6.041   2.991   4.558 -1.8344 -1.5095 -2.6788
   97MOL   H19225344   6.470   3.055   4.542  1.3676 -0.8867 -3.1314
   97MOL   H19325345   6.398   2.926   4.440  1.5484  2.1147 -1.0541
   97MOL   H19425346   6.432   2.907   4.610  1.9618  1.8302  0.8637
   97MOL   H19525347   6.307   3.081   4.774 -1.5267  1.7040  1.5548
   97MOL   H19625348   6.133   3.112   4.739 -0.3945  2.7493  0.2659
   97MOL   C19725349   6.271   3.270   4.672 -0.6103  0.3046 -0.4598
   97MOL   C19825350   6.249   3.352   4.796  0.0459  0.1088 -0.5082
   97MOL   C19925351   6.341   3.419   4.873 -0.0676  0.2125  0.0572
   97MOL   C20025352   6.485   3.397   4.837  0.1966 -0.5164  0.2420
   97MOL   C20125353   6.312   3.503   4.992  0.1099 -0.1578  1.3705
   97MOL   H20225354   6.206   3.317   4.597  2.3105  2.0041 -1.9954
   97MOL   H20325355   6.372   3.287   4.636 -0.1075  2.7355  1.8919
   97MOL   H20425356   6.146   3.366   4.824 -0.0051 -1.2441  0.0475
   97MOL   H20525357   6.546   3.443   4.915  1.2362 -0.4744 -0.5735
   97MOL   H20625358   6.506   3.449   4.743  2.6205  2.6817  2.4466
   97MOL   H20725359   6.510   3.291   4.834  0.7783 -0.3931  0.7301
   97MOL   H20825360   6.385   3.462   5.062  0.8879  0.4155  0.9136
   97MOL   H20925361   6.215   3.492   5.039  0.1809 -1.1188  1.2901
   97MOL   C21025362   6.326   3.656   4.974 -0.1487  0.2450 -0.1867
   97MOL   C21125363   6.267   3.742   5.088 -0.1951 -0.0857  0.2515
   97MOL   C21225364   6.324   3.754   5.211 -0.3014  0.3532 -0.1979
   97MOL   C21325365   6.460   3.687   5.246 -0.4222  0.1303  0.1116
   97MOL   C21425366   6.268   3.843   5.317  0.8985  0.4381 -0.6807
   97MOL   H21525367   6.281   3.684   4.878  0.0105 -0.2824 -0.4171
   97MOL   H21625368   6.426   3.692   4.950  0.1543 -0.6292 -0.2298
   97MOL   H21725369   6.171   3.791   5.076 -1.1560 -2.0254 -0.1276
   97MOL   H21825370   6.432   3.608   5.316  1.0411 -2.7745 -2.4927
   97MOL   H21925371   6.517   3.766   5.295 -1.1690  0.7636 -0.0416
   97MOL   H22025372   6.520   3.631   5.175  0.8681  0.1394  1.1727
   97MOL   H22125373   6.181   3.903   5.289 -0.6171 -0.4941  1.8132
   97MOL   H22225374   6.339   3.917   5.354 -0.3362  0.1118  2.5586
   97MOL   C22325375   6.229   3.770   5.440 -0.2712 -0.5968  0.3403
   97MOL   C22425376   6.104   3.689   5.431 -0.3081  0.0715  0.4476
   97MOL   C22525377   6.021   3.657   5.536 -0.8204 -0.4371 -0.3911
   97MOL   C22625378   6.047   3.697   5.681 -0.0087  0.4177  0.1493
   97MOL   C22725379   5.897   3.571   5.515  0.0329  1.1720 -0.4601
   97MOL   H22825380   6.211   3.842   5.520 -1.5065  0.2719 -0.6990
   97MOL   H22925381   6.310   3.708   5.478 -0.4994 -0.3577  1.2330
   97MOL   H23025382   6.075   3.665   5.330  0.8440  2.3940 -0.4650
   97MOL   H23125383   5.977   3.772   5.716 -0.5595  0.1157 -0.2983
   97MOL   H23225384   6.148   3.725   5.714  0.4622 -0.5044 -0.4961
   97MOL   H23325385   6.020   3.608   5.737 -0.6909  0.7806  0.3966
   97MOL   H23425386   5.892   3.481   5.576  0.4133  0.4939 -1.4205
   97MOL   H23525387   5.903   3.548   5.409 -3.1596  1.6329 -0.8010
   97MOL   C23625388   5.771   3.660   5.523  0.0880  0.5815 -0.4969
   97MOL   C23725389   5.742   3.736   5.391  0.4397 -0.4480  0.1808
   97MOL   C23825390   5.782   3.864   5.367  0.3071 -0.3867  0.6558
   97MOL   C23925391   5.846   3.960   5.469 -0.2700  0.3740  0.1694
   97MOL   C24025392   5.773   3.923   5.222 -0.1508 -0.4101  0.3126
   97MOL   H24125393   5.778   3.717   5.616 -1.0768 -0.9539  0.5532
   97MOL   H24225394   5.681   3.600   5.535 -0.6731  0.8868 -4.1194
   97MOL   H24325395   5.701   3.675   5.311 -2.7770  0.9924  0.6611
   97MOL   H24425396   5.952   3.936   5.467 -0.3876 -0.3060  1.7380
   97MOL   H24525397   5.813   3.944   5.572  0.9322 -0.0414  0.5032
   97MOL   H24625398   5.824   4.067   5.463  1.5635  0.7510 -0.0931
   97MOL   H24725399   5.737   4.026   5.229 -0.5869 -0.6047  0.9828
   97MOL   H24825400   5.699   3.857   5.175  0.2093 -0.7003  0.1516
   97MOL   C24925401   5.909   3.923   5.149  0.4926 -0.4454  0.5113
   97MOL   C25025402   5.902   3.968   5.004  0.1139 -0.5711 -0.4788
   97MOL   C25125403   5.979   4.053   4.939 -0.0508  0.5146 -0.0008
   97MOL   C25225404   6.084   4.133   5.010 -0.1188  0.0162  0.2110
   97MOL   C25325405   5.963   4.094   4.791 -0.1437 -0.4942  0.0907
   97MOL   H25425406   5.964   3.829   5.153  1.7941  0.2537 -0.3862
   97MOL   H25525407   5.959   4.000   5.208  0.3781 -0.1691  0.2461
   97MOL   H25625408   5.827   3.920   4.942  1.9628 -3.8364 -0.2954
   97MOL   H25725409   6.095   4.115   5.117  0.2874 -2.2387 -0.1837
   97MOL   H25825410   6.079   4.241   4.996  0.5400 -0.2367 -2.1667
   97MOL   H25925411   6.187   4.112   4.980 -0.1818 -0.4624  0.3243
   97MOL   H26025412   5.905   4.014   4.746 -0.2414 -0.6476  0.4798
   97MOL   H26125413   6.065   4.090   4.754  0.4550 -1.5051  1.7820
   97MOL   H26225414   5.931   4.198   4.786 -0.0244 -0.2770  2.9736
   98MOL     C125415   6.034   2.761   6.139  1.0434  0.5296  0.0463
   98MOL     C225416   6.023   2.912   6.128  0.8731 -0.4539  0.0418
   98MOL     C325417   5.916   2.992   6.154  0.3395 -0.5336 -0.2148
   98MOL     C425418   5.769   2.946   6.165  0.1640 -0.2177 -0.3885
   98MOL     C525419   5.942   3.139   6.158 -0.8355  0.7978 -0.7546
   98MOL     H625420   5.939   2.715   6.167  0.9228  0.0763 -1.0752
   98MOL     H725421   6.038   2.730   6.035 -1.3373 -0.3480  0.1685
   98MOL     H825422   6.118   2.962   6.117  0.9190 -0.0372  2.1256
   98MOL     H925423   5.721   2.975   6.071  1.7391  0.3803 -1.0146
   98MOL    H1025424   5.711   2.993   6.245  0.8228  0.7098 -0.4498
   98MOL    H1125425   5.762   2.838   6.171  0.6463 -0.2360 -0.1180
   98MOL    H1225426   6.049   3.159   6.170 -0.7979  1.5765 -2.3151
   98MOL    H1325427   5.903   3.177   6.252  0.3527 -1.2572  0.6154
   98MOL    H1425428   6.113   2.728   6.206  3.1058 -1.1870 -3.1216
   98MOL    C1525429   5.894   3.221   6.036  0.7007 -0.3871  0.0968
   98MOL    C1625430   5.969   3.176   5.912 -0.0123  0.9273  0.4001
   98MOL    C1725431   6.065   3.239   5.840  0.5308 -0.0112  0.6770
   98MOL    C1825432   6.113   3.380   5.879 -0.3121 -0.6296  0.2251
   98MOL    C1925433   6.136   3.177   5.723 -0.4708  0.0811 -0.4944
   98MOL    H2025434   5.920   3.321   6.072 -0.2243 -0.0493 -0.1785
   98MOL    H2125435   5.789   3.216   6.010  0.9630  2.4374 -1.7131
   98MOL    H2225436   5.945   3.077   5.877  3.4959  1.2483 -3.2450
   98MOL    H2325437   6.194   3.376   5.952 -0.2516 -0.2506  0.1821
   98MOL    H2425438   6.030   3.437   5.920 -1.6073 -0.9985 -1.7947
   98MOL    H2525439   6.151   3.437   5.794 -0.2208 -2.7539 -1.2037
   98MOL    H2625440   6.138   3.068   5.725  0.7483  0.0086 -3.1476
   98MOL    H2725441   6.243   3.197   5.729 -0.5149  0.1297  0.0834
   98MOL    C2825442   6.073   3.224   5.593 -0.4322 -0.2452  0.6883
   98MOL    C2925443   6.144   3.175   5.468  1.2625 -0.1279  0.2051
   98MOL    C3025444   6.213   3.255   5.386 -0.4737  0.4442 -0.0008
   98MOL    C3125445   6.242   3.402   5.394 -0.1209  0.0891 -0.6572
   98MOL    C3225446   6.274   3.193   5.250  0.0225  0.9707 -0.6414
   98MOL    H3325447   6.074   3.333   5.594  1.8192 -0.2070 -1.6782
   98MOL    H3425448   5.965   3.204   5.589 -0.2919 -0.9796  0.4387
   98MOL    H3525449   6.135   3.068   5.455 -0.9052  0.0684 -0.0893
   98MOL    H3625450   6.222   3.454   5.487  0.2111  0.4240 -0.7690
   98MOL    H3725451   6.190   3.432   5.303  1.7797  0.4063 -1.6689
   98MOL    H3825452   6.347   3.429   5.376 -0.0934  1.4949  1.4181
   98MOL    H3925453   6.247   3.250   5.161  3.4979  0.1480 -2.2871
   98MOL    H4025454   6.231   3.095   5.228  2.2849 -0.0860 -0.4615
   98MOL    C4125455   6.432   3.163   5.263 -0.1121 -0.1428  0.2991
   98MOL    C4225456   6.494   3.136   5.130 -0.9008 -0.6679  0.6585
   98MOL    C4325457   6.582   3.037   5.099  0.7999  0.9188 -0.3272
   98MOL    C4425458   6.628   2.931   5.191 -0.0341 -0.4126 -0.7489
   98MOL    C4525459   6.627   3.019   4.960 -0.0052  0.2523  0.7519
   98MOL    H4625460   6.449   3.083   5.336  1.9427  0.8011  0.9034
   98MOL    H4725461   6.467   3.260   5.299 -2.5243  1.5224 -1.7524
   98MOL    H4825462   6.465   3.203   5.050  0.7983 -0.4601  0.2001
   98MOL    H4925463   6.625   2.832   5.144 -0.2621 -1.6189  1.7421
   98MOL    H5025464   6.563   2.929   5.278  3.1395  1.0500  1.7590
   98MOL    H5125465   6.728   2.960   5.224 -0.1718 -0.5878 -0.1850
   98MOL    H5225466   6.569   3.081   4.892  0.9325 -0.0256 -0.3326
   98MOL    H5325467   6.603   2.915   4.937  2.4826 -0.5198  1.3829
   98MOL    C5425468   6.782   3.045   4.947 -0.2010 -0.0563  0.0906
   98MOL    C5525469   6.814   3.187   4.901  0.5221  0.1456 -0.5548
   98MOL    C5625470   6.841   3.235   4.776 -0.2359 -0.6097  0.4411
   98MOL    C5725471   6.856   3.149   4.650  0.6658  0.3152  0.0485
   98MOL    C5825472   6.842   3.381   4.751 -0.1018 -0.4435  0.3408
   98MOL    H5925473   6.816   2.971   4.874 -1.0036 -0.3443  0.0056
   98MOL    H6025474   6.846   3.030   5.033 -0.1146 -0.1442  0.0106
   98MOL    H6125475   6.798   3.256   4.983  1.2789 -1.0544  0.6220
   98MOL    H6225476   6.776   3.175   4.580  0.2663 -0.8619  0.0699
   98MOL    H6325477   6.834   3.046   4.677 -1.4860  1.1028  1.4938
   98MOL    H6425478   6.953   3.168   4.603  0.5231 -0.0011 -0.3780
   98MOL    H6525479   6.834   3.431   4.847  0.6424  1.8986 -0.7940
   98MOL    H6625480   6.767   3.407   4.676  0.3118  1.7519  0.6568
   98MOL    C6725481   6.980   3.423   4.686  0.1199  0.4826 -0.3088
   98MOL    C6825482   6.997   3.570   4.669  0.5674 -0.3909  0.8270
   98MOL    C6925483   7.116   3.633   4.649 -0.2822  0.3510  0.5409
   98MOL    C7025484   7.250   3.558   4.639 -0.4060  0.1244  0.4129
   98MOL    C7125485   7.135   3.782   4.641  0.4147 -0.2109  0.3560
   98MOL    H7225486   6.978   3.396   4.580  1.1286 -0.6216 -0.0528
   98MOL    H7325487   7.062   3.372   4.737  1.5875 -0.3439 -3.3642
   98MOL    H7425488   6.905   3.626   4.660  0.4916 -0.2346  2.3433
   98MOL    H7525489   7.310   3.585   4.726  0.2024 -0.9389  0.3268
   98MOL    H7625490   7.299   3.589   4.547  1.0302 -0.5750  0.9377
   98MOL    H7725491   7.230   3.451   4.639 -0.8150  0.1925 -0.7050
   98MOL    H7825492   7.033   3.816   4.624  0.9300  0.1872 -2.1604
   98MOL    H7925493   7.194   3.796   4.550  0.4305 -1.2525  0.1923
   98MOL    C8025494   7.188   3.850   4.769  0.5722  0.7046  0.4645
   98MOL    C8125495   7.112   3.810   4.894  0.6097  0.2006  0.2415
   98MOL    C8225496   7.149   3.727   4.994  0.3547 -1.0254 -0.7642
   98MOL    C8325497   7.287   3.664   5.016 -0.2222  0.8779  0.6078
   98MOL    C8425498   7.055   3.704   5.113  0.8587 -0.2568 -0.2932
   98MOL    H8525499   7.184   3.959   4.764 -1.7759  0.5799 -1.2947
   98MOL    H8625500   7.293   3.822   4.770 -0.1092 -2.0441 -1.4455
   98MOL    H8725501   7.019   3.864   4.900  0.7568  0.5899 -0.7940
   98MOL    H8825502   7.269   3.565   4.976  0.6044  0.3773  1.4570
   98MOL    H8925503   7.306   3.649   5.123 -0.5183 -0.2833  0.5043
   98MOL    H9025504   7.376   3.709   4.972  0.0569  0.2571  0.5385
   98MOL    H9125505   6.969   3.770   5.094  1.4009  0.6822  0.4794
   98MOL    H9225506   7.101   3.736   5.207 -0.9137  1.2679  0.0978
   98MOL    C9325507   6.999   3.559   5.118  0.8409 -0.7055  0.1437
   98MOL    C9425508   6.994   3.515   5.267 -0.6288  0.0698 -0.5037
   98MOL    C9525509   6.882   3.472   5.323  0.0125  0.4346  0.1295
   98MOL    C9625510   6.757   3.456   5.249 -0.8165 -0.4662  0.1755
   98MOL    C9725511   6.883   3.429   5.469 -0.3860 -0.5762 -0.5567
   98MOL    H9825512   7.057   3.497   5.050  1.6532 -0.2567  0.4147
   98MOL    H9925513   6.904   3.557   5.064  0.0267  0.1180  1.5098
   98MOL   H10025514   7.084   3.508   5.327  0.2788  0.4823 -1.7876
   98MOL   H10125515   6.673   3.434   5.314 -0.3494 -1.0665  0.5902
   98MOL   H10225516   6.767   3.382   5.169 -0.6460 -0.1651 -0.0851
   98MOL   H10325517   6.719   3.551   5.211  0.2706  0.1782  0.6645
   98MOL   H10425518   6.809   3.486   5.524  1.3503  0.9092  0.2817
   98MOL   H10525519   6.979   3.457   5.511 -0.5353 -0.6307 -0.1841
   98MOL   C10625520   6.867   3.275   5.478  0.3185  0.1104  0.4915
   98MOL   C10725521   6.842   3.228   5.618 -0.2456  0.2522  0.6122
   98MOL   C10825522   6.736   3.163   5.673 -0.3464  0.1294  0.0812
   98MOL   C10925523   6.616   3.131   5.598 -0.4398  0.7356  0.0323
   98MOL   C11025524   6.733   3.131   5.820 -0.4446  0.7069 -0.0958
   98MOL   H11125525   6.953   3.224   5.435  0.1908 -0.0567  0.4352
   98MOL   H11225526   6.785   3.252   5.410  0.7954  0.6780 -0.2819
   98MOL   H11325527   6.931   3.244   5.677 -0.1974  0.5986  0.4483
   98MOL   H11425528   6.549   3.216   5.585 -0.8572  0.2915 -0.7687
   98MOL   H11525529   6.574   3.036   5.629  0.9484  0.1561  0.1834
   98MOL   H11625530   6.641   3.094   5.498 -0.7692 -1.8930  0.8904
   98MOL   H11725531   6.838   3.119   5.847 -0.3844  0.0243 -0.6222
   98MOL   H11825532   6.687   3.033   5.834  0.8522 -0.2807 -2.4287
   98MOL   C11925533   6.656   3.246   5.898  0.3767 -0.0669  0.0075
   98MOL   C12025534   6.638   3.230   6.049 -0.2950  0.1648 -0.2245
   98MOL   C12125535   6.706   3.290   6.143 -0.1876 -0.0871 -0.4109
   98MOL   C12225536   6.837   3.374   6.113  0.5307  0.6694  0.3607
   98MOL   C12325537   6.677   3.278   6.287  0.0376 -0.4876  0.4103
   98MOL   H12425538   6.554   3.243   5.862  0.1205 -1.1575  0.8198
   98MOL   H12525539   6.686   3.348   5.875 -1.2770  0.0879 -1.5797
   98MOL   H12625540   6.559   3.165   6.083  1.9873 -2.3905  0.4062
   98MOL   H12725541   6.827   3.456   6.185 -0.8956 -0.1309  1.1077
   98MOL   H12825542   6.840   3.430   6.020 -0.0954 -0.9189 -0.6383
   98MOL   H12925543   6.927   3.314   6.126 -0.0183 -0.1611  0.3504
   98MOL   H13025544   6.588   3.218   6.306  0.6267 -2.4240 -2.4873
   98MOL   H13125545   6.657   3.376   6.328 -0.7748 -0.2886 -0.4549
   98MOL   C13225546   6.801   3.231   6.367  0.3330 -0.2475  0.0430
   98MOL   C13325547   6.782   3.226   6.524  0.0210 -0.3925  0.1374
   98MOL   C13425548   6.781   3.120   6.605  0.3032  0.3745  0.0258
   98MOL   C13525549   6.795   2.976   6.553  0.0293 -1.4444  0.1076
   98MOL   C13625550   6.778   3.119   6.754 -0.3012 -0.0434  0.0557
   98MOL   H13725551   6.883   3.301   6.351  2.4090 -2.6906 -0.3917
   98MOL   H13825552   6.835   3.136   6.326  3.2380  0.7010  0.0888
   98MOL   H13925553   6.755   3.324   6.562  0.6131 -0.0323 -0.3597
   98MOL   H14025554   6.772   2.960   6.447  1.2963  0.4798 -0.4945
   98MOL   H14125555   6.719   2.916   6.603 -1.3976  1.6152  1.7771
   98MOL   H14225556   6.898   2.945   6.564  0.8280  0.9311 -0.3483
   98MOL   H14325557   6.819   3.211   6.795  0.7577 -0.4342 -0.1346
   98MOL   H14425558   6.849   3.041   6.781 -1.8786 -2.3142 -2.1664
   98MOL   C14525559   6.632   3.108   6.805 -0.0970  0.0352 -0.2184
   98MOL   C14625560   6.531   3.204   6.743 -0.5530  0.3771 -0.8186
   98MOL   C14725561   6.514   3.337   6.755 -0.0120  0.1339  0.3030
   98MOL   C14825562   6.606   3.426   6.829 -0.0703  0.2650 -1.2258
   98MOL   C14925563   6.411   3.415   6.674  0.3728 -0.2186  0.5075
   98MOL   H15025564   6.625   3.128   6.912 -1.9676 -1.9121  0.0563
   98MOL   H15125565   6.594   3.006   6.796 -0.5493  0.0611  1.3542
   98MOL   H15225566   6.457   3.157   6.679 -3.4892  0.1383  2.5571
   98MOL   H15325567   6.671   3.365   6.892 -0.1758  0.4964 -0.8924
   98MOL   H15425568   6.549   3.494   6.893 -1.3518 -1.5316 -0.4263
   98MOL   H15525569   6.667   3.486   6.761  0.4257 -0.5109 -1.4775
   98MOL   H15625570   6.372   3.344   6.600  2.5514 -0.9570  0.0337
   98MOL   H15725571   6.452   3.490   6.606 -1.0692  0.4724  0.3733
   98MOL   C15825572   6.303   3.468   6.767 -0.6578 -0.0148 -0.0549
   98MOL   C15925573   6.185   3.532   6.693  0.6725  0.4903  0.3233
   98MOL   C16025574   6.106   3.632   6.730 -0.5337  0.1205 -0.3213
   98MOL   C16125575   6.110   3.697   6.868 -0.5750  0.2988 -0.3178
   98MOL   C16225576   5.994   3.684   6.647  0.3497  0.7786  0.8757
   98MOL   H16325577   6.357   3.549   6.816  1.6632 -0.1240 -2.3755
   98MOL   H16425578   6.268   3.398   6.844 -1.7902  0.8742  0.2669
   98MOL   H16525579   6.157   3.494   6.596  0.9054 -1.8829  1.1521
   98MOL   H16625580   6.046   3.657   6.947 -0.0611 -0.1910 -0.1366
   98MOL   H16725581   6.086   3.802   6.857  1.6826  1.0852  1.7799
   98MOL   H16825582   6.213   3.697   6.905 -1.1710  0.5776  1.4087
   98MOL   H16925583   6.009   3.642   6.548 -0.6126  2.0728  0.1523
   98MOL   H17025584   6.010   3.791   6.629  0.9176  0.6224  0.4513
   98MOL   C17125585   5.856   3.654   6.699  0.3900  0.7774 -0.0099
   98MOL   C17225586   5.757   3.742   6.632  0.5837  0.0912 -0.0695
   98MOL   C17325587   5.675   3.846   6.671  1.1948 -0.2181 -0.3920
   98MOL   C17425588   5.649   3.872   6.819 -0.0329 -0.1537 -0.0434
   98MOL   C17525589   5.575   3.902   6.569  0.6364 -0.7952  0.1197
   98MOL   H17625590   5.853   3.665   6.808 -3.0142 -0.4596  0.0957
   98MOL   H17725591   5.817   3.552   6.692  1.9455  0.0855  1.0502
   98MOL   H17825592   5.752   3.711   6.528  1.7883 -2.2175  0.5253
   98MOL   H17925593   5.565   3.814   6.858 -0.4504  0.8250  0.5188
   98MOL   H18025594   5.630   3.979   6.832  0.8910 -0.0655  0.6450
   98MOL   H18125595   5.743   3.850   6.869  1.0713  1.1178 -1.5124
   98MOL   H18225596   5.477   3.869   6.604  1.7329 -2.1273  2.0410
   98MOL   H18325597   5.589   3.852   6.473 -1.1427 -1.5548  0.2357
   98MOL   C18425598   5.580   4.058   6.540  0.0409 -0.9075  0.0336
   98MOL   C18525599   5.719   4.103   6.493 -0.4742 -0.5198  0.1765
   98MOL   C18625600   5.753   4.220   6.447  0.2969  0.0478 -0.1217
   98MOL   C18725601   5.656   4.332   6.455  0.7773  0.2436 -0.6085
   98MOL   C18825602   5.890   4.253   6.395 -0.7198 -0.5280 -0.4307
   98MOL   H18925603   5.542   4.112   6.627  1.3323 -1.9091  1.2519
   98MOL   H19025604   5.519   4.081   6.453 -2.8737 -0.2278  2.2097
   98MOL   H19125605   5.787   4.019   6.485  1.6640  1.3078 -1.4070
   98MOL   H19225606   5.668   4.386   6.361  2.1589  2.1213  0.6044
   98MOL   H19325607   5.662   4.401   6.540 -1.1580  1.1398 -1.1909
   98MOL   H19425608   5.552   4.299   6.459  0.7492  0.5226  1.6599
   98MOL   H19525609   5.864   4.302   6.301 -1.6277 -0.5162 -0.1834
   98MOL   H19625610   5.945   4.164   6.367 -0.4210 -0.2275 -0.8167
   98MOL   C19725611   5.980   4.348   6.481  0.1192 -0.0200 -1.0077
   98MOL   C19825612   6.121   4.353   6.432 -0.2527  0.4966  0.4695
   98MOL   C19925613   6.162   4.411   6.320 -0.0574  0.1241 -0.8672
   98MOL   C20025614   6.077   4.498   6.229  0.2749 -0.0703  0.0583
   98MOL   C20125615   6.311   4.411   6.286  0.1490  0.1468 -0.2294
   98MOL   H20225616   5.975   4.314   6.584  0.2117  1.7410 -0.4029
   98MOL   H20325617   5.926   4.443   6.484 -1.0899 -0.7257 -0.1167
   98MOL   H20425618   6.186   4.304   6.503  0.2552 -1.8687 -1.5588
   98MOL   H20525619   6.099   4.604   6.232 -0.5095  0.1086 -0.2273
   98MOL   H20625620   5.973   4.484   6.259  0.3644 -1.2786 -0.1648
   98MOL   H20725621   6.080   4.467   6.125 -0.1009  0.5205 -0.1289
   98MOL   H20825622   6.366   4.430   6.377  0.2281 -0.4262 -0.1570
   98MOL   H20925623   6.324   4.495   6.217  2.4860  0.5471  0.6589
   98MOL   C21025624   6.360   4.280   6.211  0.7868 -0.3239  0.0310
   98MOL   C21125625   6.369   4.300   6.059  0.4341  0.7383 -0.0233
   98MOL   C21225626   6.338   4.216   5.960 -0.2165 -0.1914 -0.0119
   98MOL   C21325627   6.281   4.072   5.978 -0.3177 -0.1584  0.3453
   98MOL   C21425628   6.357   4.260   5.817 -0.2070 -0.0641  0.4039
   98MOL   H21525629   6.297   4.195   6.237 -1.0664  0.3623 -2.0740
   98MOL   H21625630   6.458   4.258   6.254  1.5302 -1.4593 -2.1819
   98MOL   H21725631   6.411   4.397   6.035  0.3864  0.6219 -0.5886
   98MOL   H21825632   6.237   4.048   6.075 -0.5234 -0.6139  0.1411
   98MOL   H21925633   6.354   3.994   5.954  1.0902  1.5524 -1.1153
   98MOL   H22025634   6.190   4.060   5.920 -0.1218 -1.1071  0.2180
   98MOL   H22125635   6.400   4.176   5.762 -1.3734  0.0792 -0.7365
   98MOL   H22225636   6.423   4.346   5.806 -0.9795  0.3030 -1.5558
   98MOL   C22325637   6.229   4.299   5.745  0.6727 -0.3265 -0.8088
   98MOL   C22425638   6.257   4.343   5.603  0.1752 -0.1053 -0.1413
   98MOL   C22525639   6.210   4.291   5.486 -0.4508 -0.2391 -0.1239
   98MOL   C22625640   6.123   4.168   5.485  0.5691  0.1318  0.0071
   98MOL   C22725641   6.254   4.326   5.342 -0.0209  0.1005  0.0920
   98MOL   H22825642   6.180   4.382   5.798  0.9768  0.3501 -1.5747
   98MOL   H22925643   6.165   4.212   5.759 -0.0198  0.4980  1.4760
   98MOL   H23025644   6.301   4.442   5.602 -0.6936  0.3275  1.4457
   98MOL   H23125645   6.021   4.202   5.470 -0.1643 -0.9796  2.2572
   98MOL   H23225646   6.127   4.101   5.571  2.1758 -0.2789 -0.3680
   98MOL   H23325647   6.153   4.104   5.402 -1.3855 -0.1121 -0.5211
   98MOL   H23425648   6.277   4.231   5.294  1.6219 -0.4623  1.9606
   98MOL   H23525649   6.339   4.393   5.350 -0.4499  0.4660  1.7603
   98MOL   C23625650   6.140   4.395   5.272 -0.0197  0.0559  0.1737
   98MOL   C23725651   6.194   4.459   5.144  0.0025  0.2298  0.2663
   98MOL   C23825652   6.187   4.587   5.103 -0.4473 -0.1182 -0.8387
   98MOL   C23925653   6.116   4.699   5.179 -0.1788 -0.6991  0.2190
   98MOL   C24025654   6.245   4.619   4.967  0.6669 -0.2654  0.5591
   98MOL   H24125655   6.093   4.464   5.341 -0.1496  0.8916 -0.7379
   98MOL   H24225656   6.063   4.321   5.249 -0.0315  0.6869 -1.9531
   98MOL   H24325657   6.242   4.392   5.075 -0.7157 -0.0794  0.0587
   98MOL   H24425658   6.085   4.671   5.280  3.0160  3.3981  2.5095
   98MOL   H24525659   6.039   4.739   5.113  0.2502 -0.0279  0.1145
   98MOL   H24625660   6.191   4.776   5.198  2.5054 -2.3418 -3.1700
   98MOL   H24725661   6.162   4.647   4.902  3.0041 -0.1254 -2.4842
   98MOL   H24825662   6.279   4.526   4.920 -1.5955 -1.1331  0.5886
   98MOL   C24925663   6.352   4.723   4.963 -0.3075  0.0067  0.4294
   98MOL   C25025664   6.390   4.770   4.823  0.8479 -0.2001  0.1159
   98MOL   C25125665   6.504   4.737   4.753  0.0676 -0.6009 -0.2468
   98MOL   C25225666   6.617   4.653   4.808 -0.2906 -0.5797 -0.4900
   98MOL   C25325667   6.522   4.768   4.598 -0.0548 -0.1871  0.1337
   98MOL   H25425668   6.441   4.682   5.011 -0.0121  1.6608  1.3309
   98MOL   H25525669   6.335   4.816   5.017  1.1449  2.0869 -2.5410
   98MOL   H25625670   6.313   4.829   4.775  0.0192 -0.4857  1.0942
   98MOL   H25725671   6.591   4.552   4.776  1.6495 -0.5676 -2.1795
   98MOL   H25825672   6.623   4.648   4.916 -0.5656  0.7753 -0.4017
   98MOL   H25925673   6.714   4.674   4.764 -0.8900 -0.6087 -1.8792
   98MOL   H26025674   6.516   4.674   4.544  0.0975 -1.0649  1.6073
   98MOL   H26125675   6.616   4.823   4.588 -1.2925  2.0446  0.4480
   98MOL   H26225676   6.444   4.840   4.574 -0.3424  0.5696  3.0930
   99MOL     C125677   2.041   0.645   0.112 -0.1905  0.2906  0.3681
   99MOL     C225678   1.912   0.695   0.053 -0.1048 -0.0176 -0.1442
   99MOL     C325679   1.822   0.779   0.111  0.1294 -0.3190 -0.8511
   99MOL     C425680   1.850   0.848   0.240 -0.3119 -0.6391 -0.1236
   99MOL     C525681   1.693   0.823   0.051 -0.4851  0.1359  0.8430
   99MOL     H625682   2.114   0.629   0.033 -2.2885 -2.8869 -1.0002
   99MOL     H725683   2.089   0.714   0.182  0.8286  2.6876 -2.6093
   99MOL     H825684   1.884   0.648   7.843 -2.6711  0.4633  0.3516
   99MOL     H925685   1.764   0.840   0.308  1.0052 -4.5133  1.1899
   99MOL    H1025686   1.871   0.953   0.220  0.4288 -0.4098  1.7429
   99MOL    H1125687   1.930   0.810   0.303 -0.9247  0.6563  1.4988
   99MOL    H1225688   1.714   0.924   0.014 -0.1764  0.1102  0.9463
   99MOL    H1325689   1.615   0.825   0.127 -1.7997  1.7769 -0.4824
   99MOL    H1425690   2.033   0.552   0.167 -0.3988 -0.0220 -0.1905
   99MOL    C1525691   1.640   0.735   7.821  0.0210  0.0685 -0.1415
   99MOL    C1625692   1.500   0.783   7.778 -0.2558  0.2376  0.4084
   99MOL    C1725693   1.476   0.858   7.666 -0.3358  0.0271 -0.0861
   99MOL    C1825694   1.580   0.915   7.567  0.3468  0.9122 -0.7577
   99MOL    C1925695   1.333   0.908   7.641 -0.8988 -0.5542 -1.1597
   99MOL    H2025696   1.628   0.629   7.842  1.4888  0.1262  1.0890
   99MOL    H2125697   1.714   0.733   7.741 -1.0058  2.1981 -1.1971
   99MOL    H2225698   1.426   0.752   7.850  1.4620 -1.1124  1.6356
   99MOL    H2325699   1.587   1.022   7.586 -1.4476  0.6238  1.6689
   99MOL    H2425700   1.544   0.908   7.464  2.2895  1.6796 -1.5094
   99MOL    H2525701   1.680   0.872   7.560 -0.7945 -1.6779 -2.0845
   99MOL    H2625702   1.333   1.014   7.666 -1.5074 -0.8532  0.1969
   99MOL    H2725703   1.266   0.854   7.708 -1.6286 -0.1100 -1.5238
   99MOL    C2825704   1.272   0.869   7.511 -0.2055  0.2581 -0.5281
   99MOL    C2925705   1.127   0.925   7.501 -0.1443  0.3936 -0.0009
   99MOL    C3025706   1.013   0.859   7.490  0.4722 -0.2116 -0.0780
   99MOL    C3125707   1.001   0.711   7.502  0.2762  0.4326 -0.0201
   99MOL    C3225708   0.886   0.940   7.493  0.0649 -0.0443 -0.2361
   99MOL    H3325709   1.280   0.760   7.503 -0.0384  0.3318 -1.4326
   99MOL    H3425710   1.322   0.902   7.420  1.0747 -2.9757 -1.0808
   99MOL    H3525711   1.127   1.032   7.497 -0.2627  0.4351  1.0369
   99MOL    H3625712   1.093   0.655   7.489  0.5505  0.7798  0.4273
   99MOL    H3725713   0.927   0.690   7.424 -0.2471  2.3584 -0.0716
   99MOL    H3825714   0.969   0.688   7.604  2.2695 -3.1271 -0.1002
   99MOL    H3925715   0.824   0.895   7.415 -2.1352 -0.7542  1.8451
   99MOL    H4025716   0.905   1.045   7.473  0.2337 -0.0708 -0.2149
   99MOL    C4125717   0.799   0.929   7.618  0.1230  0.3586 -0.1093
   99MOL    C4225718   0.881   0.959   7.744  0.1467 -0.2222 -0.3383
   99MOL    C4325719   0.888   0.896   7.859 -0.3675  0.3606  0.3408
   99MOL    C4425720   0.815   0.772   0.015  0.3408 -0.3888 -0.1911
   99MOL    C4525721   0.968   0.964   0.089  0.3565 -0.1603 -0.1013
   99MOL    H4625722   0.759   0.828   7.631 -1.1055  0.6168 -1.6632
   99MOL    H4725723   0.727   1.011   7.611  2.3595  2.4011  0.2474
   99MOL    H4825724   0.933   1.053   7.733  0.7071 -0.6121 -1.1343
   99MOL    H4925725   0.733   0.784   0.085  0.7250 -0.8064  0.3346
   99MOL    H5025726   0.889   0.705   0.058  0.4543  0.7585  1.4419
   99MOL    H5125727   0.762   0.721   7.816  0.0918  1.8719 -1.4780
   99MOL    H5225728   0.924   0.927   0.182 -2.1188 -0.4070 -1.3152
   99MOL    H5325729   0.951   1.072   0.079  0.1723 -0.1228  0.5991
   99MOL    C5425730   1.116   0.942   0.089 -0.1414 -0.3363  0.5835
   99MOL    C5525731   1.184   1.011   0.197  0.3942 -0.1070  0.4566
   99MOL    C5625732   1.249   0.962   0.309  0.3643 -0.7188  0.4056
   99MOL    C5725733   1.282   0.815   0.334 -0.1746 -0.0207 -0.1072
   99MOL    C5825734   1.301   1.056   0.419 -0.2118  0.3711 -0.0515
   99MOL    H5925735   1.151   0.948   7.869 -2.0928 -0.7906 -0.1380
   99MOL    H6025736   1.131   0.835   0.105  2.2340 -0.3088 -1.2531
   99MOL    H6125737   1.168   1.117   0.190  1.5942  0.0217 -0.5460
   99MOL    H6225738   1.214   0.745   0.284  0.0626 -0.7881  0.6454
   99MOL    H6325739   1.278   0.785   0.438 -3.0589  0.3932 -0.0591
   99MOL    H6425740   1.384   0.793   0.303  0.0421 -1.1250  1.3539
   99MOL    H6525741   1.289   1.015   0.519  0.1947 -0.7113 -0.4326
   99MOL    H6625742   1.235   1.143   0.425 -0.4305  0.0560  2.9673
   99MOL    C6725743   1.445   1.096   0.397  0.1403 -0.1856  0.8060
   99MOL    C6825744   1.494   1.167   0.519 -0.3186 -0.0796  0.6003
   99MOL    C6925745   1.608   1.146   0.583 -0.2131  0.0855 -0.4378
   99MOL    C7025746   1.708   1.039   0.550  0.2822  0.7841 -0.2045
   99MOL    C7125747   1.646   1.235   0.703 -0.5345  0.5750  0.6305
   99MOL    H7225748   1.452   1.164   0.312  1.6480  0.4538  1.4042
   99MOL    H7325749   1.502   1.007   0.372  1.6659  0.3236  2.3568
   99MOL    H7425750   1.433   1.246   0.559 -2.2536 -2.1818  1.9005
   99MOL    H7525751   1.687   0.955   0.616  1.3151  1.0017  0.4156
   99MOL    H7625752   1.808   1.071   0.579  0.0333  0.9020  0.5373
   99MOL    H7725753   1.700   1.006   0.446 -1.9224 -3.7298  1.2789
   99MOL    H7825754   1.574   1.316   0.714 -1.0706  0.2638 -0.5289
   99MOL    H7925755   1.734   1.284   0.660 -1.3658  1.3815 -0.1672
   99MOL    C8025756   1.666   1.168   0.836 -0.5665  0.1424 -0.2541
   99MOL    C8125757   1.667   1.272   0.949 -0.0076 -0.0593 -0.8751
   99MOL    C8225758   1.775   1.327   1.009  0.2470 -0.2406  0.1162
   99MOL    C8325759   1.914   1.279   0.978 -0.6649  0.5084 -0.1509
   99MOL    C8425760   1.753   1.434   1.113  0.9539  0.2445  0.4742
   99MOL    H8525761   1.753   1.102   0.841 -1.0996 -0.5123  0.5090
   99MOL    H8625762   1.586   1.102   0.870 -0.0875 -0.8093 -0.9538
   99MOL    H8725763   1.577   1.331   0.956  0.2477  0.4724 -1.9531
   99MOL    H8825764   1.945   1.197   1.043 -0.2136  1.8095  1.3076
   99MOL    H8925765   1.988   1.359   0.992  1.0787 -1.5927  3.4825
   99MOL    H9025766   1.917   1.248   0.874 -0.7988 -0.1986  0.0549
   99MOL    H9125767   1.647   1.438   1.140  0.1320  0.3107 -2.5699
   99MOL    H9225768   1.775   1.536   1.082 -1.1100  0.2403 -1.1670
   99MOL    C9325769   1.817   1.404   1.246  0.3970  0.0395  0.4277
   99MOL    C9425770   1.811   1.524   1.342 -0.8484  0.2821 -0.3980
   99MOL    C9525771   1.741   1.528   1.460  0.9059  0.1751 -0.2691
   99MOL    C9625772   1.655   1.413   1.515 -0.0070 -0.3346 -0.3549
   99MOL    C9725773   1.745   1.646   1.544 -0.2833  0.3317  0.3055
   99MOL    H9825774   1.922   1.384   1.227  0.3070 -0.7499  0.7376
   99MOL    H9925775   1.771   1.320   1.300  1.3797 -0.1485  0.9810
   99MOL   H10025776   1.867   1.610   1.311 -0.0776  0.5224  1.6024
   99MOL   H10125777   1.629   1.343   1.435  2.2859 -2.4983  0.7150
   99MOL   H10225778   1.566   1.451   1.563  0.0024  0.2744 -0.8226
   99MOL   H10325779   1.714   1.360   1.591 -1.6660 -0.9619  0.5123
   99MOL   H10425780   1.713   1.621   1.645  0.9542 -0.7930  0.4355
   99MOL   H10525781   1.677   1.726   1.517 -0.6517  0.8092  2.5350
   99MOL   C10625782   1.880   1.716   1.565 -0.3687  0.0057  0.3031
   99MOL   C10725783   1.887   1.813   1.685 -0.3124 -0.6036 -0.3885
   99MOL   C10825784   1.920   1.950   1.677 -0.3108  0.8072 -0.7160
   99MOL   C10925785   1.938   2.033   1.552  0.3694 -0.5196  0.0643
   99MOL   C11025786   1.929   2.033   1.802  0.1060  0.4338  0.3809
   99MOL   H11125787   1.900   1.773   1.474 -0.7632  1.0050  0.8309
   99MOL   H11225788   1.960   1.643   1.574 -0.1389  0.2649  0.4060
   99MOL   H11325789   1.862   1.777   1.784 -0.5994  1.1496  0.1914
   99MOL   H11425790   1.874   2.120   1.547  0.4853 -0.2006  3.1166
   99MOL   H11525791   1.917   1.985   1.457  1.4070  1.6907 -1.3192
   99MOL   H11625792   2.039   2.074   1.546  0.0985 -0.0458 -1.4143
   99MOL   H11725793   1.933   1.971   1.891 -0.8144  0.0386  0.1411
   99MOL   H11825794   1.833   2.084   1.798  0.2659  0.6408 -0.9743
   99MOL   C11925795   2.040   2.144   1.810 -0.0812 -0.4988 -0.0699
   99MOL   C12025796   2.035   2.225   1.930  0.0372  0.5231  0.0770
   99MOL   C12125797   2.127   2.313   1.967  0.5257 -0.8509  0.3081
   99MOL   C12225798   2.242   2.355   1.882  0.0982 -0.7551 -0.2953
   99MOL   C12325799   2.120   2.365   2.110 -0.6526  0.3213  1.0680
   99MOL   H12425800   2.041   2.205   1.719 -3.4342 -1.4985 -0.8282
   99MOL   H12525801   2.137   2.093   1.815 -0.7817 -1.6890  1.8967
   99MOL   H12625802   1.942   2.211   1.982 -1.0608 -1.5312 -2.3545
   99MOL   H12725803   2.237   2.464   1.875 -1.5775 -0.6322  2.1251
   99MOL   H12825804   2.228   2.317   1.781 -2.5742 -0.4567 -0.0985
   99MOL   H12925805   2.341   2.324   1.913  0.6851  0.0724 -1.3331
   99MOL   H13025806   2.199   2.439   2.122 -0.1284  0.3983 -2.3617
   99MOL   H13125807   2.143   2.281   2.175 -1.8161 -1.0802 -0.2933
   99MOL   C13225808   1.988   2.413   2.158 -0.0293 -0.6576  0.4296
   99MOL   C13325809   1.994   2.476   2.301  0.9293 -0.0948 -0.6674
   99MOL   C13425810   2.008   2.600   2.342 -0.1905 -0.4393  0.2319
   99MOL   C13525811   2.010   2.723   2.252  0.2672  0.1669 -0.3707
   99MOL   C13625812   2.024   2.641   2.490  0.3450  0.0011 -0.3124
   99MOL   H13725813   1.910   2.337   2.156 -0.0039 -0.6698 -3.1667
   99MOL   H13825814   1.957   2.492   2.089  2.4530  0.3720  0.4505
   99MOL   H13925815   1.981   2.402   2.379 -2.0489 -0.9711 -1.9218
   99MOL   H14025816   1.931   2.793   2.279 -0.4539 -0.3552 -1.0669
   99MOL   H14125817   1.992   2.698   2.148  2.7493  2.0502 -1.2898
   99MOL   H14225818   2.109   2.764   2.238  0.4472  0.2573  1.1007
   99MOL   H14325819   2.033   2.564   2.566 -0.4003  0.3294  0.1094
   99MOL   H14425820   1.932   2.684   2.530  0.2379 -0.9953  0.5320
   99MOL   C14525821   2.139   2.743   2.516 -0.0973  0.4340  0.5478
   99MOL   C14625822   2.270   2.674   2.493  0.1347  0.2965 -0.2667
   99MOL   C14725823   2.358   2.633   2.595 -0.4155 -0.3225 -0.3374
   99MOL   C14825824   2.321   2.640   2.743 -0.5321 -0.3932  0.4435
   99MOL   C14925825   2.505   2.584   2.571  0.0023 -0.4481 -0.1331
   99MOL   H15025826   2.134   2.780   2.619  0.4651  0.1966  0.6654
   99MOL   H15125827   2.125   2.841   2.470 -1.4368 -0.5509 -1.1747
   99MOL   H15225828   2.318   2.672   2.396 -0.3180  0.2623 -0.4912
   99MOL   H15325829   2.373   2.721   2.795  0.2758  0.4270 -1.5756
   99MOL   H15425830   2.356   2.552   2.797  0.7249  0.2317  0.6560
   99MOL   H15525831   2.213   2.643   2.759 -0.5847 -2.3428  0.5887
   99MOL   H15625832   2.537   2.534   2.662  0.3576  2.2028  1.2700
   99MOL   H15725833   2.572   2.669   2.553 -0.2139 -0.4632 -1.0417
   99MOL   C15825834   2.533   2.499   2.445 -0.6439 -0.6162  0.0566
   99MOL   C15925835   2.469   2.367   2.442 -0.0328 -0.6036  0.6684
   99MOL   C16025836   2.532   2.253   2.481  0.5755  1.3247 -0.3169
   99MOL   C16125837   2.668   2.247   2.546  1.0867  0.5708 -0.8010
   99MOL   C16225838   2.464   2.117   2.462 -0.4505  0.9490  0.6659
   99MOL   H16325839   2.639   2.494   2.419 -0.2106 -0.0356  1.6384
   99MOL   H16425840   2.500   2.562   2.362 -0.4202  0.0426  0.4628
   99MOL   H16525841   2.368   2.363   2.405  0.4922 -1.4733 -0.7081
   99MOL   H16625842   2.705   2.348   2.568 -2.0604  1.2307  1.8171
   99MOL   H16725843   2.738   2.200   2.477  0.9942 -0.8767  0.0817
   99MOL   H16825844   2.653   2.202   2.644  0.3928 -0.1409 -1.2336
   99MOL   H16925845   2.358   2.140   2.464 -0.6839  0.0169 -0.5916
   99MOL   H17025846   2.476   2.066   2.558  2.5378 -0.3505 -0.3274
   99MOL   C17125847   2.487   2.043   2.330  0.2080  0.4422 -0.4887
   99MOL   C17225848   2.384   1.935   2.313 -0.0485  0.0849 -0.5468
   99MOL   C17325849   2.304   1.920   2.205  0.5550  0.3265 -0.5151
   99MOL   C17425850   2.304   1.997   2.077 -0.1867 -0.4732 -0.2462
   99MOL   C17525851   2.199   1.808   2.206 -0.0951  0.3020 -0.6232
   99MOL   H17625852   2.586   1.999   2.335  0.0106  0.1108  0.5881
   99MOL   H17725853   2.487   2.112   2.246 -1.6691  0.2882 -0.6249
   99MOL   H17825854   2.376   1.870   2.400  1.0650 -0.2148 -0.6604
   99MOL   H17925855   2.390   1.944   2.035  1.4485  0.0006  2.3684
   99MOL   H18025856   2.330   2.103   2.091 -0.9335 -0.5285  1.6943
   99MOL   H18125857   2.214   1.981   2.019  1.7190 -2.2812 -2.8360
   99MOL   H18225858   2.112   1.837   2.147 -1.3169 -1.2515  0.3596
   99MOL   H18325859   2.156   1.815   2.306 -0.5536  3.1559 -0.9796
   99MOL   C18425860   2.262   1.671   2.166 -0.1608  0.3809  0.0584
   99MOL   C18525861   2.351   1.681   2.039  0.1667  0.1042  0.0444
   99MOL   C18625862   2.306   1.674   1.912 -0.1705  0.3316 -0.2054
   99MOL   C18725863   2.158   1.649   1.869  0.0946  0.0631 -0.0720
   99MOL   C18825864   2.410   1.695   1.794 -0.0433  0.1294  0.1499
   99MOL   H18925865   2.178   1.604   2.147 -0.3980  0.1614  1.7652
   99MOL   H19025866   2.311   1.629   2.254 -1.5676 -2.5260 -0.4963
   99MOL   H19125867   2.454   1.709   2.055  0.0310  0.5733  0.1303
   99MOL   H19225868   2.127   1.704   1.780  2.8563  1.2145 -0.3848
   99MOL   H19325869   2.086   1.671   1.947 -2.1024 -0.9176 -1.7608
   99MOL   H19425870   2.148   1.543   1.844  3.5626 -0.2950 -0.2255
   99MOL   H19525871   2.512   1.704   1.830 -0.6451 -1.3501  2.3136
   99MOL   H19625872   2.395   1.785   1.734  0.9169  0.1416 -0.0809
   99MOL   C19725873   2.394   1.584   1.681 -0.1851  0.2052 -0.1258
   99MOL   C19825874   2.510   1.592   1.579  0.0983  0.3364  0.3837
   99MOL   C19925875   2.504   1.630   1.449 -0.5099  0.6035  0.1528
   99MOL   C20025876   2.372   1.668   1.379 -0.5197 -0.2699  0.0416
   99MOL   C20125877   2.622   1.632   1.354 -0.5922  0.3075  0.3577
   99MOL   H20225878   2.297   1.579   1.632  0.1028 -1.5506 -0.5482
   99MOL   H20325879   2.401   1.486   1.729 -1.8904 -0.5001 -1.2947
   99MOL   H20425880   2.608   1.568   1.617  0.8922  1.4990 -0.8788
   99MOL   H20525881   2.283   1.636   1.434 -0.7243 -1.5728 -1.0263
   99MOL   H20625882   2.380   1.618   1.283 -1.2841 -0.6777  0.1832
   99MOL   H20725883   2.366   1.777   1.372 -0.4256 -0.3368 -1.0983
   99MOL   H20825884   2.594   1.578   1.264 -0.2485  0.3490  0.2278
   99MOL   H20925885   2.708   1.588   1.405  0.0633  1.5176  0.3069
   99MOL   C21025886   2.672   1.777   1.321  0.1453  0.0661  0.1678
   99MOL   C21125887   2.808   1.774   1.244  0.2400 -0.1213  0.2123
   99MOL   C21225888   2.816   1.752   1.107 -0.2919 -0.0289 -0.2042
   99MOL   C21325889   2.686   1.716   1.031 -0.6138  0.0686  0.2833
   99MOL   C21425890   2.951   1.748   1.045  0.6895  0.0054  0.0105
   99MOL   H21525891   2.691   1.836   1.411 -1.7865  2.1253 -0.7608
   99MOL   H21625892   2.602   1.834   1.261 -0.1695 -1.7150 -1.2020
   99MOL   H21725893   2.898   1.792   1.301 -0.4610  0.7915  1.0354
   99MOL   H21825894   2.595   1.757   1.075 -0.7548 -0.4425  0.4705
   99MOL   H21925895   2.675   1.608   1.027  1.0687 -0.0558 -2.0873
   99MOL   H22025896   2.691   1.752   0.929  0.1696  0.8920  0.5979
   99MOL   H22125897   3.024   1.800   1.108  0.5350  3.1076 -2.2411
   99MOL   H22225898   2.939   1.797   0.948 -3.0284 -0.4420  0.1869
   99MOL   C22325899   3.004   1.608   1.019  0.0885  0.2587  0.2041
   99MOL   C22425900   3.129   1.618   0.929 -0.7514  0.2602  0.0720
   99MOL   C22525901   3.205   1.508   0.909 -0.2590 -0.4446  0.1121
   99MOL   C22625902   3.179   1.370   0.968 -0.4027  0.7803 -0.0123
   99MOL   C22725903   3.330   1.524   0.833  0.4025  0.4173 -0.2141
   99MOL   H22825904   2.917   1.558   0.977 -0.3070 -0.5250  1.9323
   99MOL   H22925905   3.027   1.557   1.113  0.2135 -0.4571 -0.2094
   99MOL   H23025906   3.177   1.710   0.898  1.2867 -1.4754 -2.1655
   99MOL   H23125907   3.254   1.341   1.042  1.2980  2.0569 -1.1865
   99MOL   H23225908   3.194   1.300   0.886  2.9482  1.0112  0.3042
   99MOL   H23325909   3.078   1.366   1.008 -0.8074  0.7366 -1.0236
   99MOL   H23425910   3.408   1.457   0.870 -0.2890 -0.4205 -0.2661
   99MOL   H23525911   3.380   1.621   0.845  0.2084  0.5896 -0.7963
   99MOL   C23625912   3.299   1.488   0.689 -0.6739  0.4230  0.3748
   99MOL   C23725913   3.416   1.429   0.616  0.2291  0.4367 -0.0139
   99MOL   C23825914   3.454   1.450   0.486  0.1398  0.2512 -0.7999
   99MOL   C23925915   3.382   1.549   0.404  0.1836  0.0778  0.2372
   99MOL   C24025916   3.582   1.397   0.424 -0.1462 -0.4059 -0.5410
   99MOL   H24125917   3.279   1.578   0.631 -0.3623  0.7891  0.8189
   99MOL   H24225918   3.216   1.421   0.671 -1.4018  1.4406 -0.0725
   99MOL   H24325919   3.476   1.367   0.682 -1.4109  1.6052  2.6653
   99MOL   H24425920   3.318   1.491   0.337  1.7277 -0.6962 -0.5761
   99MOL   H24525921   3.457   1.587   0.335 -1.4535  0.0339 -1.6315
   99MOL   H24625922   3.337   1.639   0.447  0.2822  0.1762  0.1351
   99MOL   H24725923   3.579   1.367   0.319 -0.7165  1.5365 -1.0939
   99MOL   H24825924   3.606   1.308   0.483  0.7432  1.6775  2.3617
   99MOL   C24925925   3.698   1.501   0.432 -0.1951  0.3747  0.2401
   99MOL   C25025926   3.752   1.524   0.571 -0.0846 -0.0538  0.0246
   99MOL   C25125927   3.733   1.631   0.650 -0.3346 -0.5397  0.3751
   99MOL   C25225928   3.650   1.753   0.611 -0.3003 -0.4108 -0.0525
   99MOL   C25325929   3.780   1.641   0.791 -0.0601  0.6068 -0.4841
   99MOL   H25425930   3.682   1.597   0.384 -0.9680 -0.3494 -0.9716
   99MOL   H25525931   3.782   1.461   0.375 -1.9618  0.8925 -2.8369
   99MOL   H25625932   3.809   1.441   0.612  0.6120  0.0663 -0.7019
   99MOL   H25725933   3.555   1.760   0.663 -0.1986  1.1822 -0.0446
   99MOL   H25825934   3.616   1.762   0.507  0.6187  0.0979 -0.3128
   99MOL   H25925935   3.709   1.843   0.625 -1.6335  0.1903  1.8480
   99MOL   H26025936   3.820   1.550   0.835 -1.9012 -0.2411 -0.5491
   99MOL   H26125937   3.691   1.663   0.851 -1.2768  1.1780 -2.4636
   99MOL   H26225938   3.859   1.717   0.792  2.5408 -1.9916 -0.9299
  100MOL     C125939   7.547   1.252   4.384 -0.0234  0.1677 -0.5255
  100MOL     C225940   7.560   1.175   4.253  0.0494  0.1870 -0.0805
  100MOL     C325941   7.670   1.138   4.189  0.1534 -0.4790  0.0304
  100MOL     C425942   7.808   1.171   4.250  0.1837 -0.3258 -0.4128
  100MOL     C525943   7.678   1.074   4.049 -0.4434 -0.5232  0.0835
  100MOL     H625944   7.461   1.219   4.442  0.2180 -0.5121 -0.5494
  100MOL     H725945   7.635   1.229   4.444  0.4694  2.5203 -0.2896
  100MOL     H825946   7.462   1.160   4.211 -1.3710  0.7388  2.9449
  100MOL     H925947   7.879   1.195   4.171 -0.8276  1.2242 -0.8687
  100MOL    H1025948   7.846   1.082   4.301 -1.9379 -2.0283 -1.6960
  100MOL    H1125949   7.810   1.259   4.314  0.1765 -0.5923 -0.0468
  100MOL    H1225950   7.734   1.134   3.976  1.6580 -0.4062  1.7288
  100MOL    H1325951   7.579   1.066   4.004 -1.4133  2.9801  1.4041
  100MOL    H1425952   7.557   1.360   4.371  1.8766 -0.1559 -1.8250
  100MOL    C1525953   7.737   0.928   4.060  0.4611 -0.2778  0.0444
  100MOL    C1625954   7.766   0.853   3.925 -0.1746  1.1184  0.1266
  100MOL    C1725955   7.753   0.727   3.899  0.4919 -0.5774  0.5343
  100MOL    C1825956   7.698   0.625   3.995 -0.1139 -0.1900 -0.0099
  100MOL    C1925957   7.803   0.670   3.768  0.1410 -0.0722 -0.6070
  100MOL    H2025958   7.684   0.859   4.126  3.1341 -0.6320  1.8950
  100MOL    H2125959   7.835   0.934   4.108 -1.0182 -0.5486  3.2054
  100MOL    H2225960   7.808   0.922   3.854  0.4021  0.8584  0.2115
  100MOL    H2325961   7.598   0.600   3.957  0.4113  0.6889 -2.0081
  100MOL    H2425962   7.701   0.652   4.101  1.0051 -3.5682  0.8680
  100MOL    H2525963   7.754   0.533   4.006 -1.7340 -1.0487  1.3625
  100MOL    H2625964   7.882   0.600   3.798  0.9912  2.1043  2.4391
  100MOL    H2725965   7.859   0.738   3.704  1.5080  0.8873  1.5581
  100MOL    C2825966   7.701   0.589   3.683  0.1989  0.5432  0.2100
  100MOL    C2925967   7.761   0.552   3.546 -0.3128 -0.4792 -0.6502
  100MOL    C3025968   7.735   0.610   3.426  0.3101 -0.4235  0.1817
  100MOL    C3125969   7.629   0.721   3.402 -0.3584 -0.0896  1.0877
  100MOL    C3225970   7.821   0.583   3.301 -0.3684  0.2475 -0.2165
  100MOL    H3325971   7.614   0.655   3.679  0.1386  0.6166  2.3516
  100MOL    H3425972   7.675   0.495   3.731 -0.2162  0.8906  0.6612
  100MOL    H3525973   7.844   0.482   3.550  0.5385  0.5872  0.4633
  100MOL    H3625974   7.563   0.740   3.487  0.1588 -1.3098  1.7734
  100MOL    H3725975   7.564   0.681   3.324  0.3237 -0.0302  0.4955
  100MOL    H3825976   7.686   0.807   3.369  0.2929 -1.2958 -0.9981
  100MOL    H3925977   0.032   0.627   3.337 -1.2354  0.3943  1.9553
  100MOL    H4025978   7.786   0.630   3.210  0.5630  0.8644 -0.2563
  100MOL    C4125979   7.836   0.424   3.279  0.3314  0.2984  0.5692
  100MOL    C4225980   0.017   0.383   3.142  0.4294  0.3941  0.0060
  100MOL    C4325981   0.141   0.340   3.116  0.4672 -0.1270  1.0311
  100MOL    C4425982   0.245   0.327   3.223  0.4825  0.2112 -0.2737
  100MOL    C4525983   0.196   0.349   2.971 -1.0816 -1.1496 -0.0750
  100MOL    H4625984   7.741   0.371   3.276  1.1880 -1.1936 -0.4559
  100MOL    H4725985   0.009   0.388   3.365 -0.4270 -1.2602  0.4294
  100MOL    H4825986   7.835   0.405   3.059 -1.4330  0.5672  1.4746
  100MOL    H4925987   0.208   0.292   3.320  0.8622  2.9789  0.9291
  100MOL    H5025988   0.293   0.424   3.234 -0.3883  0.9517 -2.7163
  100MOL    H5125989   0.316   0.256   3.180 -1.0351 -1.3829 -0.2201
  100MOL    H5225990   0.134   0.281   2.913 -3.0851  1.8696 -1.6117
  100MOL    H5325991   0.300   0.320   2.956 -0.9012 -1.2105  1.2831
  100MOL    C5425992   0.186   0.495   2.908 -0.9787  0.1912  0.0657
  100MOL    C5525993   0.271   0.597   2.977 -0.3285  0.0949  0.6283
  100MOL    C5625994   0.250   0.729   2.999  0.5614  0.0438  0.1016
  100MOL    C5725995   0.119   0.797   2.948  0.2278  0.2759  0.5298
  100MOL    C5825996   0.349   0.827   3.056  0.1751 -0.3812 -0.5538
  100MOL    H5925997   0.080   0.521   2.903 -0.9617  0.3443  0.4381
  100MOL    H6025998   0.218   0.494   2.804 -0.0964 -1.8023  0.3227
  100MOL    H6125999   0.370   0.556   2.996  0.4724  2.9559  3.0481
  100MOL    H6226000   0.040   0.744   2.895  0.5293  1.3863 -1.1003
  100MOL    H6326001   0.155   0.876   2.882 -0.2690 -0.6405 -0.8652
  100MOL    H6426002   0.063   0.851   3.024 -1.7024 -1.3929  0.3299
  100MOL    H6526003   0.344   0.929   3.019 -1.4790  0.9315  3.0280
  100MOL    H6626004   0.453   0.797   3.050 -0.1489 -1.4789 -0.8175
  100MOL    C6726005   0.310   0.845   3.205 -0.8799  0.1513  0.4034
  100MOL    C6826006   0.339   0.722   3.296 -0.0248 -0.0725  0.2674
  100MOL    C6926007   0.291   0.722   3.425 -1.0032 -0.4111  0.1357
  100MOL    C7026008   0.208   0.842   3.482  0.6073  0.4788 -0.1125
  100MOL    C7126009   0.286   0.603   3.515  0.0972 -0.1254  0.3667
  100MOL    H7226010   0.213   0.890   3.224 -0.9054 -0.4611  1.7638
  100MOL    H7326011   0.378   0.924   3.237 -0.5860 -1.0334  2.8342
  100MOL    H7426012   0.390   0.641   3.247  0.4668 -0.8575  2.0444
  100MOL    H7526013   0.240   0.867   3.583 -0.9613 -0.4801  0.6469
  100MOL    H7626014   0.101   0.821   3.489  0.9871 -1.9371 -0.8904
  100MOL    H7726015   0.231   0.933   3.427 -0.6992 -0.0233 -1.5085
  100MOL    H7826016   0.302   0.525   3.441 -2.5794 -0.1665 -0.2212
  100MOL    H7926017   0.184   0.580   3.545  0.8467 -1.4009  2.0319
  100MOL    C8026018   0.388   0.616   3.625  0.0538 -0.1315 -0.6168
  100MOL    C8126019   0.345   0.534   3.750 -0.7120 -0.2188  0.3579
  100MOL    C8226020   0.404   0.433   3.810 -0.2047  0.6363 -0.2562
  100MOL    C8326021   0.539   0.379   3.769 -0.0156  0.1558 -0.3218
  100MOL    C8426022   0.331   0.360   3.925  0.1466  0.1726  0.9066
  100MOL    H8526023   0.403   0.720   3.654 -1.5448 -0.0850  0.0831
  100MOL    H8626024   0.486   0.584   3.588  1.2229  2.6405 -0.0052
  100MOL    H8726025   0.243   0.559   3.777 -0.7528 -0.8849  0.8257
  100MOL    H8826026   0.607   0.367   3.853 -1.4779 -0.1193  0.8466
  100MOL    H8926027   0.585   0.438   3.690  1.1658 -0.3139  0.0020
  100MOL    H9026028   0.515   0.281   3.726 -1.1166  0.7716 -1.1377
  100MOL    H9126029   0.230   0.397   3.948 -0.9380 -1.7068 -0.7462
  100MOL    H9226030   0.392   0.373   4.015 -0.7706 -1.2060  1.7449
  100MOL    C9326031   0.312   0.215   3.892 -0.0625  0.0494  0.6559
  100MOL    C9426032   0.225   0.126   3.983 -0.0107  0.2133  0.6015
  100MOL    C9526033   0.091   0.124   3.991 -0.7394  0.3726  0.4072
  100MOL    C9626034   7.875   0.207   3.913 -0.8873  0.1315  0.0951
  100MOL    C9726035   0.025   0.046   4.102 -0.0237 -0.1023 -0.0622
  100MOL    H9826036   0.406   0.161   3.883 -0.4772 -0.6356  0.3225
  100MOL    H9926037   0.258   0.210   3.797 -0.8775 -1.5264  1.1745
  100MOL   H10026038   0.284   0.074   4.057 -0.9355 -1.1684  0.3743
  100MOL   H10126039   7.778   0.160   3.896 -1.4999  1.0627  0.9323
  100MOL   H10226040   0.044   0.225   3.819  0.3617  1.1499  0.9539
  100MOL   H10326041   7.869   0.302   3.965  0.4118 -0.7223  1.8679
  100MOL   H10426042   7.826   0.111   4.132 -1.4086 -0.7121 -2.3979
  100MOL   H10526043   0.083   0.036   4.194 -1.0531 -0.0236  0.5954
  100MOL   C10626044   7.850   7.799   4.046  0.4880  0.4431  0.2214
  100MOL   C10726045   7.710   7.789   4.097  0.3234  0.1204  0.2397
  100MOL   C10826046   7.615   7.720   4.031 -0.3158  0.3313  0.1565
  100MOL   C10926047   7.630   7.652   3.892  0.1276  0.1417 -0.0369
  100MOL   C11026048   7.477   7.719   4.085 -0.0642  0.1023  0.2911
  100MOL   H11126049   0.021   7.707   4.071 -0.5925 -0.3496 -0.3587
  100MOL   H11226050   7.850   7.805   3.937  0.9984  2.7454  0.3240
  100MOL   H11326051   7.693   7.839   4.192  0.8829  1.2561 -0.2537
  100MOL   H11426052   7.727   7.603   3.891 -0.7148 -1.5522 -0.8900
  100MOL   H11526053   7.629   7.725   3.811  2.3216 -2.1685 -2.2339
  100MOL   H11626054   7.556   7.576   3.867 -0.1246  0.9536 -1.8466
  100MOL   H11726055   7.469   7.772   4.180 -1.0453 -0.2378  0.4031
  100MOL   H11826056   7.465   7.614   4.114 -0.5555 -0.3002 -1.3088
  100MOL   C11926057   7.372   7.778   3.984 -0.2264  0.3463  0.5174
  100MOL   C12026058   7.237   7.782   4.051 -0.6013 -0.3166 -0.2306
  100MOL   C12126059   7.121   7.818   3.991  0.4483 -0.0818  0.0345
  100MOL   C12226060   7.116   7.866   3.848 -0.0294 -0.5393 -0.1467
  100MOL   C12326061   6.981   7.811   4.057 -0.5182  0.3260 -1.4185
  100MOL   H12426062   7.375   7.725   3.889  2.2817  1.5944 -0.1442
  100MOL   H12526063   7.407   7.878   3.958 -1.1443  0.0793 -1.8759
  100MOL   H12626064   7.227   7.755   4.156  1.6493  0.8341  0.2894
  100MOL   H12726065   7.075   0.084   3.845  0.4606 -0.3785 -2.2475
  100MOL   H12826066   7.035   7.819   3.792 -0.8174  0.7139 -0.0729
  100MOL   H12926067   7.211   7.858   3.795  0.7775 -0.2448  1.2348
  100MOL   H13026068   6.982   7.759   4.153 -1.3679 -0.7347 -1.9736
  100MOL   H13126069   6.912   7.751   3.998  0.6569 -2.1412 -0.3550
  100MOL   C13226070   6.930   0.062   4.106 -0.0662 -0.0977  0.1413
  100MOL   C13326071   6.788   0.040   4.164 -0.1908 -0.6477 -0.6963
  100MOL   C13426072   6.729   0.112   4.261  0.3633  0.3078  0.4235
  100MOL   C13526073   6.811   0.203   4.356 -0.2733  0.0718  0.0124
  100MOL   C13626074   6.592   0.074   4.317  0.7857 -1.0520  0.1329
  100MOL   H13726075   6.934   0.139   4.029  1.0069 -0.4424 -0.1552
  100MOL   H13826076   7.008   0.102   4.171 -0.8686  0.7092  0.6200
  100MOL   H13926077   6.736   7.839   4.120 -1.6795 -0.6499  1.0180
  100MOL   H14026078   6.885   0.260   4.299  0.7193  0.3085  1.5200
  100MOL   H14126079   6.869   0.142   4.425  1.1325 -1.6385 -2.5676
  100MOL   H14226080   6.751   0.271   4.416 -1.4198 -0.7379 -0.2089
  100MOL   H14326081   6.600   0.004   4.400 -3.3920 -0.8836  0.7841
  100MOL   H14426082   6.547   0.019   4.234  1.2929 -0.3081 -0.6377
  100MOL   C14526083   6.501   0.194   4.347  0.0627  0.3562  0.5608
  100MOL   C14626084   6.481   0.292   4.235  0.1154  0.6545 -0.1503
  100MOL   C14726085   6.370   0.370   4.220 -0.4320  0.0753  0.0423
  100MOL   C14826086   6.248   0.360   4.314  0.2765  0.2760 -0.0788
  100MOL   C14926087   6.358   0.474   4.110 -0.0620 -0.1422 -1.0702
  100MOL   H15026088   6.535   0.242   4.439  3.4579  1.4867 -1.1864
  100MOL   H15126089   6.414   0.138   4.379  0.4974 -0.4134  0.4074
  100MOL   H15226090   6.573   0.303   4.178  1.0807 -1.3377  0.9723
  100MOL   H15326091   6.235   0.458   4.361 -1.5154 -0.8388  1.8519
  100MOL   H15426092   6.266   0.293   4.398  0.1623  0.7703  0.3461
  100MOL   H15526093   6.160   0.325   4.260  0.4642 -1.1187  0.4975
  100MOL   H15626094   6.263   0.468   4.057 -0.4419 -0.8349 -0.3215
  100MOL   H15726095   6.443   0.458   4.044 -0.5784  0.2565 -1.8390
  100MOL   C15826096   6.380   0.622   4.155 -0.0873  0.1587 -0.3946
  100MOL   C15926097   6.383   0.722   4.038 -0.6745 -0.6561  0.3034
  100MOL   C16026098   6.315   0.841   4.037 -0.0253  0.0265  0.3360
  100MOL   C16126099   6.232   0.883   4.152 -0.5347 -1.0038 -1.1229
  100MOL   C16226100   6.316   0.924   3.908  1.3183 -0.1234  0.8412
  100MOL   H16326101   6.479   0.622   4.200 -0.6567  2.1562  0.8964
  100MOL   H16426102   6.311   0.649   4.235 -0.2574  0.2561 -0.5739
  100MOL   H16526103   6.432   0.688   3.948 -0.5274  1.4263 -0.4273
  100MOL   H16626104   6.164   0.805   4.187 -1.0444 -1.5705 -3.3058
  100MOL   H16726105   6.186   0.980   4.133  1.0432 -0.0518 -0.1592
  100MOL   H16826106   6.300   0.905   4.234  0.6893 -1.3201 -2.0351
  100MOL   H16926107   6.211   0.948   3.892  0.7667 -1.4267  2.3229
  100MOL   H17026108   6.348   0.858   3.828  2.9666  1.6435  0.0188
  100MOL   C17126109   6.403   1.044   3.923 -0.4383 -0.0126 -0.0636
  100MOL   C17226110   6.389   1.153   3.823 -0.0258 -0.2050  0.6748
  100MOL   C17326111   6.469   1.184   3.721  0.0286  0.1672 -0.4013
  100MOL   C17426112   6.602   1.117   3.700 -0.0755  0.1260 -0.2479
  100MOL   C17526113   6.439   1.305   3.631 -0.2124 -0.0686 -0.8374
  100MOL   H17626114   6.500   1.002   3.951  0.1313 -0.2485 -2.3250
  100MOL   H17726115   6.366   1.096   4.011 -2.2138 -0.0621 -0.7627
  100MOL   H17826116   6.304   1.219   3.832  1.4153  2.0763 -1.3804
  100MOL   H17926117   6.594   1.017   3.742 -0.6802  0.8528  1.4314
  100MOL   H18026118   6.673   1.165   3.768  1.5339  0.0063 -1.8159
  100MOL   H18126119   6.637   1.117   3.597  0.0533 -0.0466 -0.2042
  100MOL   H18226120   6.337   1.344   3.640 -0.4748 -1.3039  2.0751
  100MOL   H18326121   6.444   1.259   3.533 -0.8058 -2.2344  0.1172
  100MOL   C18426122   6.545   1.410   3.642  0.3023  0.1903  0.0187
  100MOL   C18526123   6.532   1.498   3.763 -0.2548  0.3114 -0.0004
  100MOL   C18626124   6.617   1.522   3.864  0.2839 -0.6831 -0.2806
  100MOL   C18726125   6.762   1.476   3.860 -0.4792 -0.2608  1.1340
  100MOL   C18826126   6.574   1.608   3.985 -0.3388  0.4458  0.3648
  100MOL   H18926127   6.524   1.472   3.554 -1.0713  0.7163  0.6859
  100MOL   H19026128   6.642   1.365   3.623 -0.3453 -0.6270 -1.4315
  100MOL   H19126129   6.434   1.539   3.783  0.1331  1.1697  0.1541
  100MOL   H19226130   6.755   1.368   3.873 -0.1127 -0.6053 -1.3069
  100MOL   H19326131   6.819   1.517   3.943  2.4963  1.6692 -1.7370
  100MOL   H19426132   6.800   1.526   3.770 -0.9450 -0.1383  1.0065
  100MOL   H19526133   6.599   1.541   4.067  0.5448  0.7064  0.3189
  100MOL   H19626134   6.466   1.619   3.991 -0.5033 -1.7500  1.9217
  100MOL   C19726135   6.647   1.740   3.999  0.7286 -0.1602 -0.8007
  100MOL   C19826136   6.596   1.816   4.121 -0.2375 -0.2353  0.8053
  100MOL   C19926137   6.651   1.835   4.244  0.0560  0.5587  0.7596
  100MOL   C20026138   6.777   1.759   4.287  0.7424  0.2512  0.4163
  100MOL   C20126139   6.591   1.919   4.354  0.3291  0.4193 -0.3363
  100MOL   H20226140   6.625   1.800   3.910 -0.0886  0.4709 -0.1807
  100MOL   H20326141   6.756   1.741   4.003  0.7401 -1.0004 -0.9153
  100MOL   H20426142   6.504   1.869   4.108  1.1470  1.9390 -0.4624
  100MOL   H20526143   6.800   1.682   4.214  2.2895  1.5693 -0.5271
  100MOL   H20626144   6.761   1.701   4.378 -1.3787 -0.1042 -0.1486
  100MOL   H20726145   6.857   1.829   4.312  0.5634  0.4540  0.4324
  100MOL   H20826146   6.506   1.976   4.315  0.2749 -0.1122 -1.0030
  100MOL   H20926147   6.653   2.007   4.370 -0.6925  0.8499  1.3773
  100MOL   C21026148   6.551   1.846   4.488 -0.3373 -0.0639  0.2449
  100MOL   C21126149   6.493   1.943   4.585  0.0759 -0.3353 -0.1730
  100MOL   C21226150   6.388   1.923   4.669  0.2943 -0.3574  0.9603
  100MOL   C21326151   6.316   1.786   4.682 -0.1335 -0.6908  0.0951
  100MOL   C21426152   6.347   2.040   4.772 -0.0632  0.2739 -0.0731
  100MOL   H21526153   6.639   1.811   4.541 -0.4804 -1.1786 -0.2560
  100MOL   H21626154   6.491   1.758   4.469  0.1021 -0.3909  0.3688
  100MOL   H21726155   6.531   2.043   4.598  0.6588 -0.3263 -1.7673
  100MOL   H21826156   6.208   1.805   4.684 -0.0336  0.1890 -2.2039
  100MOL   H21926157   6.349   1.763   4.783  0.4731  1.2968  0.3792
  100MOL   H22026158   6.341   1.714   4.605  1.0389  0.6687 -0.8131
  100MOL   H22126159   6.416   2.124   4.762  0.2269  0.1486  0.8205
  100MOL   H22226160   6.340   2.002   4.874 -0.7246 -0.9185 -0.5582
  100MOL   C22326161   6.206   2.106   4.751  0.0032 -0.7112 -0.0674
  100MOL   C22426162   6.171   2.222   4.844 -0.5657  0.6801 -0.7291
  100MOL   C22526163   6.056   2.238   4.914  0.0570  0.1042  0.0929
  100MOL   C22626164   5.935   2.141   4.893 -0.1131  0.3791  0.9632
  100MOL   C22726165   6.037   2.346   5.016  0.5048 -0.2520  0.3022
  100MOL   H22826166   6.136   2.025   4.768 -1.3551  0.5006  0.2043
  100MOL   H22926167   6.204   2.133   4.645 -1.4470 -1.0462 -0.1294
  100MOL   H23026168   6.241   2.304   4.853  1.2882 -1.1660  2.6821
  100MOL   H23126169   5.931   2.053   4.829 -2.4599  1.0822  0.0924
  100MOL   H23226170   5.855   2.209   4.864  1.3606  0.8946 -1.9914
  100MOL   H23326171   5.907   2.111   4.994  0.9767 -1.4168  0.7655
  100MOL   H23426172   5.946   2.400   4.991 -0.0391 -1.0508  0.5550
  100MOL   H23526173   6.115   2.419   4.996 -0.1587  0.0594 -1.2048
  100MOL   C23626174   6.048   2.296   5.162  0.1291  0.3144 -0.8996
  100MOL   C23726175   5.977   2.391   5.257  0.2129  0.6530 -0.7762
  100MOL   C23826176   6.028   2.456   5.361  0.2734  0.4154  0.1867
  100MOL   C23926177   6.169   2.459   5.409  0.5867  0.1222 -0.3881
  100MOL   C24026178   5.932   2.543   5.443 -0.4951 -0.1528 -0.2272
  100MOL   H24126179   6.154   2.284   5.187  0.4571  0.1657 -2.2941
  100MOL   H24226180   5.991   2.204   5.165  0.0229  0.3618 -1.4427
  100MOL   H24326181   5.871   2.393   5.237 -0.1891 -0.9914  1.0543
  100MOL   H24426182   6.196   2.564   5.418 -0.7388  0.3611  0.9043
  100MOL   H24526183   6.232   2.423   5.328 -0.5323 -0.2462 -1.1167
  100MOL   H24626184   6.190   2.393   5.493 -0.4441 -1.8012 -1.6097
  100MOL   H24726185   5.830   2.554   5.406 -1.3603  1.9274  2.5975
  100MOL   H24826186   5.972   2.644   5.433  0.5846 -0.6712 -1.3926
  100MOL   C24926187   5.936   2.513   5.596  0.7906 -0.2284 -0.3267
  100MOL   C25026188   5.846   2.610   5.676  0.2220  0.2280  0.0020
  100MOL   C25126189   5.877   2.729   5.734  0.1879 -0.9740 -0.0974
  100MOL   C25226190   6.009   2.803   5.722  0.0336  0.2857 -0.2039
  100MOL   C25326191   5.765   2.817   5.800  0.1169 -0.2353  0.3942
  100MOL   H25426192   6.034   2.526   5.642  1.2822 -0.6788 -1.2408
  100MOL   H25526193   5.903   2.414   5.626 -1.9767  0.4925 -0.8441
  100MOL   H25626194   5.742   2.582   5.679 -0.0219  1.0481 -0.6394
  100MOL   H25726195   6.014   2.866   5.634 -2.6594  1.3709  0.3640
  100MOL   H25826196   6.091   2.731   5.711  0.8225  1.0790  0.4752
  100MOL   H25926197   6.034   2.863   5.809 -0.6555 -0.8121  0.7609
  100MOL   H26026198   5.661   2.784   5.794 -0.6296  1.8947  1.2495
  100MOL   H26126199   5.769   2.918   5.760  3.0619  0.0061  1.2118
  100MOL   H26226200   5.793   2.833   5.905  1.4307  0.4115 -0.0441
  101MOL     C126201   0.239   5.256   4.437  0.4960 -0.3497  1.0022
  101MOL     C226202   0.304   5.181   4.557  0.4857 -0.2088  0.0198
  101MOL     C326203   0.429   5.172   4.594  0.5333 -0.5777 -0.2615
  101MOL     C426204   0.549   5.257   4.543 -0.5055  0.1911  0.4087
  101MOL     C526205   0.473   5.068   4.699 -0.4509 -0.1006 -0.0535
  101MOL     H626206   0.172   5.329   4.482 -0.5898 -1.2540  0.8750
  101MOL     H726207   0.322   5.300   4.382  1.0543  0.1081  2.1884
  101MOL     H826208   0.246   5.098   4.593  0.3519 -0.6677 -1.2368
  101MOL     H926209   0.641   5.201   4.554  0.0624  0.8557 -0.9378
  101MOL    H1026210   0.560   5.348   4.602 -0.4318 -0.4970  1.4660
  101MOL    H1126211   0.533   5.279   4.438 -0.8030 -0.3336  0.3398
  101MOL    H1226212   0.504   4.977   4.649 -0.3773 -0.9456  1.4992
  101MOL    H1326213   0.392   5.033   4.764  0.2583  1.0667  1.5031
  101MOL    H1426214   0.186   5.191   4.367 -0.2359 -0.6839  1.8565
  101MOL    C1526215   0.565   5.116   4.810  0.3061 -0.4836  0.3869
  101MOL    C1626216   0.602   4.998   4.902  0.5591 -1.0089 -0.1353
  101MOL    C1726217   0.722   4.936   4.904 -0.1813  0.2359 -0.7578
  101MOL    C1826218   0.840   4.979   4.819  0.0684 -0.4133  0.7943
  101MOL    C1926219   0.757   4.823   5.000 -0.8826  0.6606  0.1815
  101MOL    H2026220   0.514   5.193   4.868 -2.2824 -1.6345 -0.2890
  101MOL    H2126221   0.653   5.170   4.774 -0.0576  0.5372  1.0191
  101MOL    H2226222   0.525   4.972   4.974  0.6069 -2.0471 -0.4526
  101MOL    H2326223   0.925   5.012   4.879 -0.7416  0.8970  1.2381
  101MOL    H2426224   0.822   5.060   4.748  1.3996  0.5401  1.5302
  101MOL    H2526225   0.871   4.890   4.765 -1.1385 -1.2449  1.4511
  101MOL    H2626226   0.837   4.770   4.948 -2.5911 -1.1737 -0.6333
  101MOL    H2726227   0.668   4.763   5.017 -0.7527 -0.2853 -2.2695
  101MOL    C2826228   0.802   4.873   5.142  0.5451  0.8486  0.1425
  101MOL    C2926229   0.862   4.754   5.225  0.4530  0.1638 -0.5061
  101MOL    C3026230   0.857   4.733   5.359 -0.2060  0.2984 -0.0173
  101MOL    C3126231   0.775   4.816   5.451 -0.0460 -0.4231  0.3500
  101MOL    C3226232   0.924   4.613   5.425 -0.3878  0.4404 -0.4246
  101MOL    H3326233   0.714   4.916   5.190 -1.0927 -1.4632 -0.7345
  101MOL    H3426234   0.876   4.953   5.144  1.2106  0.2835 -0.9972
  101MOL    H3526235   0.924   4.685   5.170 -0.7147 -0.7324 -0.7161
  101MOL    H3626236   0.810   4.816   5.554  0.4210 -2.0459  0.2048
  101MOL    H3726237   0.681   4.761   5.441 -0.6963  0.4291  1.6647
  101MOL    H3826238   0.753   4.913   5.406  1.2153 -0.2835  0.0159
  101MOL    H3926239   0.952   4.540   5.348 -2.7202 -0.1138 -0.7896
  101MOL    H4026240   0.849   4.579   5.496 -0.6364  1.9669  0.0448
  101MOL    C4126241   1.048   4.654   5.500  0.0371  0.4060  0.9172
  101MOL    C4226242   1.129   4.539   5.564  0.6323 -0.3605  0.7034
  101MOL    C4326243   1.177   4.530   5.691  0.4733 -0.0052  0.7508
  101MOL    C4426244   1.163   4.637   5.795  0.8564  0.0609  0.3641
  101MOL    C4526245   1.245   4.402   5.758  0.3451 -0.0213 -0.6828
  101MOL    H4626246   1.012   4.727   5.573  1.0274  0.2809  1.5382
  101MOL    H4726247   1.112   4.719   5.441 -0.2810  0.8707  1.0829
  101MOL    H4826248   1.145   4.451   5.502  0.8999  0.4456 -0.3963
  101MOL    H4926249   1.158   4.736   5.750  0.0545  0.7633  1.9520
  101MOL    H5026250   1.240   4.632   5.871  0.6801 -1.4940  0.4567
  101MOL    H5126251   1.075   4.630   5.859 -0.1163 -0.3876 -0.9707
  101MOL    H5226252   1.219   4.322   5.689 -1.4621  0.7980 -0.9819
  101MOL    H5326253   1.215   4.383   5.861 -1.2732  0.1686 -1.1183
  101MOL    C5426254   1.397   4.425   5.747 -0.6096 -1.1074  0.2715
  101MOL    C5526255   1.467   4.289   5.762  0.2369 -0.0761  0.0120
  101MOL    C5626256   1.516   4.251   5.881  0.3543 -0.8838 -0.1754
  101MOL    C5726257   1.501   4.323   6.016 -0.0046 -0.1691  0.1993
  101MOL    C5826258   1.593   4.123   5.897  0.1407  0.0920 -0.2316
  101MOL    H5926259   1.439   4.488   5.824  1.2444 -1.8149 -0.1424
  101MOL    H6026260   1.417   4.472   5.651  0.9341 -3.7355 -0.7594
  101MOL    H6126261   1.472   4.228   5.673  1.7999  0.7087 -0.4561
  101MOL    H6226262   1.491   4.253   6.099 -0.4367 -1.3489 -0.8239
  101MOL    H6326263   1.419   4.395   6.016 -0.8245 -1.0892  0.2523
  101MOL    H6426264   1.592   4.381   6.032 -0.5136  0.4992  0.7037
  101MOL    H6526265   1.677   4.139   5.964  0.3739 -0.8335 -0.2958
  101MOL    H6626266   1.639   4.100   5.801  1.8035  0.6452  0.4174
  101MOL    C6726267   1.513   4.003   5.939  0.3367 -0.3740 -0.4422
  101MOL    C6826268   1.417   4.016   6.051  0.8407 -0.7820 -0.5030
  101MOL    C6926269   1.420   3.961   6.172  0.3332 -0.0048  0.0817
  101MOL    C7026270   1.533   3.878   6.226 -0.4674  0.6338 -0.5809
  101MOL    C7126271   1.317   3.993   6.279 -0.1315  0.3235 -0.8627
  101MOL    H7226272   1.590   3.926   5.947  1.4272  0.8186  0.9795
  101MOL    H7326273   1.445   3.974   5.860  0.7093 -4.6258  0.6826
  101MOL    H7426274   1.336   4.086   6.036  0.3747 -1.5910 -1.8373
  101MOL    H7526275   1.629   3.915   6.192 -0.0850 -0.0845 -0.2981
  101MOL    H7626276   1.518   3.777   6.187 -1.8869  0.5293  0.2056
  101MOL    H7726277   1.537   3.863   6.333 -1.3456 -0.4138 -0.6823
  101MOL    H7826278   1.255   4.076   6.247 -0.8235  1.0165  2.1776
  101MOL    H7926279   1.375   4.041   6.357  0.1363  0.1773 -0.9692
  101MOL    C8026280   1.241   3.867   6.329 -0.1052 -0.2356 -0.6716
  101MOL    C8126281   1.147   3.883   6.450  0.2433 -1.2868 -0.7419
  101MOL    C8226282   1.127   3.801   6.561  0.6961  0.8763  0.2964
  101MOL    C8326283   1.212   3.679   6.595 -0.2158 -0.4498 -0.3047
  101MOL    C8426284   1.011   3.823   6.654  0.4798  0.4800  0.8888
  101MOL    H8526285   1.316   3.789   6.341 -1.2211 -0.8779  2.6448
  101MOL    H8626286   1.182   3.822   6.249  1.8050 -2.7835 -0.7031
  101MOL    H8726287   1.076   3.962   6.428  2.1833  0.6837 -0.0732
  101MOL    H8826288   1.198   3.585   6.541  0.8216 -2.1451  2.2910
  101MOL    H8926289   1.204   3.664   6.703  2.8973 -0.5711 -0.0506
  101MOL    H9026290   1.317   3.700   6.578 -0.7535  0.8364 -2.2636
  101MOL    H9126291   0.965   3.917   6.627  0.2981 -0.5106 -2.4875
  101MOL    H9226292   1.045   3.840   6.756  0.6275 -1.3980  1.1783
  101MOL    C9326293   0.884   3.733   6.651 -0.2985 -0.1328 -0.1479
  101MOL    C9426294   0.919   3.614   6.721 -0.2344  0.1864 -0.1569
  101MOL    C9526295   0.884   3.489   6.694 -0.3020  0.0779 -0.2673
  101MOL    C9626296   0.791   3.438   6.583  0.0421 -0.3070  0.2529
  101MOL    C9726297   0.926   3.379   6.792 -0.0928 -0.8882  0.1837
  101MOL    H9826298   0.837   3.712   6.554  1.3159 -4.6368 -0.1096
  101MOL    H9926299   0.808   3.778   6.714  0.3461 -0.6314  0.9978
  101MOL   H10026300   0.976   3.635   6.810 -0.2242 -0.0962 -0.0944
  101MOL   H10126301   0.834   3.383   6.500  0.2482 -0.7645  0.6599
  101MOL   H10226302   0.735   3.514   6.528 -1.1374 -1.0332  0.4214
  101MOL   H10326303   0.716   3.373   6.627 -1.4595  1.6271  0.6277
  101MOL   H10426304   0.839   3.357   6.854 -0.6796  0.5572 -0.1224
  101MOL   H10526305   0.999   3.417   6.863 -0.7226  0.0947  0.3091
  101MOL   C10626306   1.007   3.258   6.745  0.5438 -0.4161 -0.1217
  101MOL   C10726307   1.158   3.288   6.718  0.4272 -0.2946 -0.1598
  101MOL   C10826308   1.249   3.211   6.661  0.3660  0.2765  0.0859
  101MOL   C10926309   1.206   3.078   6.593 -0.1036  0.3931 -0.1469
  101MOL   C11026310   1.394   3.256   6.650  1.0848 -0.1727  0.1189
  101MOL   H11126311   0.967   3.209   6.656 -0.1924 -1.3385  0.7029
  101MOL   H11226312   1.005   3.170   6.809  0.1520 -1.8946 -2.1081
  101MOL   H11326313   1.191   3.382   6.761  0.3653 -1.0237  1.5289
  101MOL   H11426314   1.159   3.087   6.495 -2.1921 -2.5330  0.5293
  101MOL   H11526315   1.142   3.018   6.657  0.1875 -0.5591 -0.7565
  101MOL   H11626316   1.283   3.004   6.571 -0.7375  0.1174 -1.4329
  101MOL   H11726317   1.464   3.208   6.718  0.4332  0.1641  1.0393
  101MOL   H11826318   1.384   3.358   6.687 -0.9902 -0.8219  1.4128
  101MOL   C11926319   1.451   3.287   6.509  0.2517  0.3843  0.2824
  101MOL   C12026320   1.588   3.349   6.512 -0.6668  0.2564 -1.0084
  101MOL   C12126321   1.636   3.453   6.442  0.7452 -0.9913 -0.3179
  101MOL   C12226322   1.546   3.529   6.350 -0.1455  0.1776  0.2273
  101MOL   C12326323   1.778   3.510   6.448  0.5977  0.1292  0.3692
  101MOL   H12426324   1.380   3.354   6.461 -1.9721 -2.3642 -0.4355
  101MOL   H12526325   1.460   3.190   6.460  0.0703  0.8881 -0.7458
  101MOL   H12626326   1.666   3.306   6.574 -0.6923  0.3601 -0.9051
  101MOL   H12726327   1.582   3.628   6.322 -0.5223  0.2676  0.0568
  101MOL   H12826328   1.447   3.549   6.392 -0.4976  0.3433 -0.6823
  101MOL   H12926329   1.532   3.483   6.252  1.1758 -0.4188  0.3038
  101MOL   H13026330   1.808   3.542   6.348 -0.2424 -1.4024 -0.3788
  101MOL   H13126331   1.851   3.446   6.497 -1.7624 -2.4778  0.5903
  101MOL   C13226332   1.776   3.636   6.533  0.3054 -0.3222  0.0949
  101MOL   C13326333   1.914   3.690   6.534  0.8212 -0.5161  0.0632
  101MOL   C13426334   1.952   3.809   6.490 -0.9259  0.4870  0.2623
  101MOL   C13526335   1.863   3.921   6.430 -0.2182  0.2938  0.1937
  101MOL   C13626336   2.102   3.851   6.505 -0.0488  0.0051 -0.5732
  101MOL   H13726337   1.730   3.604   6.627 -2.4867  1.3015 -0.6608
  101MOL   H13826338   1.706   3.709   6.492  1.7360  2.1209  1.8136
  101MOL   H13926339   1.994   3.633   6.578  0.7487 -0.8539 -0.2439
  101MOL   H14026340   1.837   3.998   6.502 -0.4024 -1.0435  1.5825
  101MOL   H14126341   1.765   3.883   6.401  0.2804 -1.1147  0.3188
  101MOL   H14226342   1.915   3.957   6.341  1.3811 -0.0634  0.9669
  101MOL   H14326343   2.138   3.867   6.404  1.7823 -1.5610 -0.1795
  101MOL   H14426344   2.174   3.779   6.542  0.3656  0.3475 -0.7144
  101MOL   C14526345   2.106   3.974   6.598  0.5807  0.6097  0.0717
  101MOL   C14626346   2.252   4.013   6.615  0.8834  0.0070  0.0294
  101MOL   C14726347   2.317   4.019   6.732 -0.0029  0.3254 -0.8791
  101MOL   C14826348   2.256   3.990   6.870 -0.1966 -0.1313 -0.6281
  101MOL   C14926349   2.474   4.042   6.740  0.3355  0.1539 -0.0907
  101MOL   H15026350   2.042   3.949   6.684 -0.8539 -1.3874 -1.5308
  101MOL   H15126351   2.062   4.057   6.544  1.4509  1.5566  0.8021
  101MOL   H15226352   2.308   4.009   6.523 -0.5621  0.8595 -0.9062
  101MOL   H15326353   2.304   4.043   6.952 -0.1499  0.5112 -1.0639
  101MOL   H15426354   2.284   3.886   6.884  1.3347  0.4423  0.6717
  101MOL   H15526355   2.149   4.012   6.867  0.0466  0.8992 -3.9962
  101MOL   H15626356   2.526   3.956   6.780  0.2116 -1.0074 -2.3892
  101MOL   H15726357   2.500   4.117   6.815  1.3440 -0.4479  0.1663
  101MOL   C15826358   2.552   4.076   6.614  0.0342 -0.0256 -0.1864
  101MOL   C15926359   2.698   4.095   6.632  0.9098  0.4834  0.0059
  101MOL   C16026360   2.779   4.195   6.587  0.7391 -0.0668 -0.6897
  101MOL   C16126361   2.731   4.311   6.504 -1.2316  0.1989 -0.3140
  101MOL   C16226362   2.923   4.190   6.607 -0.8943 -0.3231  0.0420
  101MOL   H16326363   2.509   4.162   6.563 -0.2655 -0.2482 -0.3145
  101MOL   H16426364   2.531   3.989   6.551 -0.3738  0.9244 -1.3825
  101MOL   H16526365   2.753   4.013   6.677  0.3757 -0.6875 -1.4354
  101MOL   H16626366   2.781   4.403   6.534 -0.5062 -0.5059  0.6834
  101MOL   H16726367   2.626   4.330   6.523 -0.5835  2.6772  0.9986
  101MOL   H16826368   2.760   4.289   6.401 -0.7393  1.1848 -0.3922
  101MOL   H16926369   2.945   4.150   6.706  1.9720 -0.6880 -0.6988
  101MOL   H17026370   2.970   4.288   6.596 -1.1865 -0.3112 -1.1836
  101MOL   C17126371   2.993   4.112   6.504 -0.4326  0.3592  0.5202
  101MOL   C17226372   3.144   4.118   6.526 -0.2870  0.8092 -0.5565
  101MOL   C17326373   3.222   4.012   6.551 -0.0777 -0.0580  0.2245
  101MOL   C17426374   3.166   3.872   6.558  0.5410  0.5550  0.1974
  101MOL   C17526375   3.375   4.018   6.537  0.6570  0.1333  0.3205
  101MOL   H17626376   2.966   4.157   6.409 -1.0194 -1.4231 -0.1792
  101MOL   H17726377   2.960   4.008   6.502  1.0127 -0.1444  1.5588
  101MOL   H17826378   3.196   4.210   6.504  0.8770 -0.3580 -2.8267
  101MOL   H17926379   3.069   3.860   6.606  0.9012 -0.0932  0.7695
  101MOL   H18026380   3.239   3.804   6.601  0.5392  0.4112 -0.0253
  101MOL   H18126381   3.149   3.836   6.457 -1.7272 -1.5816  1.2854
  101MOL   H18226382   3.394   4.118   6.498  0.8401 -1.0275 -2.6761
  101MOL   H18326383   3.396   3.940   6.463  1.2476 -1.2713  1.9253
  101MOL   C18426384   3.455   3.989   6.665  0.5611 -0.3327 -0.2318
  101MOL   C18526385   3.608   4.008   6.663 -0.4959  0.3746 -0.2778
  101MOL   C18626386   3.699   3.921   6.613 -0.5740 -0.1285  0.3669
  101MOL   C18726387   3.675   3.778   6.562  0.7677 -0.2499 -0.3966
  101MOL   C18826388   3.848   3.957   6.629 -0.5860  0.3678  1.4019
  101MOL   H18926389   3.435   3.889   6.704 -1.4135  0.5765  1.1318
  101MOL   H19026390   3.413   4.044   6.749  1.5913 -1.3806  0.9831
  101MOL   H19126391   3.638   4.104   6.702 -1.2714  1.0324 -1.2677
  101MOL   H19226392   3.721   3.710   6.633  1.7857 -0.8834 -1.6551
  101MOL   H19326393   3.720   3.757   6.465 -0.4500 -0.7208 -0.8724
  101MOL   H19426394   3.568   3.756   6.550  0.4380  0.0664  1.7831
  101MOL   H19526395   3.913   3.870   6.633  1.0965  1.2352 -3.5002
  101MOL   H19626396   3.870   4.015   6.719  0.2447  0.6373  1.0326
  101MOL   C19726397   3.902   4.027   6.500  0.1055 -0.5128 -0.3381
  101MOL   C19826398   3.849   4.166   6.467 -0.2881  0.2774  0.0758
  101MOL   C19926399   3.749   4.197   6.378 -0.6709 -0.6483  0.5920
  101MOL   C20026400   3.686   4.092   6.296 -0.0374 -0.1866 -0.4442
  101MOL   C20126401   3.685   4.336   6.358  0.8816  0.4898 -0.2593
  101MOL   H20226402   3.888   3.963   6.413 -2.5456 -0.5103  0.0479
  101MOL   H20326403   4.010   4.035   6.511 -0.0604 -0.2275  1.2252
  101MOL   H20426404   3.890   4.243   6.529 -1.1989  0.4860  0.4321
  101MOL   H20526405   3.704   3.990   6.328 -1.5049  0.0906  1.3181
  101MOL   H20626406   3.738   4.105   6.201 -0.8671  2.7214 -0.5546
  101MOL   H20726407   3.580   4.109   6.275  0.0769  1.5915  0.3053
  101MOL   H20826408   3.581   4.313   6.381  0.2375  1.2700 -2.2893
  101MOL   H20926409   3.681   4.361   6.252  2.7414  1.4396 -0.1247
  101MOL   C21026410   3.745   4.445   6.447  0.9906  0.3884 -0.1966
  101MOL   C21126411   3.673   4.578   6.446 -0.1837 -0.0001 -0.1291
  101MOL   C21226412   3.721   4.699   6.485  0.3520 -0.3081  0.0500
  101MOL   C21326413   3.872   4.719   6.511 -0.3954 -0.1770  0.1686
  101MOL   C21426414   3.643   4.821   6.509 -0.4044 -0.4775  0.8695
  101MOL   H21526415   3.850   4.446   6.419  0.5748 -0.5791 -1.8811
  101MOL   H21626416   3.743   4.402   6.547 -0.3245  1.0124  0.0564
  101MOL   H21726417   3.566   4.567   6.431 -0.3327  0.9311  0.2022
  101MOL   H21826418   3.927   4.790   6.450  1.0593 -1.5020 -0.0953
  101MOL   H21926419   3.921   4.623   6.526  0.7006  0.6515  2.1092
  101MOL   H22026420   3.878   4.740   6.618  0.5814  1.5346 -0.2111
  101MOL   H22126421   3.540   4.805   6.477  0.5507 -2.5999 -1.3719
  101MOL   H22226422   3.679   4.902   6.445  0.8047 -1.2078  0.5952
  101MOL   C22326423   3.643   4.868   6.656  0.2857  0.1640  0.0799
  101MOL   C22426424   3.529   4.953   6.700 -0.3670  0.5411 -0.0765
  101MOL   C22526425   3.529   5.059   6.785  0.4014  0.0832  0.1074
  101MOL   C22626426   3.648   5.086   6.879 -0.4139 -0.5362 -0.0991
  101MOL   C22726427   3.398   5.137   6.812 -0.6570 -0.5856 -0.2016
  101MOL   H22826428   3.734   4.925   6.673  0.3735 -0.0325  0.2732
  101MOL   H22926429   3.633   4.782   6.723  1.8988 -1.1530 -1.3153
  101MOL   H23026430   3.437   4.920   6.652  0.4258 -1.9313  0.0204
  101MOL   H23126431   3.619   5.073   6.983 -1.9306 -0.8708 -0.5507
  101MOL   H23226432   3.685   5.186   6.861  2.1831 -1.6338 -1.1548
  101MOL   H23326433   3.735   5.024   6.859  0.4249  0.3690  0.6880
  101MOL   H23426434   3.417   5.244   6.810 -0.0142 -0.6710  0.7832
  101MOL   H23526435   3.367   5.126   6.916  0.4808 -0.8399  0.1222
  101MOL   C23626436   3.266   5.103   6.739  0.4698  0.1903 -0.5167
  101MOL   C23726437   3.267   5.126   6.591  0.0036  0.1015  0.6737
  101MOL   C23826438   3.164   5.173   6.519  0.2804  0.5553  0.2781
  101MOL   C23926439   3.019   5.198   6.579  0.3101 -0.6522  0.2766
  101MOL   C24026440   3.177   5.182   6.370  0.8419 -0.3511  0.5533
  101MOL   H24126441   3.186   5.160   6.786 -0.7163 -1.2611 -0.7295
  101MOL   H24226442   3.259   4.995   6.752 -0.7420 -0.1303 -3.4112
  101MOL   H24326443   3.356   5.093   6.541 -0.1441  0.7329 -0.0179
  101MOL   H24426444   2.970   5.279   6.525 -0.8192 -0.5323  1.4623
  101MOL   H24526445   3.023   5.235   6.681  1.3483 -0.9361  0.3507
  101MOL   H24626446   2.952   5.113   6.584  1.4777 -1.4953  2.0249
  101MOL   H24726447   3.280   5.189   6.334  1.0990 -1.3696  1.0642
  101MOL   H24826448   3.133   5.277   6.340  0.3216 -0.9927 -0.7611
  101MOL   C24926449   3.108   5.065   6.292 -0.4965 -1.1875 -0.0933
  101MOL   C25026450   3.123   5.078   6.137  0.0466  0.7470 -0.7689
  101MOL   C25126451   3.024   5.105   6.059  0.0714 -0.1248  0.2252
  101MOL   C25226452   2.871   5.137   6.107 -0.1383 -0.3741  0.1150
  101MOL   C25326453   3.037   5.123   5.905  0.3513 -0.9173  0.1290
  101MOL   H25426454   3.003   5.066   6.320 -0.6741 -0.3040 -0.7674
  101MOL   H25526455   3.148   4.970   6.327 -0.5047 -1.3840 -0.6170
  101MOL   H25626456   3.225   5.067   6.101 -0.3222  0.5376 -1.7628
  101MOL   H25726457   2.803   5.088   6.038 -0.5881  0.3422  0.0425
  101MOL   H25826458   2.852   5.245   6.105  1.3514 -0.0826  0.5250
  101MOL   H25926459   2.850   5.083   6.199 -0.4198 -0.2120  0.1446
  101MOL   H26026460   3.133   5.162   5.871  0.4832 -1.2435  0.1256
  101MOL   H26126461   2.954   5.182   5.867 -0.8213 -2.2817  0.5234
  101MOL   H26226462   3.024   5.034   5.843  0.3150  0.3622 -1.7316
  102MOL     C126463   2.326   6.864   3.754 -0.2366  0.4151  0.2472
  102MOL     C226464   2.386   6.938   3.869  0.4940  0.7758  0.2373
  102MOL     C326465   2.445   6.878   3.974  0.1663  0.5359  0.2205
  102MOL     C426466   2.464   6.727   3.986  0.4905  0.2863  0.0195
  102MOL     C526467   2.511   6.958   4.079  0.3697 -0.8841 -0.3669
  102MOL     H626468   2.288   6.934   3.679  0.0224 -1.0258 -1.2557
  102MOL     H726469   2.405   6.804   3.709 -2.8886 -2.5285 -0.7189
  102MOL     H826470   2.386   7.046   3.856  0.2598  0.6627 -0.7811
  102MOL     H926471   2.564   6.691   3.962  0.2561  1.0194 -2.1806
  102MOL    H1026472   2.389   6.667   3.933  1.5743  1.5220 -3.0414
  102MOL    H1126473   2.467   6.704   4.092  1.0208  1.0301  0.1627
  102MOL    H1226474   2.519   7.060   4.042  2.3331 -0.6395  0.6671
  102MOL    H1326475   2.606   6.904   4.082 -0.0060 -1.4433  2.7504
  102MOL    H1426476   2.240   6.802   3.782 -0.1192  0.3039  0.3649
  102MOL    C1526477   2.431   6.951   4.208 -0.2388  0.3068  0.1255
  102MOL    C1626478   2.279   6.955   4.191  0.0853  0.2594  0.8546
  102MOL    C1726479   2.194   6.918   4.287  0.1187  0.1118  0.3377
  102MOL    C1826480   2.233   6.885   4.430 -0.0742 -0.0204 -0.3875
  102MOL    C1926481   2.043   6.917   4.267 -0.0394  0.4060  0.2954
  102MOL    H2026482   2.463   7.036   4.269 -2.9091  2.1378 -0.9555
  102MOL    H2126483   2.460   6.861   4.263 -1.7139  0.0229  0.4658
  102MOL    H2226484   2.237   6.987   4.096 -1.1804  1.0634  1.6654
  102MOL    H2326485   2.183   6.796   4.469 -1.0945  0.5129 -0.4357
  102MOL    H2426486   2.200   6.969   4.491 -1.2641 -0.6737 -0.1049
  102MOL    H2526487   2.339   6.876   4.449 -0.1795 -0.5625 -0.0495
  102MOL    H2626488   1.993   6.824   4.296 -0.4029 -0.3796 -2.6670
  102MOL    H2726489   2.024   6.937   4.161  2.1055  0.3423 -0.1259
  102MOL    C2826490   1.969   7.018   4.350  0.4067 -0.6871 -0.6126
  102MOL    C2926491   1.820   6.995   4.340 -0.0711 -0.9151  0.6898
  102MOL    C3026492   1.716   7.057   4.405 -1.0309  0.0951  0.3473
  102MOL    C3126493   1.730   7.158   4.518 -0.2392 -0.4784 -0.2329
  102MOL    C3226494   1.572   7.029   4.369  0.6186 -0.0185 -0.6320
  102MOL    H3326495   1.970   7.115   4.302 -0.6691 -0.5451 -0.3429
  102MOL    H3426496   1.999   7.024   4.454  1.9257 -1.2419 -0.9957
  102MOL    H3526497   1.774   6.932   4.265 -2.0489  1.9564 -0.6120
  102MOL    H3626498   1.729   7.259   4.478  0.3936  0.5804  2.3292
  102MOL    H3726499   1.824   7.135   4.568  1.1161  1.5248 -1.7379
  102MOL    H3826500   1.650   7.140   4.589  0.5533  1.9825  1.3393
  102MOL    H3926501   1.527   7.014   4.467  0.3843  1.1797 -0.5507
  102MOL    H4026502   1.568   6.936   4.311  0.8223  0.8419 -2.0498
  102MOL    C4126503   1.510   7.157   4.309 -0.1799 -0.4914 -0.6581
  102MOL    C4226504   1.362   7.146   4.311 -0.0755 -1.3002  0.6094
  102MOL    C4326505   1.273   7.125   4.210  0.1669  0.5530  0.2286
  102MOL    C4426506   1.319   7.112   4.066 -0.9454 -0.9070  0.4713
  102MOL    C4526507   1.126   7.110   4.227  0.2453 -0.3918  0.4228
  102MOL    H4626508   1.541   7.162   4.205 -0.3463 -1.5590 -0.7620
  102MOL    H4726509   1.539   7.245   4.367  0.9836  0.3011 -2.4022
  102MOL    H4826510   1.326   7.168   4.410  2.6003  1.3130  1.0636
  102MOL    H4926511   1.372   7.016   4.058  0.9749  0.3672 -3.7994
  102MOL    H5026512   1.385   7.192   4.033 -1.4029 -0.9551 -0.5963
  102MOL    H5126513   1.227   7.107   4.007 -0.6859 -0.3733  0.0167
  102MOL    H5226514   1.104   7.084   4.330  2.4221  0.5885  1.1627
  102MOL    H5326515   1.090   7.023   4.171  1.2153  0.1385 -1.0498
  102MOL    C5426516   1.041   7.228   4.201  0.2617  0.0516  0.2023
  102MOL    C5526517   1.084   7.352   4.281  0.6773 -0.4468 -0.6412
  102MOL    C5626518   1.023   7.424   4.375  0.7898 -0.4360 -0.7687
  102MOL    C5726519   0.873   7.406   4.394 -0.2847  0.1501 -0.3797
  102MOL    C5826520   1.092   7.537   4.446 -0.6459  0.5085  0.7765
  102MOL    H5926521   0.935   7.211   4.224  0.1098 -0.5120 -0.8942
  102MOL    H6026522   1.055   7.258   4.097 -0.8218 -1.2617 -0.3361
  102MOL    H6126523   1.190   7.371   4.274  0.6393 -0.5428 -1.5750
  102MOL    H6226524   0.824   7.346   4.317 -1.1221  1.3821 -0.8233
  102MOL    H6326525   0.817   7.500   4.399  0.7289  0.6833  1.5176
  102MOL    H6426526   0.869   7.357   4.491  0.4621  0.7192 -0.0627
  102MOL    H6526527   1.032   7.628   4.435  0.6615  1.2166 -0.7525
  102MOL    H6626528   1.191   7.560   4.407 -1.5923  2.0470 -0.8397
  102MOL    C6726529   1.114   7.505   4.598 -0.7566  0.1114 -0.1564
  102MOL    C6826530   1.194   7.605   4.674  0.3527 -0.0578 -0.1672
  102MOL    C6926531   1.187   7.619   4.808  0.1979  0.6146 -0.2821
  102MOL    C7026532   1.077   7.557   4.887  0.1188 -0.0918  0.2022
  102MOL    C7126533   1.275   7.719   4.884 -1.0119 -0.2965  0.6626
  102MOL    H7226534   1.170   7.411   4.595  1.3572  1.3194  0.6011
  102MOL    H7326535   1.019   7.484   4.648 -0.5313 -0.0597  0.1944
  102MOL    H7426536   1.268   7.661   4.619  0.6716  1.1120  1.4100
  102MOL    H7526537   1.102   7.566   4.993  0.0926  0.1548  0.1895
  102MOL    H7626538   1.067   7.453   4.858  1.7224 -0.2201  0.0498
  102MOL    H7726539   0.991   7.624   4.885  1.1847  1.3485  1.5792
  102MOL    H7826540   1.316   7.683   4.979  0.6891 -0.7405 -0.2176
  102MOL    H7926541   1.207   7.801   4.908 -2.7437 -1.6834  0.5208
  102MOL    C8026542   1.401   7.777   4.814 -0.0549  0.0947 -0.2792
  102MOL    C8126543   1.494   7.659   4.793  0.2320 -0.4054 -0.3249
  102MOL    C8226544   1.565   7.638   4.683  0.4409 -0.8499  0.1301
  102MOL    C8326545   1.578   7.737   4.570 -0.1612  0.8726 -0.0264
  102MOL    C8426546   1.648   7.515   4.675  0.6264  0.2793 -0.4235
  102MOL    H8526547   1.454   7.849   4.877 -0.9002 -0.6486  1.3263
  102MOL    H8626548   1.373   7.829   4.723 -1.5273  1.0306  0.7049
  102MOL    H8726549   1.495   7.583   4.870  0.9456  1.9100  2.0115
  102MOL    H8826550   1.592   7.833   4.620 -0.0866 -0.0386  1.7452
  102MOL    H8926551   1.488   7.755   4.512 -0.0942  1.4702  0.0496
  102MOL    H9026552   1.664   7.709   4.509 -1.8649 -3.6448 -0.5078
  102MOL    H9126553   1.604   7.445   4.604 -2.2019  0.6177  0.9306
  102MOL    H9226554   1.641   7.462   4.770 -1.2229 -0.8325 -1.1525
  102MOL    C9326555   1.802   7.535   4.660 -0.3240  0.3653  0.0823
  102MOL    C9426556   1.880   7.419   4.714  0.2361  0.2759  0.4355
  102MOL    C9526557   1.997   7.366   4.673 -0.3408  0.6740  1.1226
  102MOL    C9626558   2.071   7.429   4.552  0.5522  0.0009  0.1327
  102MOL    C9726559   2.041   7.231   4.731 -1.1897  0.2508  0.0963
  102MOL    H9826560   1.845   7.626   4.703  0.2228  1.4820 -2.6770
  102MOL    H9926561   1.824   7.556   4.555 -1.7454 -0.7050 -0.4438
  102MOL   H10026562   1.839   7.362   4.796 -0.1095 -2.0507 -1.3082
  102MOL   H10126563   2.177   7.432   4.577  0.7671  1.1820 -0.8636
  102MOL   H10226564   2.041   7.530   4.527 -0.0835 -0.0197  0.7904
  102MOL   H10326565   2.067   7.373   4.458 -1.0607  1.8046 -0.9118
  102MOL   H10426566   2.059   7.152   4.658  0.8240  0.5032  0.2819
  102MOL   H10526567   1.967   7.183   4.795 -0.3860 -3.4162 -1.5850
  102MOL   C10626568   2.165   7.238   4.821 -1.0133  0.2998  0.7688
  102MOL   C10726569   2.164   7.137   4.930 -0.4798 -0.3061 -0.5026
  102MOL   C10826570   2.205   7.008   4.927  0.1341 -0.0637  0.2403
  102MOL   C10926571   2.259   6.938   4.801  0.0379  0.2975 -0.3475
  102MOL   C11026572   2.205   6.918   5.052 -0.0624  0.0121  0.0825
  102MOL   H11126573   2.172   7.332   4.874  0.4796  0.7993 -0.2831
  102MOL   H11226574   2.252   7.229   4.755 -1.1831  0.9909  0.4524
  102MOL   H11326575   2.131   7.174   5.026 -0.6957  3.5353 -1.9672
  102MOL   H11426576   2.197   6.850   4.784  0.7900 -0.3068  0.0354
  102MOL   H11526577   2.365   6.914   4.810 -0.6580 -2.3418  1.3749
  102MOL   H11626578   2.248   6.995   4.709 -0.2261 -0.0391 -0.5254
  102MOL   H11726579   2.144   6.828   5.046  0.4373 -0.2836 -0.6817
  102MOL   H11826580   2.151   6.967   5.133 -0.6255  0.5311 -0.5894
  102MOL   C11926581   2.340   6.894   5.112 -0.0490 -0.5464  0.2708
  102MOL   C12026582   2.322   6.788   5.219  0.2178  0.1183 -1.3316
  102MOL   C12126583   2.363   6.794   5.349 -0.0851 -0.8827 -0.5828
  102MOL   C12226584   2.450   6.902   5.401 -0.2619 -0.3936 -0.3391
  102MOL   C12326585   2.315   6.694   5.452 -0.4769 -0.5984  0.4718
  102MOL   H12426586   2.377   6.991   5.145 -1.3711 -0.0457  0.2990
  102MOL   H12526587   2.416   6.858   5.042  0.0164  0.3367 -0.1227
  102MOL   H12626588   2.263   6.702   5.188  1.3006 -1.1175 -0.0051
  102MOL   H12726589   2.504   6.869   5.490 -2.9628  0.0630  1.5086
  102MOL   H12826590   2.384   6.986   5.422 -2.5288 -1.8566 -1.4307
  102MOL   H12926591   2.515   6.931   5.318 -0.9094  1.4264 -0.2389
  102MOL   H13026592   2.211   6.670   5.427 -1.1215  3.6414 -1.2910
  102MOL   H13126593   2.309   6.753   5.544  0.2551  0.9916 -0.4756
  102MOL   C13226594   2.405   6.569   5.459  0.1997 -0.1190  0.4749
  102MOL   C13326595   2.340   6.442   5.516  0.1917  0.7788  0.1442
  102MOL   C13426596   2.293   6.334   5.450 -0.3119 -0.0500  1.1528
  102MOL   C13526597   2.298   6.311   5.300  0.1735 -0.1787  0.0153
  102MOL   C13626598   2.247   6.209   5.532  0.7546 -0.7217  0.0810
  102MOL   H13726599   2.490   6.592   5.522  0.5725 -0.1513 -0.0117
  102MOL   H13826600   2.453   6.551   5.363 -0.7655  1.3257 -0.2862
  102MOL   H13926601   2.329   6.430   5.623 -0.7257  0.0942 -0.0259
  102MOL   H14026602   2.345   6.398   5.254  1.2224 -0.3819  0.7007
  102MOL   H14126603   2.193   6.298   5.272  0.0306 -1.0858  0.9509
  102MOL   H14226604   2.358   6.222   5.281 -1.4933 -1.0939 -1.1291
  102MOL   H14326605   2.241   6.233   5.638 -0.6134 -1.9084  0.2948
  102MOL   H14426606   2.322   6.130   5.533  1.6055  0.0695  1.8852
  102MOL   C14526607   2.116   6.144   5.491  0.3477  0.2070 -0.4694
  102MOL   C14626608   2.078   6.043   5.595 -0.3354 -0.4842 -1.0715
  102MOL   C14726609   2.065   5.910   5.577  0.2186  0.1831  0.2792
  102MOL   C14826610   2.095   5.846   5.442  0.2034 -0.6138  0.7020
  102MOL   C14926611   2.014   5.813   5.679  0.5401 -0.1804 -0.7125
  102MOL   H15026612   2.124   6.095   5.394 -0.0679 -1.5933  0.3904
  102MOL   H15126613   2.029   6.209   5.481  0.4140  0.5712  1.1589
  102MOL   H15226614   2.053   6.082   5.693 -1.2551  0.4212 -1.6597
  102MOL   H15326615   2.006   5.861   5.380  1.1915 -1.1801 -0.8806
  102MOL   H15426616   2.105   5.737   5.443  0.4870 -0.5815  2.0610
  102MOL   H15526617   2.170   5.896   5.382  1.3165 -1.4161  1.4178
  102MOL   H15626618   2.009   5.853   5.781  1.5457 -1.2367 -0.2388
  102MOL   H15726619   2.098   5.743   5.682  0.8153  0.1800  0.0675
  102MOL   C15826620   1.888   5.744   5.635  0.7928  0.0622 -0.3077
  102MOL   C15926621   1.879   5.622   5.728  0.3679  0.0462  0.6654
  102MOL   C16026622   1.872   5.490   5.694  0.9265  0.0300  0.6596
  102MOL   C16126623   1.894   5.444   5.546 -0.8464 -0.3089 -0.1185
  102MOL   C16226624   1.857   5.384   5.800  0.0639  0.2174  0.3282
  102MOL   H16326625   1.873   5.707   5.533 -2.2822 -0.7759  0.3871
  102MOL   H16426626   1.800   5.805   5.659  0.9684  0.8807 -1.6410
  102MOL   H16526627   1.875   5.641   5.834  1.3476  2.8148  0.2300
  102MOL   H16626628   1.987   5.487   5.509 -2.4794  4.5190  0.9388
  102MOL   H16726629   1.821   5.496   5.484 -0.9329  1.4431  1.4024
  102MOL   H16826630   1.882   5.337   5.534 -1.8877  0.0085 -2.3377
  102MOL   H16926631   1.861   5.429   5.899  1.3510  0.1270  0.3152
  102MOL   H17026632   1.940   5.316   5.782  0.9921  1.6792 -0.9226
  102MOL   C17126633   1.731   5.301   5.800  0.5472 -0.5540  0.0075
  102MOL   C17226634   1.748   5.168   5.883  0.8648  0.3967  0.6251
  102MOL   C17326635   1.655   5.104   5.948 -0.5533 -0.3778 -0.0328
  102MOL   C17426636   1.512   5.142   5.980 -0.0753  0.0569  0.4374
  102MOL   C17526637   1.686   4.964   5.999  0.1669  0.5164 -0.0017
  102MOL   H17626638   1.710   5.264   5.699 -2.8481 -1.6015  1.0472
  102MOL   H17726639   1.653   5.364   5.841  0.1426 -0.7777 -0.4194
  102MOL   H17826640   1.840   5.115   5.867  0.1510 -0.6613 -0.0260
  102MOL   H17926641   1.489   5.126   6.085  0.1245 -1.5247  0.2572
  102MOL   H18026642   1.447   5.076   5.922  0.0129  0.0714  0.3212
  102MOL   H18126643   1.498   5.249   5.962  1.5865  0.3032  0.5520
  102MOL   H18226644   1.630   4.934   6.087 -1.0710  1.4423 -0.4573
  102MOL   H18326645   1.792   4.956   6.024  0.3362 -3.4458 -1.6373
  102MOL   C18426646   1.647   4.856   5.897  0.0956  0.1342  0.2901
  102MOL   C18526647   1.729   4.730   5.902 -0.8495 -0.5002  0.5205
  102MOL   C18626648   1.767   4.647   5.803 -1.1159 -0.4040 -0.0175
  102MOL   C18726649   1.732   4.668   5.656 -0.7159 -0.1134  0.3254
  102MOL   C18826650   1.853   4.524   5.840 -0.3295 -0.5876 -0.1929
  102MOL   H18926651   1.666   4.892   5.796  0.2350  0.5612  0.4655
  102MOL   H19026652   1.541   4.830   5.907  0.0172 -1.0096 -3.0871
  102MOL   H19126653   1.768   4.704   5.999  0.1616 -1.0514 -0.0268
  102MOL   H19226654   1.659   4.748   5.646 -1.5342 -0.8119  0.6432
  102MOL   H19326655   1.675   4.580   5.627 -1.4497  0.2997  0.5096
  102MOL   H19426656   1.819   4.678   5.591 -0.0456 -0.0975  1.2193
  102MOL   H19526657   1.800   4.444   5.789 -0.3898 -0.4605 -0.3288
  102MOL   H19626658   1.844   4.492   5.944 -2.3634 -0.5015 -0.3298
  102MOL   C19726659   2.005   4.532   5.807 -0.7299  0.3236 -0.1308
  102MOL   C19826660   2.084   4.402   5.835 -0.2937  0.0969  0.3118
  102MOL   C19926661   2.060   4.280   5.792 -0.2155  0.1744 -0.2236
  102MOL   C20026662   1.952   4.252   5.688 -0.1084  0.1254  0.6056
  102MOL   C20126663   2.135   4.150   5.827 -0.1859  0.0822 -0.2186
  102MOL   H20226664   2.058   4.612   5.859 -1.6558  0.5359  0.5015
  102MOL   H20326665   2.033   4.554   5.704 -0.3684 -0.9127 -0.3100
  102MOL   H20426666   2.149   4.410   5.921  0.0408  3.6702 -0.1863
  102MOL   H20526667   1.870   4.197   5.733  0.1747 -0.3914  0.4939
  102MOL   H20626668   1.994   4.181   5.617 -1.0104 -0.5236  0.7219
  102MOL   H20726669   1.917   4.345   5.643 -0.0434 -1.0541 -1.9513
  102MOL   H20826670   2.236   4.160   5.868  1.1196 -1.3473 -2.9124
  102MOL   H20926671   2.155   4.094   5.736 -0.7175  1.5829 -1.2767
  102MOL   C21026672   2.053   4.064   5.926 -0.8447  0.0063 -0.2020
  102MOL   C21126673   2.112   3.929   5.956  0.3133 -0.0385 -0.0075
  102MOL   C21226674   2.049   3.817   5.994 -0.4518  0.8251 -0.0786
  102MOL   C21326675   1.907   3.833   6.045 -0.1448  0.6682  0.0040
  102MOL   C21426676   2.123   3.685   6.018 -0.1652 -0.1723 -0.0049
  102MOL   H21526677   1.955   4.043   5.883 -0.4908 -0.3237 -0.8584
  102MOL   H21626678   2.056   4.121   6.019  1.5553 -0.9902  0.3782
  102MOL   H21726679   2.219   3.931   5.943  0.3992  0.9500  0.7876
  102MOL   H21826680   1.851   3.927   6.037 -1.7061  0.0210  2.5867
  102MOL   H21926681   1.910   3.805   6.150  1.8901  1.1207  0.0868
  102MOL   H22026682   1.846   3.757   5.996  1.4583  0.3453 -1.5417
  102MOL   H22126683   2.202   3.679   5.943 -2.0664  1.5114 -2.2148
  102MOL   H22226684   2.057   3.600   6.002 -0.3382  0.0167 -0.2992
  102MOL   C22326685   2.190   3.684   6.155 -0.2110 -0.2825 -0.3296
  102MOL   C22426686   2.278   3.566   6.176  0.5051 -0.5132  0.2624
  102MOL   C22526687   2.254   3.456   6.249 -0.0454 -0.0017  0.5422
  102MOL   C22626688   2.124   3.425   6.319  0.0868 -0.2391  0.4615
  102MOL   C22726689   2.347   3.333   6.250 -0.3848 -0.2639  0.4618
  102MOL   H22826690   2.117   3.691   6.236 -0.7393 -1.5149 -0.6826
  102MOL   H22926691   2.249   3.775   6.166  1.5430 -1.4020 -0.3483
  102MOL   H23026692   2.365   3.576   6.114  0.3572 -0.2127  0.1031
  102MOL   H23126693   2.133   3.434   6.427 -1.8550 -1.2599  0.7387
  102MOL   H23226694   2.086   3.328   6.287  3.1800 -0.7520 -1.8510
  102MOL   H23326695   2.047   3.498   6.291 -0.9178 -1.4273  0.0681
  102MOL   H23426696   2.318   3.266   6.331  2.6545 -1.1750  0.8693
  102MOL   H23526697   2.446   3.368   6.277 -0.8087  2.4667 -1.3475
  102MOL   C23626698   2.349   3.256   6.118  0.3582  1.4094  0.5786
  102MOL   C23726699   2.472   3.169   6.118 -0.1087  0.4742  0.8145
  102MOL   C23826700   2.599   3.203   6.102  0.0339 -0.0888  0.1286
  102MOL   C23926701   2.641   3.346   6.061  0.1117 -0.2614 -0.3111
  102MOL   C24026702   2.711   3.095   6.109 -0.2751 -0.1768  0.2509
  102MOL   H24126703   2.354   3.324   6.033 -1.0514 -1.4525 -1.8913
  102MOL   H24226704   2.258   3.196   6.114  1.5152 -0.3057 -1.2597
  102MOL   H24326705   2.454   3.066   6.148 -0.4260  0.2211 -0.2358
  102MOL   H24426706   2.568   3.419   6.098 -0.6407 -2.5120  2.9060
  102MOL   H24526707   2.641   3.351   5.953  4.2559 -0.4276 -0.4016
  102MOL   H24626708   2.738   3.378   6.101  0.5213 -0.2794 -1.2852
  102MOL   H24726709   2.668   3.002   6.147 -1.7924 -0.3678 -1.8976
  102MOL   H24826710   2.772   3.115   6.198 -1.4345 -0.2716  1.0797
  102MOL   C24926711   2.786   3.089   5.978  0.3466  0.3180  0.3173
  102MOL   C25026712   2.899   2.992   5.987  0.7745 -0.4978  0.1814
  102MOL   C25126713   3.033   3.022   5.985  0.2825 -0.7569  0.3730
  102MOL   C25226714   3.087   3.168   5.981 -0.0055  0.0596 -0.0080
  102MOL   C25326715   3.139   2.918   5.971 -0.1035  0.4903  0.2262
  102MOL   H25426716   2.829   3.185   5.949 -1.3975 -0.2266 -4.5470
  102MOL   H25526717   2.716   3.066   5.898  1.0978 -0.5742 -0.0910
  102MOL   H25626718   2.853   2.895   5.975 -0.6514  0.2432 -0.4863
  102MOL   H25726719   3.043   3.219   6.067  2.0381 -0.5692  1.4528
  102MOL   H25826720   3.088   3.224   5.888 -1.6874 -1.6965 -1.1347
  102MOL   H25926721   3.194   3.165   6.001  0.0958  0.0177 -0.5548
  102MOL   H26026722   3.198   2.935   5.881 -2.2086  0.7723 -1.1221
  102MOL   H26126723   3.096   2.818   5.982 -0.0268  0.3075 -1.0986
  102MOL   H26226724   3.212   2.932   6.051  1.1423 -0.4824 -0.7383
  103MOL     C126725   3.171   4.675   3.435 -0.5873  0.3065 -0.6041
  103MOL     C226726   3.070   4.577   3.493  0.3702  0.2875  0.1255
  103MOL     C326727   3.061   4.558   3.626  0.7437 -0.3270 -0.5735
  103MOL     C426728   3.143   4.622   3.738  0.5739  0.3360  0.3255
  103MOL     C526729   2.950   4.460   3.673  0.0531  0.1912 -0.2497
  103MOL     H626730   3.120   4.744   3.368 -0.9083 -1.1954 -1.9091
  103MOL     H726731   3.206   4.737   3.518 -0.0226 -0.0138 -0.5978
  103MOL     H826732   3.017   4.511   3.426 -1.5932 -0.8460  2.6951
  103MOL     H926733   3.159   4.547   3.816  0.4439 -1.5107 -1.3831
  103MOL    H1026734   3.094   4.706   3.786  0.3579  0.2624  0.2286
  103MOL    H1126735   3.242   4.651   3.701 -0.5600  2.3081 -1.2368
  103MOL    H1226736   3.020   4.386   3.711 -0.7398 -0.4581 -0.0450
  103MOL    H1326737   2.889   4.417   3.593 -1.2426 -1.4958  1.6321
  103MOL    H1426738   3.256   4.618   3.398 -0.8185  0.4118 -1.3000
  103MOL    C1526739   2.838   4.523   3.759  0.2617  0.1721  0.0875
  103MOL    C1626740   2.732   4.427   3.795 -1.1698  0.2793  0.4469
  103MOL    C1726741   2.605   4.465   3.825  0.4357  0.0986  0.4030
  103MOL    C1826742   2.555   4.607   3.805 -0.0273 -0.0553  0.3631
  103MOL    C1926743   2.503   4.373   3.884  0.0397  0.8598 -1.1731
  103MOL    H2026744   2.803   4.603   3.693  3.3149  0.9867 -0.5902
  103MOL    H2126745   2.878   4.560   3.853 -0.2822 -0.9658  0.7821
  103MOL    H2226746   2.751   4.323   3.813 -0.6424  0.9232  3.9231
  103MOL    H2326747   2.620   4.690   3.834  1.1549 -0.1903 -1.7836
  103MOL    H2426748   2.463   4.628   3.860  0.6680 -0.1424  1.5752
  103MOL    H2526749   2.554   4.636   3.700 -1.4456  2.0518  0.9393
  103MOL    H2626750   2.462   4.426   3.970  1.7141 -0.1331  0.2751
  103MOL    H2726751   2.551   4.290   3.936 -1.9798  0.6957  0.4891
  103MOL    C2826752   2.398   4.307   3.786  0.3248  0.5027  0.0380
  103MOL    C2926753   2.271   4.283   3.866 -0.7139  0.1419  0.1393
  103MOL    C3026754   2.199   4.168   3.875 -0.1630  0.2343  0.5872
  103MOL    C3126755   2.231   4.041   3.808  0.4711 -0.5355 -0.0750
  103MOL    C3226756   2.063   4.166   3.943 -0.1368  0.2102  0.2747
  103MOL    H3326757   2.427   4.222   3.724  0.6076  0.1783  0.6117
  103MOL    H3426758   2.358   4.381   3.718 -2.8552 -2.2017 -1.2261
  103MOL    H3526759   2.226   4.359   3.928 -3.3449 -0.9280 -0.4359
  103MOL    H3626760   2.169   4.044   3.719  1.2740 -1.2395 -0.6711
  103MOL    H3726761   2.207   3.953   3.867  0.2365  1.6207  3.2151
  103MOL    H3826762   2.333   4.028   3.772 -0.1992 -0.3858 -2.1038
  103MOL    H3926763   1.982   4.113   3.892  0.9284 -0.7841 -0.4277
  103MOL    H4026764   2.033   4.266   3.973  0.4987 -0.0846  1.9356
  103MOL    C4126765   2.081   4.105   4.083 -0.1733  0.2786 -0.4879
  103MOL    C4226766   2.161   4.201   4.175  0.3051  0.4610  0.6674
  103MOL    C4326767   2.286   4.173   4.232 -0.1470  0.1259 -0.2891
  103MOL    C4426768   2.374   4.051   4.197 -0.8840  0.0160 -0.1700
  103MOL    C4526769   2.344   4.276   4.327 -0.2811  0.6239  0.6826
  103MOL    H4626770   2.118   4.003   4.078  2.4319  1.2405 -2.2305
  103MOL    H4726771   1.984   4.088   4.129  0.2178 -0.5953  0.0130
  103MOL    H4826772   2.119   4.298   4.198  2.7256  1.7007  0.0871
  103MOL    H4926773   2.358   4.030   4.092  1.0030  1.0449 -0.6770
  103MOL    H5026774   2.342   3.964   4.254 -1.8072 -0.7066 -1.7547
  103MOL    H5126775   2.481   4.072   4.205 -0.3488 -1.7886 -2.4336
  103MOL    H5226776   2.277   4.362   4.330 -0.5322  0.3612  3.5010
  103MOL    H5326777   2.441   4.308   4.290 -1.3274  0.0010 -2.8216
  103MOL    C5426778   2.350   4.212   4.462  0.1024 -0.3388 -0.7707
  103MOL    C5526779   2.388   4.316   4.569 -0.0269  0.4637  0.1683
  103MOL    C5626780   2.320   4.346   4.680  0.7954 -0.4099  0.1933
  103MOL    C5726781   2.193   4.266   4.715 -0.9939  0.4337 -0.0392
  103MOL    C5826782   2.365   4.452   4.779  0.9094 -0.3353  0.4931
  103MOL    H5926783   2.431   4.139   4.458  0.5532  0.0371  1.0972
  103MOL    H6026784   2.252   4.168   4.481  0.2279  0.6166  2.4368
  103MOL    H6126785   2.482   4.368   4.551 -0.1811  0.3186 -1.1169
  103MOL    H6226786   2.184   4.167   4.670  0.0535 -0.7060  2.1512
  103MOL    H6326787   2.111   4.333   4.688 -0.7178  0.5519 -0.5834
  103MOL    H6426788   2.193   4.259   4.824 -0.7476 -0.6218 -0.1055
  103MOL    H6526789   2.278   4.487   4.836 -0.5994  1.2652 -2.6642
  103MOL    H6626790   2.403   4.536   4.721 -1.3465  1.8991  2.1224
  103MOL    C6726791   2.464   4.416   4.886  0.4686  0.5826  0.3549
  103MOL    C6826792   2.521   4.535   4.965 -0.5070  0.2364  0.6011
  103MOL    C6926793   2.586   4.532   5.084  0.7130  0.4561  0.0349
  103MOL    C7026794   2.610   4.412   5.171  0.4640 -0.1768 -0.6915
  103MOL    C7126795   2.636   4.670   5.138  0.6424  0.2306 -0.5050
  103MOL    H7226796   2.548   4.374   4.831 -2.4021 -0.7840 -3.1809
  103MOL    H7326797   2.436   4.337   4.956 -0.9378 -1.2759 -2.2304
  103MOL    H7426798   2.504   4.628   4.912  2.2129  1.5745  1.9874
  103MOL    H7526799   2.566   4.424   5.270 -2.8672 -2.2714 -1.8426
  103MOL    H7626800   2.719   4.416   5.183  0.2874  3.0760  0.3248
  103MOL    H7726801   2.594   4.318   5.118 -0.6940 -1.1236  1.2652
  103MOL    H7826802   2.643   4.733   5.049 -1.0219 -1.1410 -1.6472
  103MOL    H7926803   2.735   4.652   5.181 -0.7582 -1.4844  2.1363
  103MOL    C8026804   2.549   4.744   5.239 -0.1765  0.4950  0.1691
  103MOL    C8126805   2.581   4.889   5.261  0.0617 -0.6678  0.5937
  103MOL    C8226806   2.496   4.968   5.340 -0.0254 -0.5554  0.3824
  103MOL    C8326807   2.364   4.926   5.407  0.0600  1.3787 -0.1190
  103MOL    C8426808   2.541   5.109   5.376  0.3377  0.5039 -0.9478
  103MOL    H8526809   2.570   4.689   5.330 -1.1729  1.8438  1.2364
  103MOL    H8626810   2.443   4.727   5.224 -0.1079  0.8303 -0.7534
  103MOL    H8726811   2.669   4.926   5.211  1.5925  0.2165  3.7937
  103MOL    H8826812   2.354   4.818   5.400 -2.9007  1.7497 -2.2946
  103MOL    H8926813   2.279   4.968   5.354 -0.6396 -0.0096 -0.1006
  103MOL    H9026814   2.361   4.953   5.512  2.1460 -1.6206  0.7641
  103MOL    H9126815   2.632   5.123   5.319  0.7529 -0.5371 -0.5567
  103MOL    H9226816   2.568   5.102   5.482  0.3856 -2.4176 -1.0930
  103MOL    C9326817   2.440   5.222   5.353 -0.3297  0.0936  0.0467
  103MOL    C9426818   2.405   5.231   5.207  0.3718  0.3287 -0.1186
  103MOL    C9526819   2.279   5.209   5.161  0.1831  0.4938  0.5086
  103MOL    C9626820   2.148   5.181   5.245  0.0560 -0.2303  0.5017
  103MOL    C9726821   2.250   5.216   5.007  0.5152  0.0702  0.3575
  103MOL    H9826822   2.492   5.314   5.383  0.4687  0.1592 -1.4684
  103MOL    H9926823   2.359   5.206   5.424 -1.5675  3.1675 -0.5681
  103MOL   H10026824   2.492   5.237   5.144  0.6144  0.5377  0.2370
  103MOL   H10126825   2.088   5.092   5.225  0.0355 -0.4355  1.4546
  103MOL   H10226826   2.088   5.272   5.254 -0.5181 -0.5393 -0.1602
  103MOL   H10326827   2.174   5.160   5.348 -2.5939 -1.0237  1.0223
  103MOL   H10426828   2.329   5.255   4.942 -0.8865 -1.4538 -2.3312
  103MOL   H10526829   2.161   5.278   5.008  0.8528  0.5406  1.3298
  103MOL   C10626830   2.216   5.074   4.955 -0.4868 -0.1062 -0.0139
  103MOL   C10726831   2.164   5.087   4.816  0.0739  0.5589 -0.5229
  103MOL   C10826832   2.223   5.035   4.704 -0.0040  0.4774 -0.0608
  103MOL   C10926833   2.352   4.945   4.706  0.1497 -0.5024 -0.4065
  103MOL   C11026834   2.179   5.062   4.564  0.3993  0.0093  0.7058
  103MOL   H11126835   2.133   5.030   5.010  0.0875 -0.4426  0.5768
  103MOL   H11226836   2.303   5.010   4.958 -0.2623  0.1291 -1.1741
  103MOL   H11326837   2.077   5.150   4.820 -0.9976 -1.0104  1.6261
  103MOL   H11426838   2.370   4.884   4.618  0.2728 -2.8222  1.1594
  103MOL   H11526839   2.351   4.882   4.796  0.9054 -0.0554 -0.0844
  103MOL   H11626840   2.436   5.013   4.712 -0.0363 -0.3028 -0.0266
  103MOL   H11726841   2.201   4.973   4.506  1.0298  1.5352 -1.4554
  103MOL   H11826842   2.259   5.129   4.531  1.2759 -1.1158  0.5097
  103MOL   C11926843   2.030   5.112   4.540  0.2103  0.1875  0.2063
  103MOL   C12026844   2.000   5.157   4.395 -0.9065  0.6960  0.7125
  103MOL   C12126845   2.017   5.285   4.354 -0.7960  0.1412  0.7333
  103MOL   C12226846   2.087   5.388   4.441  0.7069 -0.3010 -0.3857
  103MOL   C12326847   2.008   5.308   4.206 -0.1140  0.4626 -0.3472
  103MOL   H12426848   2.002   5.193   4.607 -0.8327  1.5590 -1.8386
  103MOL   H12526849   1.968   5.023   4.552  1.0080 -0.2625  1.0727
  103MOL   H12626850   1.973   5.077   4.328  1.9261 -0.5495  0.9983
  103MOL   H12726851   2.187   5.346   4.448 -0.1634 -2.7865 -2.1351
  103MOL   H12826852   2.035   5.392   4.537  1.0925 -0.8332 -0.1514
  103MOL   H12926853   2.088   5.485   4.393 -1.5508 -1.5363 -3.0682
  103MOL   H13026854   1.945   5.233   4.158  0.0114 -1.0656  1.7691
  103MOL   H13126855   2.109   5.310   4.167 -0.0988  0.5525 -0.3034
  103MOL   C13226856   1.939   5.438   4.167  0.4296 -0.6208 -0.3380
  103MOL   C13326857   1.888   5.450   4.021  0.0145  0.0373  0.0722
  103MOL   C13426858   1.958   5.500   3.918  0.5378  0.6607  0.2262
  103MOL   C13526859   2.103   5.537   3.926 -0.2512 -0.2826  0.2935
  103MOL   C13626860   1.892   5.525   3.786 -0.0336  0.1233 -0.0924
  103MOL   H13726861   1.992   5.532   4.187 -1.8133  1.2313 -2.6955
  103MOL   H13826862   1.854   5.463   4.231  1.3621 -0.5454  0.8791
  103MOL   H13926863   1.786   5.418   4.011  0.2182  0.1591 -2.6146
  103MOL   H14026864   2.119   5.641   3.897  0.2418 -0.6610 -0.8254
  103MOL   H14126865   2.174   5.471   3.877 -0.4316  0.2328 -0.6667
  103MOL   H14226866   2.132   5.538   4.031 -0.9088  0.7989  0.4762
  103MOL   H14326867   1.813   5.449   3.778  1.8872 -1.6212 -3.2478
  103MOL   H14426868   1.964   5.511   3.706 -1.7298 -0.6331 -1.5334
  103MOL   C14526869   1.840   5.664   3.781 -0.2664 -0.2674 -0.5859
  103MOL   C14626870   1.750   5.704   3.658  0.3380 -0.1100  1.3315
  103MOL   C14726871   1.653   5.799   3.652  0.4231 -0.1967 -0.5923
  103MOL   C14826872   1.610   5.884   3.770  0.1223  0.0298 -0.5388
  103MOL   C14926873   1.597   5.832   3.515  0.3405 -0.0328 -0.8759
  103MOL   H15026874   1.927   5.729   3.780 -0.9339  0.6257 -0.2523
  103MOL   H15126875   1.789   5.688   3.874  2.5054  0.7244  0.7371
  103MOL   H15226876   1.777   5.657   3.565  0.5623 -2.1012  2.3824
  103MOL   H15326877   1.505   5.910   3.753 -0.0988 -0.4829 -0.0198
  103MOL   H15426878   1.659   5.980   3.777  2.2856 -1.0908  0.0748
  103MOL   H15526879   1.621   5.830   3.864 -1.0870  1.4432  0.4425
  103MOL   H15626880   1.489   5.834   3.534  0.5569  0.4506  0.3669
  103MOL   H15726881   1.620   5.756   3.440  0.8756  0.9625 -1.7174
  103MOL   C15826882   1.634   5.976   3.478 -0.3589  0.1373 -0.4273
  103MOL   C15926883   1.560   6.027   3.356 -0.0118 -0.5183 -0.1341
  103MOL   C16026884   1.610   6.108   3.260 -0.2251 -0.7912 -0.7856
  103MOL   C16126885   1.746   6.166   3.254 -0.4999 -0.1897 -0.0420
  103MOL   C16226886   1.511   6.155   3.148  0.9119  0.4455  0.3409
  103MOL   H16326887   1.741   5.978   3.459 -0.2936 -3.1527 -0.7160
  103MOL   H16426888   1.612   6.043   3.561  3.3870  0.5414  0.3231
  103MOL   H16526889   1.462   5.982   3.345  0.0588 -0.7790  0.3282
  103MOL   H16626890   1.816   6.137   3.333 -0.0374  0.4862 -0.2007
  103MOL   H16726891   1.741   6.275   3.251  3.4434  0.0735  0.3093
  103MOL   H16826892   1.776   6.147   3.152 -1.5227 -2.1853  0.0038
  103MOL   H16926893   1.415   6.105   3.158  0.8282  0.1539 -1.8210
  103MOL   H17026894   1.555   6.115   3.057 -0.9631  0.0148 -0.3993
  103MOL   C17126895   1.490   6.305   3.146 -0.2344  0.7929  0.2517
  103MOL   C17226896   1.386   6.352   3.045  0.3671 -0.2301  0.0620
  103MOL   C17326897   1.274   6.431   3.062  0.1371  0.1514 -1.0761
  103MOL   C17426898   1.236   6.498   3.201  0.1459 -0.2839  0.2364
  103MOL   C17526899   1.193   6.484   2.946  0.2036  0.1993  0.2432
  103MOL   H17626900   1.583   6.356   3.120 -0.6966  1.0299 -0.9523
  103MOL   H17726901   1.475   6.350   3.244 -1.8847  0.7869  0.0141
  103MOL   H17826902   1.395   6.324   2.941 -1.3883  0.1270 -0.1944
  103MOL   H17926903   1.209   6.603   3.199 -1.4462 -0.6894  0.4253
  103MOL   H18026904   1.307   6.480   3.283 -2.0474 -1.7870  1.8619
  103MOL   H18126905   1.141   6.447   3.217  0.2976 -1.4872 -2.4729
  103MOL   H18226906   1.236   6.576   2.906 -2.1249  0.9992 -0.5207
  103MOL   H18326907   1.095   6.516   2.981 -0.7085 -1.4050 -0.8155
  103MOL   C18426908   1.162   6.392   2.829  0.2502 -0.1431 -0.2221
  103MOL   C18526909   1.052   6.294   2.860 -0.0684 -0.6887 -0.2201
  103MOL   C18626910   1.062   6.170   2.901 -0.0527  0.3992  0.6068
  103MOL   C18726911   1.196   6.102   2.900 -0.4206 -0.1323 -0.5215
  103MOL   C18826912   0.933   6.079   2.932  0.3294 -0.5666 -0.3263
  103MOL   H18926913   1.247   6.352   2.774  0.2181 -0.5849  0.0545
  103MOL   H19026914   1.118   6.455   2.751  2.5514  1.7599 -0.0723
  103MOL   H19126915   0.955   6.339   2.850 -0.1087 -1.0913 -1.7100
  103MOL   H19226916   1.242   6.109   2.999  1.2624  0.5463 -1.3345
  103MOL   H19326917   1.250   6.159   2.825  0.3291 -1.8862 -1.3314
  103MOL   H19426918   1.179   6.005   2.855  1.2663 -0.0368 -1.4063
  103MOL   H19526919   0.925   6.002   2.855 -0.8696 -0.8958  0.1162
  103MOL   H19626920   0.844   6.142   2.939 -0.1888 -1.3470  0.2827
  103MOL   C19726921   0.936   6.013   3.066  0.1751 -0.2873 -0.0735
  103MOL   C19826922   0.820   5.920   3.095 -0.2860 -0.5295 -0.4005
  103MOL   C19926923   0.818   5.786   3.111  0.7044 -0.2146 -1.1297
  103MOL   C20026924   0.943   5.689   3.102 -0.4270  0.7371  0.2377
  103MOL   C20126925   0.693   5.704   3.133  0.7348 -0.5754  0.3179
  103MOL   H20226926   0.947   6.092   3.141  0.1235 -2.3560  2.1642
  103MOL   H20326927   1.031   5.959   3.063 -0.3438 -1.1056 -3.0883
  103MOL   H20426928   0.724   5.971   3.094 -0.2672 -0.5145 -1.5643
  103MOL   H20526929   0.982   5.669   3.202 -0.2231  0.1461  0.0447
  103MOL   H20626930   1.019   5.742   3.045 -0.1631  0.7051  0.5604
  103MOL   H20726931   0.914   5.595   3.054  2.5335 -0.0687 -0.0744
  103MOL   H20826932   0.678   5.640   3.046 -0.6294  0.9643 -0.5970
  103MOL   H20926933   0.603   5.766   3.135  0.1157 -1.4836  1.4139
  103MOL   C21026934   0.702   5.614   3.263 -0.2325  0.0004 -0.3798
  103MOL   C21126935   0.571   5.550   3.290 -0.4981  0.0180 -0.5733
  103MOL   C21226936   0.478   5.583   3.387 -0.5062 -0.0057 -0.4381
  103MOL   C21326937   0.500   5.699   3.483  0.2566  0.1206  0.1466
  103MOL   C21426938   0.351   5.504   3.410 -0.5837 -0.1839 -0.6295
  103MOL   H21526939   0.737   5.684   3.338 -2.0957  2.8532 -2.0873
  103MOL   H21626940   0.784   5.543   3.253 -0.0461  0.3956 -1.8648
  103MOL   H21726941   0.544   5.462   3.232  1.7392 -2.1549  1.5536
  103MOL   H21826942   0.532   5.662   3.581 -0.5465 -0.8208  0.0543
  103MOL   H21926943   0.411   5.755   3.511 -0.1561  0.8860 -2.5716
  103MOL   H22026944   0.564   5.780   3.447  1.2578 -0.1663  1.2393
  103MOL   H22126945   0.349   5.461   3.511 -1.9418 -0.9458 -0.9623
  103MOL   H22226946   0.347   5.423   3.337  1.9272  0.2795 -1.3274
  103MOL   C22326947   0.225   5.587   3.373  0.0416  0.3374  0.1326
  103MOL   C22426948   0.092   5.507   3.352  0.6328  0.5219 -0.9471
  103MOL   C22526949   0.020   5.485   3.239  0.0859 -0.5708  0.0320
  103MOL   C22626950   0.073   5.527   3.105 -0.4006  0.0263  0.2725
  103MOL   C22726951   7.767   5.412   3.251  0.4031  0.5059 -0.1703
  103MOL   H22826952   0.236   5.652   3.287  4.3147 -0.7485 -0.2387
  103MOL   H22926953   0.200   5.654   3.455  0.9157 -0.5151  1.1285
  103MOL   H23026954   0.057   5.464   3.445  0.3189  0.8399 -0.9161
  103MOL   H23126955   0.166   5.473   3.087 -0.5590 -0.2699  0.3357
  103MOL   H23226956   0.092   5.632   3.082  1.5852 -0.8423 -2.2610
  103MOL   H23326957   0.013   5.501   3.018  0.5732  1.1160 -0.7505
  103MOL   H23426958   7.688   5.472   3.206 -0.0758  0.4859  0.6369
  103MOL   H23526959   7.744   5.399   3.356 -0.6664 -0.5096 -0.5209
  103MOL   C23626960   7.765   5.276   3.178  0.2373 -0.0661  0.2530
  103MOL   C23726961   7.848   5.166   3.249 -0.1640  0.1345 -0.1614
  103MOL   C23826962   0.071   5.103   3.202 -0.0796  0.1073  0.2748
  103MOL   C23926963   0.136   5.132   3.065  0.2886 -0.6477 -0.5964
  103MOL   C24026964   0.141   4.994   3.279 -0.5054 -0.6220 -0.1100
  103MOL   H24126965   7.792   5.288   3.073  0.3848 -0.4411  0.2453
  103MOL   H24226966   7.664   5.237   3.171 -0.2019  1.3586 -1.6924
  103MOL   H24326967   7.813   5.135   3.346  3.5945  1.8964  1.8779
  103MOL   H24426968   0.079   5.194   2.995  2.4186 -0.0333 -1.8227
  103MOL   H24526969   0.172   5.040   3.020  1.4397 -0.1963 -0.6253
  103MOL   H24626970   0.217   5.192   3.107 -1.6268  2.0758 -0.6325
  103MOL   H24726971   0.173   4.914   3.211  0.8253 -0.1452 -0.0605
  103MOL   H24826972   0.065   4.945   3.339 -1.7896  1.6176  0.1122
  103MOL   C24926973   0.261   5.052   3.360  0.3744 -0.0725 -0.1600
  103MOL   C25026974   0.321   4.952   3.447 -0.2352 -0.3376 -0.7841
  103MOL   C25126975   0.341   4.967   3.576  0.1780  0.0735  0.0881
  103MOL   C25226976   0.305   5.090   3.658 -0.4853 -0.1629  0.2517
  103MOL   C25326977   0.388   4.846   3.659  0.2125  0.0962 -0.2488
  103MOL   H25426978   0.234   5.142   3.416  0.8801  0.5843 -0.9674
  103MOL   H25526979   0.337   5.084   3.289 -0.1480  0.6803 -0.3963
  103MOL   H25626980   0.336   4.858   3.396  0.7146 -1.0055  0.6955
  103MOL   H25726981   0.209   5.071   3.707 -1.7766  3.5104 -0.6973
  103MOL   H25826982   0.298   5.177   3.592  1.4021  0.6241  1.0455
  103MOL   H25926983   0.377   5.116   3.735 -2.6012  1.1669  1.8671
  103MOL   H26026984   0.490   4.868   3.690  0.3861  1.6440 -1.8126
  103MOL   H26126985   0.387   4.756   3.597  0.2624  0.4668 -0.7870
  103MOL   H26226986   0.319   4.835   3.742  0.7622 -0.4956  0.1358
  104MOL     C126987   3.663   0.813   1.866  0.2029 -0.6155 -0.1763
  104MOL     C226988   3.702   0.677   1.820 -0.1113  0.4551  0.2643
  104MOL     C326989   3.793   0.645   1.726 -0.2514 -0.3321 -0.2772
  104MOL     C426990   3.882   0.745   1.654  0.4878 -0.4107  0.7434
  104MOL     C526991   3.834   0.499   1.690  0.0783  0.9537 -0.3066
  104MOL     H626992   3.696   0.837   1.966 -1.5116  0.5250  0.1334
  104MOL     H726993   3.690   0.885   1.788  0.2181  1.1781  1.4585
  104MOL     H826994   3.652   0.593   1.867 -0.2173  0.2823 -0.1547
  104MOL     H926995   3.981   0.734   1.697  1.0333 -2.9490 -0.9976
  104MOL    H1026996   3.853   0.850   1.655  1.8180  0.0168 -1.6258
  104MOL    H1126997   3.885   0.720   1.547 -1.2155 -5.4146  1.7258
  104MOL    H1226998   3.841   0.442   1.783 -2.7543  1.1989  0.1016
  104MOL    H1326999   3.932   0.507   1.643 -0.7557 -0.4191 -2.3340
  104MOL    H1427000   3.554   0.814   1.878  0.4692 -2.2749  2.6747
  104MOL    C1527001   3.737   0.441   1.594  0.4231  0.0721  0.7278
  104MOL    C1627002   3.790   0.309   1.549  0.2107 -0.8420  0.3099
  104MOL    C1727003   3.868   0.298   1.437  0.3493 -0.0043 -0.2518
  104MOL    C1827004   3.936   0.410   1.359  0.2788 -0.2088 -0.0381
  104MOL    C1927005   3.949   0.172   1.403  0.1503 -0.5797 -0.1400
  104MOL    H2027006   3.726   0.503   1.505  3.8228  1.4613  1.1829
  104MOL    H2127007   3.636   0.445   1.636  0.1183 -0.7611  0.0760
  104MOL    H2227008   3.771   0.229   1.619 -0.0498 -0.0071  1.2065
  104MOL    H2327009   3.901   0.509   1.387  0.0141 -0.7102  1.4707
  104MOL    H2427010   3.925   0.383   1.254 -2.7753 -1.4106  0.5254
  104MOL    H2527011   4.041   0.421   1.387 -0.3213  1.1938  1.7378
  104MOL    H2627012   4.054   0.195   1.425 -0.4341  1.2539  0.8609
  104MOL    H2727013   3.929   0.135   1.303  0.5013 -1.3249  0.0634
  104MOL    C2827014   3.905   0.054   1.497  0.0195  0.0846  0.5319
  104MOL    C2927015   3.984   7.813   1.469 -0.0641 -0.2111  0.0096
  104MOL    C3027016   3.976   7.701   1.540  0.0755 -0.4426  0.5263
  104MOL    C3127017   3.889   7.690   1.660  0.1894  0.5195  0.2562
  104MOL    C3227018   4.053   7.582   1.491 -0.2516 -0.0489 -0.3948
  104MOL    H3327019   3.802   0.027   1.476 -0.2718  1.4563  0.1272
  104MOL    H3427020   3.920   0.093   1.598  0.9153  2.3079 -0.4100
  104MOL    H3527021   4.048   7.808   1.382 -0.4701  2.3278 -0.4804
  104MOL    H3627022   3.883   7.783   1.715 -0.6870 -0.1552  1.3349
  104MOL    H3727023   3.933   7.609   1.719  2.2989  0.8230 -0.8415
  104MOL    H3827024   3.793   7.650   1.626 -0.1623  0.9660  0.7237
  104MOL    H3927025   4.111   7.529   1.566 -0.9297 -0.3121 -0.0584
  104MOL    H4027026   4.133   7.610   1.422  0.7143 -0.9965  0.3135
  104MOL    C4127027   3.969   7.481   1.414 -0.3251  1.2303 -0.3590
  104MOL    C4227028   4.043   7.349   1.399 -0.3697  1.0029 -0.8461
  104MOL    C4327029   4.059   7.286   1.286  0.1936 -0.7404 -0.1142
  104MOL    C4427030   4.024   7.348   1.142 -0.2176 -0.1363  0.6379
  104MOL    C4527031   4.120   7.146   1.281 -0.3104 -0.3477  0.2530
  104MOL    H4627032   3.915   7.517   1.326 -1.3502  1.5615  0.3870
  104MOL    H4727033   3.884   7.467   1.481 -0.9159 -0.4649 -1.4497
  104MOL    H4827034   4.067   7.294   1.489  1.1902  0.2377 -1.7196
  104MOL    H4927035   4.029   7.456   1.129  1.6046 -0.5330 -2.3977
  104MOL    H5027036   3.936   7.297   1.104  0.8296 -0.9282 -0.7995
  104MOL    H5127037   4.100   7.320   1.069 -1.4660 -0.8192 -0.4234
  104MOL    H5227038   4.060   7.088   1.211 -0.6018 -0.2606  0.4337
  104MOL    H5327039   4.102   7.093   1.374 -3.3604  0.9682  0.4804
  104MOL    C5427040   4.263   7.134   1.223 -0.0611 -0.1465  0.5531
  104MOL    C5527041   4.296   6.988   1.203 -0.1300  0.5382 -0.2919
  104MOL    C5627042   4.381   6.901   1.269 -0.4545 -0.5826  0.5131
  104MOL    C5727043   4.489   6.945   1.368 -0.2665  0.5308 -0.0717
  104MOL    C5827044   4.379   6.750   1.239  0.3174 -0.2655 -0.2954
  104MOL    H5927045   4.332   7.187   1.288  0.3048  1.6659 -1.2579
  104MOL    H6027046   4.265   7.172   1.121 -1.1359 -1.1055  0.1482
  104MOL    H6127047   4.234   6.936   1.132  1.4764  0.2558 -1.5291
  104MOL    H6227048   4.485   7.054   1.373 -1.3821  0.4747  0.1989
  104MOL    H6327049   4.592   6.918   1.345 -0.5761  1.0688 -2.2199
  104MOL    H6427050   4.473   6.917   1.472  0.6620  0.6996  0.1263
  104MOL    H6527051   4.482   6.717   1.246  0.3336 -0.4044 -1.1050
  104MOL    H6627052   4.352   6.710   1.141  1.9927  0.3222 -1.0165
  104MOL    C6727053   4.295   6.680   1.352  0.0170 -0.2642  0.4536
  104MOL    C6827054   4.298   6.524   1.351 -0.5311  0.3685 -0.2926
  104MOL    C6927055   4.369   6.437   1.426  0.0926  0.5322 -0.6104
  104MOL    C7027056   4.481   6.481   1.522  0.0422  0.4906  1.3483
  104MOL    C7127057   4.351   6.285   1.408  0.1054  0.1364 -0.1665
  104MOL    H7227058   4.192   6.714   1.363 -0.0868 -0.3643 -0.1882
  104MOL    H7327059   4.354   6.715   1.436 -0.3581 -0.8832  0.9807
  104MOL    H7427060   4.218   6.482   1.292 -0.3309  0.3112 -0.5238
  104MOL    H7527061   4.569   6.510   1.465 -0.8038 -0.3894 -0.4615
  104MOL    H7627062   4.498   6.413   1.605 -0.5735 -0.4364  0.7250
  104MOL    H7727063   4.442   6.571   1.569  0.8058  2.7293 -2.1610
  104MOL    H7827064   4.271   6.259   1.339 -0.3598 -3.3912  1.5722
  104MOL    H7927065   4.316   6.255   1.507 -1.5589  1.1059 -0.4432
  104MOL    C8027066   4.482   6.205   1.366  0.2064 -1.2330 -0.0949
  104MOL    C8127067   4.526   6.240   1.225 -0.4976  0.3905 -0.7456
  104MOL    C8227068   4.655   6.257   1.189  0.5840 -0.7111  0.5344
  104MOL    C8327069   4.763   6.254   1.288 -0.0751 -0.1752 -0.1015
  104MOL    C8427070   4.686   6.268   1.044  0.0886 -0.4854 -0.1924
  104MOL    H8527071   4.471   6.096   1.370 -2.1440 -0.9827  0.8383
  104MOL    H8627072   4.555   6.236   1.441 -0.0265  0.0606 -0.4002
  104MOL    H8727073   4.445   6.235   1.154 -2.3777  0.3616  1.3400
  104MOL    H8827074   4.754   6.172   1.359 -3.0495 -1.8941 -2.3561
  104MOL    H8927075   4.761   6.354   1.331  1.9542 -1.3295  2.8247
  104MOL    H9027076   4.862   6.244   1.242 -0.5545 -0.5011 -1.0655
  104MOL    H9127077   4.739   6.362   1.035 -0.2306 -0.0848  1.7916
  104MOL    H9227078   4.593   6.273   0.987  0.5693  0.3158 -0.9150
  104MOL    C9327079   4.756   6.139   1.000  0.2797 -0.2693 -0.5258
  104MOL    C9427080   4.767   6.138   0.851 -0.3461 -0.2645 -0.7504
  104MOL    C9527081   4.758   6.047   0.756  1.0338  0.6028  0.0240
  104MOL    C9627082   4.698   5.907   0.781  0.3927  0.0866 -0.3930
  104MOL    C9727083   4.785   6.089   0.618  0.4383 -0.4841  0.6338
  104MOL    H9827084   4.691   6.055   1.024  0.5536 -0.2450  0.2980
  104MOL    H9927085   4.851   6.116   1.048  0.4750 -0.2962 -0.9196
  104MOL   H10027086   4.803   6.237   0.825 -0.0678  0.2983  1.6038
  104MOL   H10127087   4.593   5.905   0.753 -0.0780 -0.6575  1.3760
  104MOL   H10227088   4.701   5.873   0.884  2.9631  0.6103 -0.2573
  104MOL   H10327089   4.744   5.833   0.716  1.0414 -1.4207  1.7363
  104MOL   H10427090   4.872   6.029   0.591  1.0606  0.6682  0.0355
  104MOL   H10527091   4.829   6.189   0.611  0.3343 -0.4728  0.1634
  104MOL   C10627092   4.672   6.072   0.522 -0.5984 -0.7019 -0.1029
  104MOL   C10727093   4.659   5.939   0.457  0.3742 -0.1293  0.5658
  104MOL   C10827094   4.543   5.869   0.461  1.3032  0.1140  0.1209
  104MOL   C10927095   4.414   5.916   0.531 -0.3926  0.2146 -0.3140
  104MOL   C11027096   4.533   5.723   0.413  0.3948  0.9463 -0.0294
  104MOL   H11127097   4.695   6.132   0.434 -3.3830 -1.0291 -1.0922
  104MOL   H11227098   4.579   6.102   0.570 -0.5180 -0.5693 -0.0324
  104MOL   H11327099   4.747   5.903   0.405  0.3079 -1.6070  1.4737
  104MOL   H11427100   4.329   5.849   0.525  0.8907 -1.5355  0.6114
  104MOL   H11527101   4.384   6.015   0.496  1.1607  1.7853  2.6124
  104MOL   H11627102   4.421   5.928   0.639  1.0297  1.5152 -0.5259
  104MOL   H11727103   4.525   5.657   0.499 -0.8792  1.2662  0.1067
  104MOL   H11827104   4.635   5.695   0.384 -0.0536 -0.2013 -0.5346
  104MOL   C11927105   4.437   5.704   0.295  0.5559  0.4852 -0.3064
  104MOL   C12027106   4.433   5.561   0.252  0.4901 -0.7453  0.9872
  104MOL   C12127107   4.490   5.512   0.143  0.7695  0.4983 -0.5052
  104MOL   C12227108   4.581   5.592   0.056 -0.4136  0.6430 -0.1063
  104MOL   C12327109   4.473   5.367   0.095 -0.1597  0.3111  0.5308
  104MOL   H12427110   4.459   5.786   0.227  0.3694  0.9014  0.1381
  104MOL   H12527111   4.334   5.720   0.326  0.1156 -1.9188 -0.3782
  104MOL   H12627112   4.363   5.501   0.308 -0.0860  0.4781  1.5915
  104MOL   H12727113   4.554   5.572   7.835  0.2475  1.6106 -0.4642
  104MOL   H12827114   4.685   5.559   0.065 -1.1172 -1.9202 -0.9328
  104MOL   H12927115   4.572   5.699   0.070  0.0480  0.2837  3.4441
  104MOL   H13027116   4.441   5.374   7.874 -0.9428  1.3497  0.8286
  104MOL   H13127117   4.406   5.310   0.159  0.5098 -2.4481 -1.1614
  104MOL   C13227118   4.613   5.285   0.105 -0.0664 -0.1234 -0.6959
  104MOL   C13327119   4.604   5.157   0.034  0.3125  0.9022 -0.0696
  104MOL   C13427120   4.697   5.091   7.844  0.2610  0.2422 -0.6114
  104MOL   C13527121   4.837   5.146   7.821  0.0534  0.1265  1.2467
  104MOL   C13627122   4.677   4.955   7.778  0.1690 -0.2610 -1.1331
  104MOL   H13727123   4.649   5.264   0.205 -2.3907 -1.3077 -0.0780
  104MOL   H13827124   4.697   5.339   0.060  0.1992  1.0076  1.0695
  104MOL   H13927125   4.509   5.111   0.054 -0.0815  1.7473  0.0103
  104MOL   H14027126   4.888   5.134   0.035 -0.6785 -3.8376  1.2053
  104MOL   H14127127   4.827   5.240   7.768 -0.8755 -0.0780  1.0455
  104MOL   H14227128   4.898   5.088   7.752 -0.3351 -0.2409  1.2087
  104MOL   H14327129   4.675   4.964   7.669 -0.0885 -0.5697 -1.1521
  104MOL   H14427130   4.580   4.917   7.809 -0.4034  0.1597 -2.3816
  104MOL   C14527131   4.782   4.850   7.831  0.1292 -1.2286 -0.2798
  104MOL   C14627132   4.744   4.707   7.792 -0.5273 -0.3318  0.6885
  104MOL   C14727133   4.818   4.620   7.724 -0.0631 -0.1976  0.7123
  104MOL   C14827134   4.962   4.635   7.683  0.5143  0.0032  0.1530
  104MOL   C14927135   4.751   4.490   7.692 -0.0168  1.1820  0.0074
  104MOL   H15027136   4.762   4.855   0.056  0.0840 -0.1598 -0.3411
  104MOL   H15127137   4.888   4.867   7.811  0.4976 -2.7071  0.3255
  104MOL   H15227138   4.643   4.673   7.809 -0.2738 -1.3059  0.2621
  104MOL   H15327139   5.001   4.544   7.728 -0.6393  0.7018  2.6712
  104MOL   H15427140   5.014   4.723   7.719 -0.3531  0.2627  0.7994
  104MOL   H15527141   4.964   4.620   7.575 -0.7212 -0.4525  0.1826
  104MOL   H15627142   4.668   4.482   7.763  0.1630  2.6960  0.3946
  104MOL   H15727143   4.825   4.414   7.717 -0.5891  1.3210  2.2029
  104MOL   C15827144   4.698   4.471   7.553  0.0435  0.1661  0.5269
  104MOL   C15927145   4.649   4.333   7.515  0.2793  0.1123 -0.5707
  104MOL   C16027146   4.722   4.237   7.462  0.3255 -0.8141 -0.0872
  104MOL   C16127147   4.868   4.252   7.419  0.0388 -0.7482 -0.6638
  104MOL   C16227148   4.662   4.101   7.431 -0.2805 -0.8544  0.4049
  104MOL   H16327149   4.777   4.500   7.484  0.0746 -2.0040 -0.4074
  104MOL   H16427150   4.617   4.540   7.532  1.1667  0.8181 -1.8730
  104MOL   H16527151   4.542   4.328   7.526  0.4402  0.7056  1.4923
  104MOL   H16627152   4.921   4.163   7.454  1.5187  0.5490  0.4217
  104MOL   H16727153   4.909   4.350   7.442 -0.4399  0.2129 -3.6507
  104MOL   H16827154   4.858   4.234   7.311  1.3370  0.4061 -0.9824
  104MOL   H16927155   4.592   4.077   7.511  0.7058 -0.7589  1.2983
  104MOL   H17027156   4.747   4.033   7.433 -0.9596 -1.6851  1.2328
  104MOL   C17127157   4.587   4.102   7.295 -0.3677  0.0872 -0.3194
  104MOL   C17227158   4.488   3.989   7.276 -0.2605  0.2483 -0.0057
  104MOL   C17327159   4.507   3.880   7.203  0.0323  0.2011 -0.2437
  104MOL   C17427160   4.619   3.864   7.100  0.2366 -0.0599 -0.6237
  104MOL   C17527161   4.414   3.756   7.209 -0.1458  0.0470  0.5896
  104MOL   H17627162   4.664   4.106   7.217  0.4478 -0.4136  0.4519
  104MOL   H17727163   4.529   4.192   7.280 -0.1755  0.0514 -1.3207
  104MOL   H17827164   4.414   3.984   7.355 -1.4500 -1.2828 -1.1900
  104MOL   H17927165   4.578   3.801   7.020  0.3163  1.9691 -2.3171
  104MOL   H18027166   4.713   3.823   7.136  0.3454 -0.1850 -1.0504
  104MOL   H18127167   4.639   3.963   7.060 -0.8414  1.7691  3.1598
  104MOL   H18227168   4.480   3.670   7.207  0.3349  0.3412  2.3723
  104MOL   H18327169   4.356   3.769   7.118 -0.2830  0.6838  0.7605
  104MOL   C18427170   4.322   3.739   7.322  0.2634  0.2704  0.2328
  104MOL   C18527171   4.246   3.607   7.318  0.5400 -0.0755 -0.2499
  104MOL   C18627172   4.112   3.596   7.337  0.4081  0.1363 -0.4787
  104MOL   C18727173   4.010   3.710   7.348  0.0003 -0.6899 -0.4397
  104MOL   C18827174   4.042   3.463   7.323  0.2484  0.1018 -0.5914
  104MOL   H18927175   4.259   3.828   7.331 -0.7384 -0.5685  1.8816
  104MOL   H19027176   4.387   3.739   7.410 -2.6580  0.8575  2.4762
  104MOL   H19127177   4.298   3.516   7.295  0.1588  0.2949 -2.7965
  104MOL   H19227178   4.045   3.806   7.385 -0.0073 -1.5167  1.7883
  104MOL   H19327179   3.941   3.667   7.420  2.3887 -1.8924  1.2247
  104MOL   H19427180   3.947   3.731   7.262  0.0890 -2.4682 -0.9624
  104MOL   H19527181   4.024   3.436   7.427  2.5743  1.1917  0.1350
  104MOL   H19627182   4.119   3.400   7.277  0.5500 -0.2822  0.4333
  104MOL   C19727183   3.911   3.455   7.244  0.1880  0.2724  0.2687
  104MOL   C19827184   3.862   3.312   7.219  1.0225 -0.3487  0.6346
  104MOL   C19927185   3.744   3.251   7.239 -0.5007  0.1894 -0.6453
  104MOL   C20027186   3.640   3.327   7.312 -0.2177  0.0608  0.6729
  104MOL   C20127187   3.717   3.108   7.187  0.2833 -0.0576  0.0221
  104MOL   H20227188   3.912   3.506   7.148  0.6147 -0.9882 -0.4142
  104MOL   H20327189   3.840   3.504   7.310  1.6366  1.7881  0.7252
  104MOL   H20427190   3.934   3.259   7.158  1.1427  1.3622 -0.7504
  104MOL   H20527191   3.619   3.413   7.250  0.4181  2.1870  3.3120
  104MOL   H20627192   3.675   3.371   7.405  0.7506 -2.6647  1.6619
  104MOL   H20727193   3.551   3.267   7.329  0.1715  0.3233  3.9272
  104MOL   H20827194   3.676   3.045   7.266  0.2713 -0.4742 -0.3146
  104MOL   H20927195   3.807   3.059   7.151 -0.3215 -0.5509 -0.8319
  104MOL   C21027196   3.608   3.111   7.079  0.5305  0.2702  0.1797
  104MOL   C21127197   3.626   2.987   6.991 -0.3449  0.0935  0.0636
  104MOL   C21227198   3.530   2.898   6.968 -0.0498  0.7260 -0.4270
  104MOL   C21327199   3.388   2.927   7.000  0.1455 -0.6353  0.0547
  104MOL   C21427200   3.565   2.762   6.911  0.3581  0.2361  0.7520
  104MOL   H21527201   3.623   3.201   7.019  1.9209  0.8426  1.3745
  104MOL   H21627202   3.510   3.122   7.126 -0.1171 -1.4172 -0.7295
  104MOL   H21727203   3.728   2.963   6.965 -0.0516  0.5079  0.8145
  104MOL   H21827204   3.354   2.876   7.090 -0.4272  0.0273  0.2186
  104MOL   H21927205   3.325   2.887   6.921  0.1761 -2.1245  0.7759
  104MOL   H22027206   3.369   3.033   7.013  1.8482 -0.2738 -0.2388
  104MOL   H22127207   3.505   2.689   6.965 -0.9252  1.1579  0.5942
  104MOL   H22227208   3.671   2.740   6.922 -0.1596 -2.3307  0.8279
  104MOL   C22327209   3.537   2.755   6.756  0.6150  0.0463 -0.1745
  104MOL   C22427210   3.544   2.621   6.693  0.3228  1.0168  0.1648
  104MOL   C22527211   3.457   2.569   6.609 -0.2774 -0.4845 -0.0580
  104MOL   C22627212   3.333   2.645   6.561  0.9437  0.4288 -0.1808
  104MOL   C22727213   3.469   2.431   6.550 -0.5388  0.8118  0.0734
  104MOL   H22827214   3.606   2.809   6.692  0.8497 -0.5774 -0.4489
  104MOL   H22927215   3.451   2.819   6.737 -0.2778 -1.1089 -0.0268
  104MOL   H23027216   3.632   2.563   6.719 -0.4099 -0.3104 -0.2336
  104MOL   H23127217   3.366   2.657   6.458  1.7632 -1.1061 -0.1140
  104MOL   H23227218   3.309   2.738   6.614  0.9466  1.9865 -2.8176
  104MOL   H23327219   3.244   2.583   6.565  0.3767  1.1819 -0.9198
  104MOL   H23427220   3.558   2.390   6.598 -1.8487  0.6799  2.4869
  104MOL   H23527221   3.493   2.443   6.445  0.0604  1.1695  0.2525
  104MOL   C23627222   3.348   2.339   6.574 -0.2855 -0.2581  1.0362
  104MOL   C23727223   3.376   2.190   6.532 -0.4348 -0.2466 -0.4367
  104MOL   C23827224   3.345   2.083   6.603 -0.0097  0.6242 -0.7633
  104MOL   C23927225   3.276   2.083   6.740 -0.5233 -0.2835  0.4240
  104MOL   C24027226   3.389   1.944   6.559  0.8411 -0.7266  0.0317
  104MOL   H24127227   3.278   2.373   6.499 -0.0521 -1.0931  0.4389
  104MOL   H24227228   3.313   2.342   6.677 -0.3111 -2.6216  1.1185
  104MOL   H24327229   3.416   2.160   6.436  1.4798 -1.4914  0.7203
  104MOL   H24427230   3.305   2.167   6.803  2.1523  0.7566 -2.0863
  104MOL   H24527231   3.294   1.991   6.795 -0.2701 -0.9631 -0.7906
  104MOL   H24627232   3.168   2.086   6.724 -0.3837 -0.7624 -0.6285
  104MOL   H24727233   3.471   1.925   6.628  0.4511  3.1011  1.6961
  104MOL   H24827234   3.432   1.944   6.459  2.0875 -0.3890  0.5661
  104MOL   C24927235   3.284   1.834   6.555 -0.0059  0.1325 -0.0844
  104MOL   C25027236   3.331   1.719   6.467  0.2098 -0.7427 -0.2235
  104MOL   C25127237   3.351   1.590   6.501 -1.2625  0.8217 -0.0307
  104MOL   C25227238   3.329   1.533   6.641  0.4703  0.0180  0.2094
  104MOL   C25327239   3.399   1.493   6.396  0.0376  0.2966 -0.4909
  104MOL   H25427240   3.194   1.875   6.512  0.1833 -1.2999 -1.9386
  104MOL   H25527241   3.252   1.788   6.648  1.3626  1.2158  0.9340
  104MOL   H25627242   3.353   1.752   6.367  0.4413  3.2263  1.0464
  104MOL   H25727243   3.314   1.599   6.726 -0.4355 -1.7670  1.4637
  104MOL   H25827244   3.429   1.492   6.658  0.9542  1.9206  2.0352
  104MOL   H25927245   3.265   1.445   6.631 -0.1792  0.4585  0.4392
  104MOL   H26027246   3.326   1.412   6.396  0.7199 -0.3562  1.7169
  104MOL   H26127247   3.496   1.463   6.436 -0.4762 -0.5324  0.1669
  104MOL   H26227248   3.399   1.551   6.304  1.6480  0.0530 -0.6425
  105MOL     C127249   2.427   6.681   7.574  0.1307  0.0922 -0.0969
  105MOL     C227250   2.347   6.717   7.703  1.2241 -0.9188 -0.5924
  105MOL     C327251   2.399   6.724   7.830  0.2036  0.5975  0.6343
  105MOL     C427252   2.542   6.677   7.870  0.6668 -0.0929 -0.2934
  105MOL     C527253   2.315   6.772   0.069 -1.1455 -0.0341  0.1803
  105MOL     H627254   2.452   6.576   7.588 -0.8456 -0.2446 -0.8315
  105MOL     H727255   2.361   6.691   7.488  1.5268 -2.2585 -1.4942
  105MOL     H827256   2.242   6.739   7.699  1.1939 -0.8207  0.4959
  105MOL     H927257   2.611   6.761   7.877 -1.0957  1.5950 -2.4646
  105MOL    H1027258   2.577   6.602   7.799 -0.6405 -1.5811  0.5929
  105MOL    H1127259   2.537   6.628   0.084  1.5970 -2.8478 -1.5989
  105MOL    H1227260   2.289   6.683   0.127  1.1589 -1.1736 -0.4834
  105MOL    H1327261   2.225   6.824   0.037  0.0100  1.8663 -0.0568
  105MOL    H1427262   2.502   6.758   7.553  0.4433 -0.0313  0.5666
  105MOL    C1527263   2.391   6.875   0.156 -0.6946 -0.2983  0.1243
  105MOL    C1627264   2.291   6.941   0.255  0.0408  0.0809  0.2681
  105MOL    C1727265   2.283   6.919   0.386  0.5801  0.4213 -0.1820
  105MOL    C1827266   2.373   6.820   0.462  0.6730 -0.4426 -0.5019
  105MOL    C1927267   2.176   6.991   0.468  0.1431  0.2951  0.3415
  105MOL    H2027268   2.422   6.960   0.095 -0.5488  0.2322  0.9267
  105MOL    H2127269   2.483   6.835   0.199 -0.6251 -0.1472  0.1197
  105MOL    H2227270   2.223   7.015   0.216 -0.8231 -0.9852 -0.2614
  105MOL    H2327271   2.477   6.819   0.430  0.6516  2.3274 -0.7678
  105MOL    H2427272   2.342   6.716   0.456 -0.9727 -0.0500  0.6716
  105MOL    H2527273   2.376   6.856   0.565  0.3769 -0.9348 -0.3212
  105MOL    H2627274   2.121   7.066   0.412  0.3188 -1.1732 -1.8892
  105MOL    H2727275   2.227   7.050   0.544 -0.4214  1.6632 -0.3234
  105MOL    C2827276   2.067   6.902   0.534 -0.7618  0.9059 -0.0993
  105MOL    C2927277   1.978   6.972   0.628  0.1450  0.2750  0.3210
  105MOL    C3027278   1.847   6.967   0.642  0.1167  0.1012  0.0883
  105MOL    C3127279   1.760   6.885   0.556  0.0027 -0.0770 -0.2108
  105MOL    C3227280   1.768   7.061   0.744  0.0285 -0.6285 -0.3384
  105MOL    H3327281   2.121   6.818   0.579  1.0251  1.8364 -0.4518
  105MOL    H3427282   2.003   6.862   0.455 -0.1510 -3.3081  1.3631
  105MOL    H3527283   2.032   7.037   0.694  1.1358  1.5569 -1.7090
  105MOL    H3627284   1.814   6.803   0.509  0.1338  0.6071 -1.2622
  105MOL    H3727285   1.712   6.949   0.482 -0.4475 -0.7301 -0.4901
  105MOL    H3827286   1.685   6.831   0.614  0.6511  0.9105  1.5991
  105MOL    H3927287   1.828   7.090   0.830 -0.9228  0.7371 -0.1232
  105MOL    H4027288   1.686   7.008   0.791 -1.1550 -0.2725 -1.9593
  105MOL    C4127289   1.687   7.171   0.681  0.1313  0.0360  0.4392
  105MOL    C4227290   1.771   7.287   0.618  0.5583 -0.0442  0.2351
  105MOL    C4327291   1.785   7.409   0.672  0.3282 -0.2134 -0.1749
  105MOL    C4427292   1.728   7.463   0.808  0.0067  0.3766  0.6939
  105MOL    C4527293   1.875   7.510   0.602  0.4072  0.5597 -0.4054
  105MOL    H4627294   1.620   7.217   0.754 -1.1413  0.2962 -0.8673
  105MOL    H4727295   1.624   7.127   0.604  1.1191 -1.6229  0.5385
  105MOL    H4827296   1.810   7.268   0.519 -0.7891 -0.4504 -0.2315
  105MOL    H4927297   1.790   7.542   0.850  1.8392 -0.7112  0.1028
  105MOL    H5027298   1.726   7.383   0.882  0.2296 -0.9474 -0.6945
  105MOL    H5127299   1.628   7.506   0.796 -1.1185 -2.5020 -0.7411
  105MOL    H5227300   1.913   7.465   0.510 -0.6857  1.1682 -1.1540
  105MOL    H5327301   1.958   7.537   0.668  1.7388 -3.0729 -0.4586
  105MOL    C5427302   1.800   7.631   0.571  0.4161 -0.2871  0.3587
  105MOL    C5527303   1.898   7.723   0.490 -0.5291 -0.1333 -0.3515
  105MOL    C5627304   1.887   7.755   0.356 -0.8212 -0.1634  0.4463
  105MOL    C5727305   1.774   7.699   0.261 -0.7251  0.3290 -0.1214
  105MOL    C5827306   1.999   7.844   0.302  1.0811 -0.4304  0.3610
  105MOL    H5927307   1.777   7.685   0.663 -2.0231 -0.0040 -0.3850
  105MOL    H6027308   1.706   7.613   0.519  1.3736  1.7743 -2.2096
  105MOL    H6127309   1.981   7.768   0.543  1.3627  0.0239 -3.2920
  105MOL    H6227310   1.687   7.657   0.312  0.4411 -0.8038  0.9492
  105MOL    H6327311   1.799   7.625   0.185  1.5723 -0.2666  1.1691
  105MOL    H6427312   1.722   7.782   0.213 -0.9431 -0.5759 -1.4711
  105MOL    H6527313   2.062   0.004   0.381 -0.5229  0.3854  1.2351
  105MOL    H6627314   1.953   0.054   0.267  0.1155 -1.0789 -0.1113
  105MOL    C6727315   2.088   7.788   0.191  0.1581  0.4941 -0.5120
  105MOL    C6827316   2.169   0.011   0.127 -0.2403  0.0121  0.5254
  105MOL    C6927317   2.282   7.868   0.051 -0.0819  0.2292  0.1578
  105MOL    C7027318   2.325   7.726   0.007 -0.4920  0.0790  0.3638
  105MOL    C7127319   2.359   0.093   7.859  0.0044 -0.5235  0.9042
  105MOL    H7227320   2.016   7.759   0.115 -1.5010 -1.1250  1.6061
  105MOL    H7327321   2.141   7.700   0.226 -1.1110  0.1391  0.5796
  105MOL    H7427322   2.153   0.114   0.154 -0.9694  0.8482 -2.8617
  105MOL    H7527323   2.277   7.698   7.796  2.3269  0.2545 -1.2077
  105MOL    H7627324   2.311   7.652   0.086  2.4789  0.8899  1.7326
  105MOL    H7727325   2.432   7.729   7.870 -0.9198 -0.3916 -2.1843
  105MOL    H7827326   2.329   0.080   7.756 -0.6549  0.4412  0.9738
  105MOL    H7927327   2.466   0.072   7.858  0.5751  2.2041  0.6472
  105MOL    C8027328   2.326   0.240   0.021  0.0528 -0.5864  0.3463
  105MOL    C8127329   2.428   0.340   7.849  0.6353 -0.2945 -0.1853
  105MOL    C8227330   2.463   0.449   0.033 -0.4047  0.5071 -0.3170
  105MOL    C8327331   2.406   0.492   0.167  0.7709 -0.6036  0.8947
  105MOL    C8427332   2.550   0.548   7.844  0.0785 -1.4276 -0.1040
  105MOL    H8527333   2.328   0.241   0.130 -0.6892  2.9079  0.3868
  105MOL    H8627334   2.232   0.269   7.858 -0.2176  1.7312  2.3026
  105MOL    H8727335   2.465   0.320   7.750 -0.4016 -0.8325 -0.4704
  105MOL    H8827336   2.319   0.433   0.196 -0.1366  0.9522  1.3927
  105MOL    H8927337   2.377   0.596   0.150 -1.5280 -1.1472  1.2397
  105MOL    H9027338   2.477   0.501   0.249  0.3477  0.3162  1.1717
  105MOL    H9127339   2.635   0.494   7.801  0.5038 -1.0591  0.2709
  105MOL    H9227340   2.579   0.623   0.034 -0.5953 -0.4626 -0.8264
  105MOL    C9327341   2.481   0.613   7.721 -0.1051 -0.4863 -0.0910
  105MOL    C9427342   2.554   0.726   7.651 -0.1291 -0.3731 -0.1767
  105MOL    C9527343   2.634   0.707   7.549 -0.4965  0.0894  0.1305
  105MOL    C9627344   2.686   0.574   7.502  0.6056  0.1758  0.1231
  105MOL    C9727345   2.697   0.822   7.472  0.2342 -0.6994  0.2776
  105MOL    H9827346   2.385   0.643   7.762  0.8169 -0.5929  2.1976
  105MOL    H9927347   2.461   0.532   7.650  0.9381  0.2495 -1.2495
  105MOL   H10027348   2.529   0.818   7.701 -0.2926 -1.3544  1.5829
  105MOL   H10127349   2.647   0.490   7.559  1.8368  0.1642  0.9575
  105MOL   H10227350   2.794   0.568   7.515  0.3456 -1.6793  1.6161
  105MOL   H10327351   2.664   0.554   7.397 -0.6041  1.0137  0.2039
  105MOL   H10427352   2.805   0.811   7.484  0.5048  1.1276 -0.3370
  105MOL   H10527353   2.679   0.916   7.524  1.6010 -0.4827  0.3896
  105MOL   C10627354   2.657   0.833   7.320  0.4526 -0.0070  0.0430
  105MOL   C10727355   2.691   0.971   7.269  0.1219 -0.8492 -0.1371
  105MOL   C10827356   2.797   1.010   7.195  0.1696 -0.1997 -0.1561
  105MOL   C10927357   2.900   0.908   7.154  0.0026  0.4767  0.0955
  105MOL   C11027358   2.828   1.156   7.167 -0.7348  0.1040 -0.1475
  105MOL   H11127359   2.548   0.833   7.313  0.4737 -1.5309 -0.6048
  105MOL   H11227360   2.688   0.754   7.251  1.6230  1.5111 -1.1958
  105MOL   H11327361   2.616   1.037   7.312 -0.9809 -2.3648  0.3143
  105MOL   H11427362   2.984   0.955   7.104 -0.2674  0.2709 -0.5520
  105MOL   H11527363   2.856   0.848   7.075  0.7144  0.7759 -0.5337
  105MOL   H11627364   2.940   0.851   7.238  0.5908  0.4857 -0.1789
  105MOL   H11727365   2.821   1.177   7.060 -0.7375 -0.2164 -0.2107
  105MOL   H11827366   2.926   1.176   7.210 -2.0597  0.0206  3.0940
  105MOL   C11927367   2.732   1.258   7.229  0.1501  0.0884 -0.0818
  105MOL   C12027368   2.774   1.401   7.217 -0.2533 -0.5039 -0.6193
  105MOL   C12127369   2.709   1.507   7.161  0.4585  0.3488  1.0898
  105MOL   C12227370   2.584   1.488   7.070  1.0234 -0.3033 -0.2002
  105MOL   C12327371   2.759   1.646   7.178  0.1737  0.0886  0.4555
  105MOL   H12427372   2.717   1.236   7.335  2.1985 -1.7939 -0.1470
  105MOL   H12527373   2.635   1.244   7.182  0.6447  2.6746 -2.0014
  105MOL   H12627374   2.870   1.418   7.265  0.0699  1.3930 -1.8878
  105MOL   H12727375   2.530   1.397   7.097 -2.7816  2.0873  0.7444
  105MOL   H12827376   2.600   1.501   6.963 -1.1749 -0.1947 -0.5454
  105MOL   H12927377   2.515   1.560   7.114  3.0659  2.1567 -0.9164
  105MOL   H13027378   2.740   1.709   7.091 -2.2125  0.2116  1.0411
  105MOL   H13127379   2.867   1.640   7.165  0.7896  0.1304  4.8258
  105MOL   C13227380   2.715   1.716   7.301 -0.5173  0.3851 -0.1654
  105MOL   C13327381   2.772   1.853   7.312  0.6210 -0.8317 -0.1802
  105MOL   C13427382   2.793   1.933   7.418 -0.7137 -0.0068  0.5390
  105MOL   C13527383   2.753   1.901   7.561 -0.7178 -0.7016 -0.5282
  105MOL   C13627384   2.823   2.083   7.397  0.6555  0.3204  0.5502
  105MOL   H13727385   2.739   1.659   7.390  0.3488 -0.1067 -0.7017
  105MOL   H13827386   2.607   1.725   7.304 -0.3880  2.4876 -0.8963
  105MOL   H13927387   2.795   1.898   7.217  1.0338 -0.0326  0.2942
  105MOL   H14027388   2.655   1.940   7.586 -1.7214 -1.5695 -2.9689
  105MOL   H14127389   2.839   1.912   7.628 -0.9879  0.5667 -0.3770
  105MOL   H14227390   2.744   1.792   7.568  1.3664 -0.9611 -1.3386
  105MOL   H14327391   2.827   2.117   7.293 -2.7295 -0.1193  0.2059
  105MOL   H14427392   2.919   2.101   7.445  0.5906  0.3542  0.6681
  105MOL   C14527393   2.713   2.168   7.462  0.0367 -0.2862 -0.2178
  105MOL   C14627394   2.701   2.304   7.409 -0.1364  0.5007 -0.0905
  105MOL   C14727395   2.699   2.420   7.472  0.8602 -0.0899  0.1235
  105MOL   C14827396   2.706   2.433   7.623 -0.2842 -0.1735  0.0488
  105MOL   C14927397   2.692   2.549   7.392 -0.0385 -0.3055 -0.8274
  105MOL   H15027398   2.698   2.157   7.569 -0.1156  0.5597 -0.1529
  105MOL   H15127399   2.620   2.132   7.416 -0.2606 -1.8923  1.5829
  105MOL   H15227400   2.706   2.308   7.301 -2.0728 -0.1145 -0.2242
  105MOL   H15327401   2.608   2.456   7.664 -1.3460 -1.5030 -1.6420
  105MOL   H15427402   2.770   2.518   7.645  0.1903 -0.1824 -1.2678
  105MOL   H15527403   2.751   2.349   7.676  1.6410  1.4530  1.0340
  105MOL   H15627404   2.639   2.619   7.457 -3.4855 -1.2307 -2.5223
  105MOL   H15727405   2.623   2.547   7.308  0.0330  1.4505 -0.9538
  105MOL   C15827406   2.825   2.608   7.354 -1.6240  0.1328  0.3809
  105MOL   C15927407   2.825   2.749   7.297 -1.4605  0.2763  0.3168
  105MOL   C16027408   2.933   2.839   7.287 -0.2180  0.4126 -0.6826
  105MOL   C16127409   3.076   2.801   7.333 -0.2214 -0.4860  0.4458
  105MOL   C16227410   2.910   2.977   7.226 -0.3408  0.3249 -0.2956
  105MOL   H16327411   2.886   2.542   7.292 -2.4054 -2.0288  1.8202
  105MOL   H16427412   2.881   2.624   7.446 -0.3984  2.6153 -0.7578
  105MOL   H16527413   2.726   2.791   7.281 -1.4825  0.1248  0.0660
  105MOL   H16627414   3.069   2.708   7.389 -2.5191 -0.7134 -0.1509
  105MOL   H16727415   3.127   2.872   7.398  0.5254 -1.3676  0.8242
  105MOL   H16827416   3.147   2.781   7.253 -0.9311  0.4416 -0.4434
  105MOL   H16927417   2.950   3.054   7.293  0.8584  0.1439 -0.8041
  105MOL   H17027418   2.802   2.990   7.218 -0.3057 -0.0588 -1.3685
  105MOL   C17127419   2.964   2.990   7.083  0.4797 -0.0871  0.9911
  105MOL   C17227420   2.882   2.901   6.986 -0.0393  0.3067  0.1805
  105MOL   C17327421   2.777   2.932   6.910 -0.0951  0.3340 -0.3616
  105MOL   C17427422   2.727   3.072   6.879  0.0873 -0.2401 -0.2645
  105MOL   C17527423   2.710   2.836   6.822  0.1980  0.6301 -0.3095
  105MOL   H17627424   3.065   2.947   7.082  0.7847  0.6290  0.2893
  105MOL   H17727425   2.961   3.095   7.052 -1.5272 -0.1601  0.8974
  105MOL   H17827426   2.902   2.795   6.984 -1.9754 -0.0585 -1.6529
  105MOL   H17927427   2.619   3.076   6.869  0.3310  0.1648 -3.2048
  105MOL   H18027428   2.774   3.104   6.785  0.6353 -1.6159 -0.4729
  105MOL   H18127429   2.762   3.138   6.959 -0.2127  0.5668 -0.7934
  105MOL   H18227430   2.752   2.843   6.721  0.3316 -0.4575 -0.3355
  105MOL   H18327431   2.606   2.865   6.807 -0.1511 -1.2802 -1.8838
  105MOL   C18427432   2.708   2.685   6.875  0.4212 -0.1528 -0.1652
  105MOL   C18527433   2.575   2.620   6.870  0.5072  0.1159  0.5373
  105MOL   C18627434   2.550   2.495   6.916 -0.1513  0.6670  0.2008
  105MOL   C18727435   2.656   2.411   6.982 -0.0181 -0.1031  0.0873
  105MOL   C18827436   2.404   2.443   6.919  0.3733  0.4084 -0.2127
  105MOL   H18927437   2.738   2.687   6.980 -0.3409 -1.9690  0.1073
  105MOL   H19027438   2.772   2.613   6.823 -1.4908 -1.1420 -1.1632
  105MOL   H19127439   2.490   2.680   6.839 -1.6178 -2.5450  0.9921
  105MOL   H19227440   2.759   2.439   6.959 -0.2378  0.0577 -0.7173
  105MOL   H19327441   2.647   2.308   6.948 -0.0876 -0.1426  0.2304
  105MOL   H19427442   2.640   2.400   7.089  3.6157  1.1833  0.8288
  105MOL   H19527443   2.398   2.346   6.868 -3.7808  1.2751 -1.5167
  105MOL   H19627444   2.334   2.506   6.865  1.9707  2.6338  0.2649
  105MOL   C19727445   2.360   2.410   7.061  0.2741 -0.4713  0.2246
  105MOL   C19827446   2.226   2.334   7.053  0.1609  0.0801 -0.2937
  105MOL   C19927447   2.113   2.353   7.130 -0.6945 -0.6029  0.2005
  105MOL   C20027448   2.117   2.455   7.236  0.1006 -0.4912 -0.2700
  105MOL   C20127449   1.975   2.292   7.096 -0.0484  0.1366  0.4198
  105MOL   H20227450   2.345   2.502   7.117  0.8392 -1.2670  1.6933
  105MOL   H20327451   2.430   2.354   7.122  0.9804 -1.9516 -1.9006
  105MOL   H20427452   2.225   2.258   6.977 -3.0192  1.9098 -2.2020
  105MOL   H20527453   2.217   2.475   7.275 -0.2419 -0.8687  0.8098
  105MOL   H20627454   2.053   2.434   7.321  0.0316 -1.2638 -0.5097
  105MOL   H20727455   2.094   2.558   7.207 -0.5177  0.4068  3.2227
  105MOL   H20827456   1.910   2.379   7.093 -0.5265 -0.2279 -0.2364
  105MOL   H20927457   1.948   2.243   7.190  1.7424 -0.7949  0.4704
  105MOL   C21027458   1.948   2.206   6.974 -0.1062 -0.8346  0.7076
  105MOL   C21127459   1.915   2.292   6.858  0.1943 -0.0985 -0.1842
  105MOL   C21227460   1.979   2.306   6.744  0.6711  0.7554  0.2785
  105MOL   C21327461   2.095   2.221   6.696  0.1407 -0.4309 -0.7109
  105MOL   C21427462   1.924   2.404   6.638  0.4779 -0.1536  0.1923
  105MOL   H21527463   1.861   2.143   6.992 -0.3410  0.0286  2.6861
  105MOL   H21627464   2.034   2.143   6.948 -0.2177 -0.1729 -1.3399
  105MOL   H21727465   1.823   2.349   6.867 -0.6987 -1.5819  0.4203
  105MOL   H21827466   2.193   2.268   6.691  0.5497 -1.0104  1.3461
  105MOL   H21927467   2.085   2.213   6.588 -0.4243  0.5400 -0.7424
  105MOL   H22027468   2.106   2.122   6.739 -0.5206  0.0422  0.5857
  105MOL   H22127469   1.992   2.462   6.576 -3.0314  2.4502 -1.4255
  105MOL   H22227470   1.872   2.487   6.686  0.5161  0.1649 -0.3206
  105MOL   C22327471   1.808   2.335   6.553 -0.4397  0.0085 -0.0921
  105MOL   C22427472   1.711   2.431   6.488 -0.2201 -1.1751  0.4902
  105MOL   C22527473   1.591   2.462   6.541 -0.0586 -0.0006 -0.3449
  105MOL   C22627474   1.540   2.405   6.670 -0.3264 -0.3977  0.0284
  105MOL   C22727475   1.489   2.558   6.474  0.0301 -0.2438 -0.1714
  105MOL   H22827476   1.760   2.251   6.602  1.5383 -1.3989 -0.4909
  105MOL   H22927477   1.863   2.283   6.475 -0.4419 -0.1804  0.0317
  105MOL   H23027478   1.741   2.484   6.399 -0.9805 -0.5344  0.6035
  105MOL   H23127479   1.609   2.345   6.729 -0.3634 -0.2526  0.2175
  105MOL   H23227480   1.449   2.349   6.651 -0.5121  0.7791 -2.9074
  105MOL   H23327481   1.505   2.486   6.733  1.0749  3.4382 -3.8102
  105MOL   H23427482   1.539   2.610   6.393 -0.8085  0.8142 -0.0283
  105MOL   H23527483   1.469   2.646   6.535  0.6972 -0.0682 -0.2085
  105MOL   C23627484   1.365   2.489   6.434 -0.7601  0.2055  0.7829
  105MOL   C23727485   1.271   2.575   6.351  0.0529 -0.3014  0.4255
  105MOL   C23827486   1.159   2.642   6.383  0.1580 -0.2685 -0.8872
  105MOL   C23927487   1.094   2.650   6.521 -0.0943  0.0662  0.0247
  105MOL   C24027488   1.094   2.739   6.277  0.2925 -0.0893 -0.5121
  105MOL   H24127489   1.323   2.443   6.523 -0.3508  0.4306  1.0916
  105MOL   H24227490   1.398   2.405   6.372  1.7458  1.3981  0.4403
  105MOL   H24327491   1.316   2.583   6.253  2.0910 -2.9487  1.0847
  105MOL   H24427492   1.129   2.735   6.580 -2.6226 -0.0154  1.7215
  105MOL   H24527493   1.095   2.558   6.579 -1.7785  0.3972  0.6175
  105MOL   H24627494   0.989   2.675   6.505  0.1758  2.1946  1.3510
  105MOL   H24727495   1.168   2.770   6.203  0.8256 -1.1817 -0.4557
  105MOL   H24827496   1.102   2.831   6.335  1.1995 -0.7549  0.4555
  105MOL   C24927497   0.962   2.694   6.212  0.9409 -0.3206 -0.4274
  105MOL   C25027498   0.918   2.802   6.111  0.4724  0.6464  0.9280
  105MOL   C25127499   0.823   2.894   6.128  0.0061 -0.0526 -0.1288
  105MOL   C25227500   0.755   2.931   6.257 -0.6255 -0.5510  0.2782
  105MOL   C25327501   0.792   2.985   6.009 -0.2251 -0.3526 -0.2545
  105MOL   H25427502   0.903   2.679   6.302  0.2944  0.6981 -0.6655
  105MOL   H25527503   0.983   2.593   6.174  1.2900 -0.7968  1.0227
  105MOL   H25627504   0.965   2.777   6.017  0.2255  2.7477  0.2156
  105MOL   H25727505   0.766   3.038   6.272 -0.7394 -0.6790  1.2847
  105MOL   H25827506   0.778   2.874   6.346 -0.9879 -0.4300  0.4523
  105MOL   H25927507   0.647   2.924   6.243 -0.4869 -1.0900 -0.5592
  105MOL   H26027508   0.832   2.946   5.915 -0.4663  1.6118 -1.1742
  105MOL   H26127509   0.847   3.077   6.026  0.7843 -0.8464 -0.7785
  105MOL   H26227510   0.685   3.000   5.999 -0.2530 -0.9525 -0.9227
  106MOL     C127511   7.435   6.880   0.903  0.6601 -1.1831 -0.1812
  106MOL     C227512   7.325   6.817   0.824  0.3410 -0.3330 -0.4998
  106MOL     C327513   7.235   6.723   0.863 -0.3883 -1.4316  0.4092
  106MOL     C427514   7.238   6.671   1.007  0.1952  0.4030 -0.1547
  106MOL     C527515   7.133   6.666   0.762 -0.3324 -0.1597  0.4097
  106MOL     H627516   7.450   6.988   0.891 -0.4978 -0.8151  1.4736
  106MOL     H727517   7.436   6.870   1.012  0.9793  3.0533  0.3060
  106MOL     H827518   7.317   6.851   0.722 -0.3882  0.3905 -0.2118
  106MOL     H927519   7.130   6.672   1.027  0.1203 -0.3072 -0.4943
  106MOL    H1027520   7.287   6.728   1.085  0.0538 -0.7480  0.7862
  106MOL    H1127521   7.273   6.568   1.005 -2.3593 -0.4916 -1.5063
  106MOL    H1227522   7.115   6.722   0.670 -0.1047 -0.2464  0.3126
  106MOL    H1327523   7.039   6.672   0.817 -1.1451  0.0596 -0.9969
  106MOL    H1427524   7.524   6.823   0.877  0.8274 -0.1522 -1.9766
  106MOL    C1527525   7.156   6.516   0.736  0.1832 -0.8083 -0.7809
  106MOL    C1627526   7.063   6.464   0.630  0.0441  0.2187  0.4457
  106MOL    C1727527   6.931   6.451   0.629  0.7100  0.9900 -0.3875
  106MOL    C1827528   6.841   6.476   0.750 -0.4265  0.1387 -0.3779
  106MOL    C1927529   6.847   6.397   0.516  0.4471 -0.2730 -0.5399
  106MOL    H2027530   7.147   6.458   0.828 -3.2690 -0.6789 -0.9529
  106MOL    H2127531   7.259   6.500   0.704  0.0279  0.2468 -1.8054
  106MOL    H2227532   7.113   6.438   0.538 -0.8116 -0.8696  0.2860
  106MOL    H2327533   6.745   6.519   0.721  0.2426  0.8089 -1.6819
  106MOL    H2427534   6.882   6.534   0.833  2.3202  2.0321 -2.9363
  106MOL    H2527535   6.829   6.380   0.799  2.6371  0.7087  1.6171
  106MOL    H2627536   6.757   6.459   0.520  1.1467  0.7377 -0.1435
  106MOL    H2727537   6.821   6.292   0.531 -1.6765  0.4275  0.9082
  106MOL    C2827538   6.903   6.396   0.370  0.1661 -0.7384 -0.5102
  106MOL    C2927539   6.932   6.527   0.312 -0.1803  0.1271  0.7939
  106MOL    C3027540   6.866   6.579   0.202 -0.0266  0.0631  0.7412
  106MOL    C3127541   6.772   6.487   0.122  0.1003 -0.2482 -0.4706
  106MOL    C3227542   6.913   6.710   0.139  0.9411  0.1808 -0.7072
  106MOL    H3327543   6.846   6.328   0.307  1.5068 -1.9915 -0.3863
  106MOL    H3427544   7.004   6.356   0.371  0.5063  0.0968 -0.8920
  106MOL    H3527545   7.000   6.595   0.360 -0.2657 -0.2598  1.4651
  106MOL    H3627546   6.716   6.540   0.044  0.8467  0.0969 -0.7798
  106MOL    H3727547   6.692   6.439   0.177  0.3559 -0.1098  0.0206
  106MOL    H3827548   6.825   6.406   0.072 -1.1668 -1.9789  0.9591
  106MOL    H3927549   6.985   6.757   0.206  2.5215 -1.7362 -1.0260
  106MOL    H4027550   6.823   6.773   0.143 -0.6178 -1.9117 -1.7904
  106MOL    C4127551   6.954   6.700   7.875 -0.3726 -0.1885  0.2336
  106MOL    C4227552   6.991   6.836   7.813 -0.9362 -0.2834  0.4676
  106MOL    C4327553   7.048   6.856   7.695  0.0187 -0.2980 -0.1172
  106MOL    C4427554   7.083   6.743   7.603  0.2312 -0.3771 -0.5385
  106MOL    C4527555   7.078   6.993   7.642  0.5310  0.1169 -0.5891
  106MOL    H4627556   6.871   6.659   7.818 -1.6098 -0.4870  2.1875
  106MOL    H4727557   7.035   6.629   7.866  0.3094  0.8084 -1.9239
  106MOL    H4827558   6.969   6.922   7.874  0.1109 -0.6859  1.4259
  106MOL    H4927559   7.034   6.650   7.632  0.0273 -0.5102 -1.3068
  106MOL    H5027560   7.191   6.731   7.611  0.4960  0.8861 -1.9883
  106MOL    H5127561   7.058   6.773   7.501 -0.8842 -1.8799 -0.7309
  106MOL    H5227562   7.020   7.062   7.704  0.7177  1.0909 -1.4901
  106MOL    H5327563   7.042   6.990   7.539 -2.4001 -1.3510  0.4347
  106MOL    C5427564   7.236   7.021   7.659  0.1282  0.0134 -0.6663
  106MOL    C5527565   7.276   7.159   7.623 -0.1249 -0.1794  0.1766
  106MOL    C5627566   7.399   7.195   7.564 -0.0821  0.0689 -0.5172
  106MOL    C5727567   7.488   7.091   7.505 -0.5222 -0.0022 -0.4200
  106MOL    C5827568   7.439   7.332   7.526 -0.8999  0.5092  0.3976
  106MOL    H5927569   7.298   6.947   7.609  0.6042 -0.6678  0.9176
  106MOL    H6027570   7.270   7.018   7.762  0.0372 -1.6915 -0.6654
  106MOL    H6127571   7.212   7.243   7.644  0.6971  0.7732 -1.0194
  106MOL    H6227572   7.511   7.022   7.586 -2.0706  1.8342  1.6610
  106MOL    H6327573   7.581   7.123   7.460  0.6806 -0.4249  1.7146
  106MOL    H6427574   7.440   7.042   7.420 -1.3450  1.2494 -0.6940
  106MOL    H6527575   7.360   7.405   7.540  0.3777  2.4878 -2.3556
  106MOL    H6627576   7.468   7.333   7.421  2.4247 -3.4810  1.1290
  106MOL    C6727577   7.556   7.380   7.613 -0.2412 -0.1833  0.1329
  106MOL    C6827578   7.609   7.509   7.556  0.4242  0.0054  0.0448
  106MOL    C6927579   7.725   7.548   7.498  0.3545 -0.2446  0.3173
  106MOL    C7027580   7.845   7.452   7.494 -0.2539  0.7365  0.5665
  106MOL    C7127581   7.755   7.688   7.440 -0.0472 -0.0166  0.1359
  106MOL    H7227582   7.637   7.307   7.621  1.2291  1.3916 -0.1838
  106MOL    H7327583   7.528   7.388   7.718  1.9488  2.1917  0.5961
  106MOL    H7427584   7.525   7.575   7.563  2.0086  1.9575  1.0618
  106MOL    H7527585   7.824   7.350   7.459  0.0134  1.4813 -1.8701
  106MOL    H7627586   7.877   7.445   7.598 -1.4863  2.7352  1.0931
  106MOL    H7727587   0.035   7.491   7.423 -0.9910  1.9181  0.4541
  106MOL    H7827588   7.655   7.728   7.427  0.2093  1.0697  1.3481
  106MOL    H7927589   7.806   7.674   7.344 -0.4051  0.5144 -0.1314
  106MOL    C8027590   7.846   7.783   7.530  0.1734  0.1678 -0.5464
  106MOL    C8127591   7.784   7.818   7.661  0.3983 -0.8009 -0.7769
  106MOL    C8227592   7.836   0.027   7.748 -0.5351 -0.1834 -0.4903
  106MOL    C8327593   0.069   0.121   7.712  0.1542 -0.2806  0.9984
  106MOL    C8427594   7.779   0.049   0.001  0.2087 -0.2745 -0.6751
  106MOL    H8527595   7.866   7.874   7.473 -0.1492  0.7857  0.3043
  106MOL    H8627596   0.057   7.731   7.543 -0.2989 -0.7003 -0.5938
  106MOL    H8727597   7.703   7.752   7.689 -0.1800 -1.0678 -2.9711
  106MOL    H8827598   0.038   0.225   7.720  0.9081 -0.1396  2.2708
  106MOL    H8927599   0.110   0.103   7.613 -1.5632 -2.5130  0.6608
  106MOL    H9027600   0.149   0.116   7.786  2.0607  3.7500 -0.6706
  106MOL    H9127601   7.731   0.146   0.009 -1.1023 -1.1060  2.0705
  106MOL    H9227602   7.875   0.060   0.049 -0.7237 -0.4913  1.2840
  106MOL    C9327603   7.697   7.821   0.069  0.8111 -0.3396 -0.2116
  106MOL    C9427604   7.661   7.851   0.214  0.3307 -0.3711  0.2576
  106MOL    C9527605   7.543   7.867   0.270 -0.1259 -0.0275 -0.5529
  106MOL    C9627606   7.403   7.833   0.209  0.1521  0.6664 -0.1974
  106MOL    C9727607   7.527   0.025   0.418 -0.1903  0.7600 -0.3756
  106MOL    H9827608   7.753   7.727   0.067  1.3888 -0.0565  1.5458
  106MOL    H9927609   7.602   7.811   0.016  0.7983  0.9001 -0.4373
  106MOL   H10027610   7.751   0.001   0.264  0.1648  0.0368  0.2897
  106MOL   H10127611   7.389   7.870   0.108  2.1450 -0.2258 -0.8214
  106MOL   H10227612   7.328   7.876   0.275  0.7490 -0.2840  1.1339
  106MOL   H10327613   7.377   7.727   0.204  0.6881  0.4913  0.6649
  106MOL   H10427614   7.487   0.126   0.412  0.3953  1.0524  0.5714
  106MOL   H10527615   7.630   0.040   0.452 -0.3843 -0.5846  0.8189
  106MOL   C10627616   7.453   7.798   0.495 -0.2088  0.0185  0.1114
  106MOL   C10727617   7.470   7.817   0.646  0.0936  0.4566  0.3945
  106MOL   C10827618   7.397   0.014   0.722 -0.8181  0.0872  0.3720
  106MOL   C10927619   7.281   0.100   0.668  0.8324  0.0698 -0.3217
  106MOL   C11027620   7.421   0.033   0.872  0.7164 -0.1220 -0.1529
  106MOL   H11127621   7.487   7.702   0.457 -0.5081  0.3869 -1.0925
  106MOL   H11227622   7.348   7.805   0.466  0.0666 -0.3029 -0.9580
  106MOL   H11327623   7.553   7.769   0.696  0.8621  0.0217 -1.2567
  106MOL   H11427624   7.268   0.107   0.561 -2.1553 -0.5744 -0.0426
  106MOL   H11527625   7.271   0.203   0.701 -1.0496  0.0902 -0.9234
  106MOL   H11627626   7.189   0.051   0.700  0.5450 -0.6719 -2.2346
  106MOL   H11727627   7.435   7.825   0.931  0.9453 -1.6043 -2.4157
  106MOL   H11827628   7.323   0.059   0.912  1.6962  1.3831  1.3383
  106MOL   C11927629   7.524   0.151   0.898  0.4686  0.4163  0.2859
  106MOL   C12027630   7.534   0.186   1.043  0.7300  0.6423 -1.1716
  106MOL   C12127631   7.527   0.308   1.092 -0.6348 -0.4778  0.4541
  106MOL   C12227632   7.490   0.428   1.011 -0.0599  0.0686 -0.4410
  106MOL   C12327633   7.551   0.343   1.236  0.4486 -0.5372  0.4988
  106MOL   H12427634   7.499   0.234   0.833  0.6272 -2.4097 -3.5924
  106MOL   H12527635   7.627   0.127   0.872  0.5465  0.5513  0.4639
  106MOL   H12627636   7.565   0.105   1.107 -2.4752  1.0304  0.9757
  106MOL   H12727637   7.540   0.512   1.058 -2.2656  1.5093 -0.6142
  106MOL   H12827638   7.382   0.445   1.004 -0.1331 -0.4702 -0.6843
  106MOL   H12927639   7.540   0.422   0.915 -1.9939 -1.0818 -1.4234
  106MOL   H13027640   7.498   0.283   1.309  1.7095  0.0362  1.9118
  106MOL   H13127641   7.498   0.438   1.247  1.1011  0.2732 -2.6934
  106MOL   C13227642   7.698   0.341   1.277  0.0951 -0.4285  0.4108
  106MOL   C13327643   7.723   0.425   1.400 -0.3601  0.0524 -0.0333
  106MOL   C13427644   7.746   0.373   1.522 -0.1060 -0.4365 -0.4618
  106MOL   C13527645   7.749   0.230   1.563 -0.1348  1.1369  0.4827
  106MOL   C13627646   7.755   0.458   1.645  0.6447  0.7609  0.4871
  106MOL   H13727647   7.754   0.383   1.193 -1.0709  1.9857  0.8276
  106MOL   H13827648   7.721   0.234   1.287 -3.3811 -1.5477 -2.3306
  106MOL   H13927649   7.711   0.532   1.396  2.0588  0.3746  0.3844
  106MOL   H14027650   7.843   0.202   1.612 -0.5405  0.5248  0.9279
  106MOL   H14127651   7.728   0.161   1.481  1.1392  1.7250 -0.3603
  106MOL   H14227652   7.662   0.207   1.625 -1.1762 -2.2465 -2.0204
  106MOL   H14327653   7.767   0.562   1.615  0.3606  1.1238  1.6150
  106MOL   H14427654   7.845   0.431   1.700  0.4789  1.5505  1.1517
  106MOL   C14527655   7.629   0.459   1.732 -0.2152 -0.2598  0.2956
  106MOL   C14627656   7.510   0.518   1.665 -0.1040  0.0505  0.4972
  106MOL   C14727657   7.384   0.472   1.667  0.3288 -0.0784  0.0186
  106MOL   C14827658   7.348   0.362   1.762  0.5597  0.1713  0.0052
  106MOL   C14927659   7.272   0.553   1.585  0.0164 -0.2368 -0.6705
  106MOL   H15027660   7.646   0.529   1.814 -0.3530  1.0115 -0.7390
  106MOL   H15127661   7.623   0.361   1.779  0.4099  0.8432  2.7835
  106MOL   H15227662   7.532   0.601   1.598  1.1058 -1.0670 -0.5269
  106MOL   H15327663   7.420   0.282   1.780 -0.2900 -0.2205  1.8571
  106MOL   H15427664   7.266   0.300   1.727  1.9811 -1.9448  0.2830
  106MOL   H15527665   7.314   0.398   1.859  4.8050  0.5847  1.4595
  106MOL   H15627666   7.209   0.484   1.529 -1.1558 -1.6244  2.2619
  106MOL   H15727667   7.311   0.627   1.516 -1.0722 -0.2462 -1.2884
  106MOL   C15827668   7.177   0.627   1.674  0.4352 -0.6955  0.5122
  106MOL   C15927669   7.093   0.721   1.591  0.1823  0.1845 -0.6253
  106MOL   C16027670   6.980   0.696   1.530  0.5530  0.4250  0.2663
  106MOL   C16127671   6.915   0.558   1.540  0.7209 -0.2772  0.1171
  106MOL   C16227672   6.899   0.813   1.480 -0.2621  0.3322  0.4489
  106MOL   H16327673   7.238   0.686   1.742  1.0535 -2.0923  1.1938
  106MOL   H16427674   7.130   0.555   1.741  0.5939 -0.0400  1.3279
  106MOL   H16527675   7.121   0.825   1.597 -2.3327  0.7251  4.0835
  106MOL   H16627676   6.977   0.482   1.587  1.6948  0.5925  0.2698
  106MOL   H16727677   6.896   0.525   1.438  0.7963  0.4496 -0.1410
  106MOL   H16827678   6.817   0.560   1.586  0.3844 -1.1365 -0.5526
  106MOL   H16927679   6.950   0.908   1.495  0.9919 -0.1327 -0.7614
  106MOL   H17027680   6.801   0.823   1.527 -0.2407 -3.0285  1.3365
  106MOL   C17127681   6.881   0.802   1.329 -0.7362  0.1375  0.2192
  106MOL   C17227682   7.011   0.827   1.264  0.1003  0.0444 -0.0544
  106MOL   C17327683   7.093   0.737   1.193 -0.4664 -0.3429  0.1659
  106MOL   C17427684   7.071   0.586   1.177 -0.1936 -1.0578 -0.1705
  106MOL   C17527685   7.223   0.788   1.134 -0.2269 -0.8541  0.3806
  106MOL   H17627686   6.815   0.877   1.286 -0.5178  2.0750  3.1332
  106MOL   H17727687   6.828   0.713   1.295  0.1081 -0.1543 -0.3625
  106MOL   H17827688   7.046   0.929   1.269  2.1679 -0.6632  0.4036
  106MOL   H17927689   7.001   0.557   1.256  0.1173 -0.3808  0.3618
  106MOL   H18027690   7.159   0.524   1.194  1.6403  1.1570 -1.3266
  106MOL   H18127691   7.027   0.573   1.079 -2.4814  0.9848  0.5172
  106MOL   H18227692   7.208   0.893   1.113 -1.0728 -0.8347  1.0861
  106MOL   H18327693   7.238   0.751   1.032  1.1522 -1.4423  0.7753
  106MOL   C18427694   7.346   0.756   1.221  0.7770  0.1469 -0.3511
  106MOL   C18527695   7.467   0.841   1.181  0.0565  0.5577  0.2657
  106MOL   C18627696   7.561   0.889   1.261  0.3548 -0.0509  0.7238
  106MOL   C18727697   7.559   0.875   1.412 -0.0458 -0.2346  0.6531
  106MOL   C18827698   7.689   0.956   1.210 -0.7759 -0.2569 -0.2753
  106MOL   H18927699   7.382   0.656   1.199  3.5542  0.7171  1.4344
  106MOL   H19027700   7.330   0.771   1.328  0.8998  2.3329 -0.6197
  106MOL   H19127701   7.489   0.846   1.076  0.9936 -0.0012  0.4357
  106MOL   H19227702   7.476   0.816   1.451 -1.1226  1.8279  1.5621
  106MOL   H19327703   7.546   0.976   1.450  2.7778  1.3993 -2.4993
  106MOL   H19427704   7.652   0.835   1.453  1.4331  1.6107 -0.8289
  106MOL   H19527705   7.740   1.015   1.286  1.0143 -0.6914 -1.1009
  106MOL   H19627706   7.659   1.033   1.138 -3.8271 -1.2413 -0.1058
  106MOL   C19727707   7.784   0.849   1.151  0.1978  0.0619 -0.4241
  106MOL   C19827708   0.028   0.912   1.099  0.0074  0.0902  0.0972
  106MOL   C19927709   0.149   0.899   1.155 -0.1659 -0.0477  0.4544
  106MOL   C20027710   0.193   0.810   1.274  0.4202  0.0388 -0.7567
  106MOL   C20127711   0.263   0.997   1.103  0.5683  0.5360 -0.4612
  106MOL   H20227712   7.727   0.810   1.067  0.3208  1.6230 -1.2462
  106MOL   H20327713   7.804   0.767   1.220 -0.9634  0.9431  0.9843
  106MOL   H20427714   0.018   0.977   1.013 -0.7675  0.0814  0.1706
  106MOL   H20527715   0.288   0.836   1.321  1.2245 -0.9972 -1.7656
  106MOL   H20627716   0.215   0.708   1.244 -0.3642 -1.2943  2.8532
  106MOL   H20727717   0.123   0.822   1.357 -0.1129  2.5020 -1.5244
  106MOL   H20827718   0.228   1.061   1.022  0.7455  2.6424  1.0965
  106MOL   H20927719   0.332   0.924   1.060 -1.4491 -2.1453  0.6848
  106MOL   C21027720   0.337   1.081   1.203 -0.1000 -0.2610  0.2538
  106MOL   C21127721   0.410   1.199   1.142 -0.1625  0.0048  0.2826
  106MOL   C21227722   0.538   1.219   1.116 -0.7498  0.0276  0.2574
  106MOL   C21327723   0.644   1.123   1.157 -0.1719  0.3783  0.1759
  106MOL   C21427724   0.587   1.340   1.040 -0.2311  0.0170  0.0278
  106MOL   H21527725   0.403   1.035   1.277  1.7126  1.7500 -0.0475
  106MOL   H21627726   0.261   1.129   1.266  0.3467  1.3888 -0.4268
  106MOL   H21727727   0.347   1.273   1.095 -0.0930 -1.9477 -3.0242
  106MOL   H21827728   0.604   1.029   1.196 -0.7408 -0.3390 -2.0652
  106MOL   H21927729   0.715   1.167   1.227  1.3036  1.5046 -1.9760
  106MOL   H22027730   0.717   1.104   1.079 -0.2197  3.1110 -0.5687
  106MOL   H22127731   0.511   1.395   0.984 -3.0955 -1.8308  2.0124
  106MOL   H22227732   0.661   1.298   0.971 -0.2493 -0.3126  0.2086
  106MOL   C22327733   0.649   1.443   1.137 -0.5426 -0.5058  0.1318
  106MOL   C22427734   0.741   1.550   1.070 -0.3421 -0.6363  0.5375
  106MOL   C22527735   0.876   1.550   1.061  0.1841 -1.0806 -0.0035
  106MOL   C22627736   0.969   1.441   1.125 -0.6648 -0.1869  0.8357
  106MOL   C22727737   0.947   1.659   0.989  0.2200 -0.4599 -0.3187
  106MOL   H22827738   0.712   1.395   1.212  0.5332 -0.7350 -0.8982
  106MOL   H22927739   0.572   1.499   1.190  0.5234  0.0007  1.1537
  106MOL   H23027740   0.689   1.633   1.025 -0.0399 -0.0750  1.2167
  106MOL   H23127741   0.972   1.455   1.233 -0.1810  1.0161  0.6774
  106MOL   H23227742   1.070   1.448   1.085 -0.9990 -2.5345 -0.5049
  106MOL   H23327743   0.933   1.344   1.091  2.5114 -0.9565 -0.5144
  106MOL   H23427744   0.883   1.728   0.934  1.2415  0.9936  0.2910
  106MOL   H23527745   1.013   1.607   0.919  2.1908  1.5839 -0.0421
  106MOL   C23627746   1.021   1.753   1.091  0.3029 -0.8194 -0.5979
  106MOL   C23727747   1.098   1.863   1.014 -0.2921  0.0207 -0.1148
  106MOL   C23827748   1.229   1.891   1.004  0.3810  0.6051  0.8016
  106MOL   C23927749   1.331   1.808   1.087  0.1109 -0.3827 -0.1928
  106MOL   C24027750   1.281   1.987   0.898 -0.4597  0.1045  0.7893
  106MOL   H24127751   1.084   1.692   1.157 -3.2407 -3.4630  0.4668
  106MOL   H24227752   0.953   1.802   1.161  0.5353 -0.4450 -0.6329
  106MOL   H24327753   1.032   1.929   0.960 -0.6695  0.1863  0.5385
  106MOL   H24427754   1.429   1.779   1.050 -0.8414 -2.2281 -1.3310
  106MOL   H24527755   1.297   1.722   1.144 -1.0540 -0.0161 -0.3180
  106MOL   H24627756   1.357   1.884   1.160  0.0651  0.3390 -0.9146
  106MOL   H24727757   1.351   2.054   0.949 -0.7873  1.0604  0.0013
  106MOL   H24827758   1.206   2.058   0.863  1.1500  1.4280 -0.0538
  106MOL   C24927759   1.343   1.915   0.783  0.2837  0.3834 -0.1005
  106MOL   C25027760   1.396   1.995   0.672 -0.2472  0.1917 -0.4220
  106MOL   C25127761   1.314   2.052   0.582 -0.1364 -0.0161 -0.0013
  106MOL   C25227762   1.164   2.046   0.598  0.3583  0.2565 -0.1321
  106MOL   C25327763   1.367   2.136   0.462  0.6978  0.0473  0.2323
  106MOL   H25427764   1.274   1.842   0.740  1.1100  0.6178 -1.8695
  106MOL   H25527765   1.421   1.848   0.820 -0.0033  0.4974  0.7267
  106MOL   H25627766   1.504   1.995   0.666 -0.2888 -0.3841 -1.1616
  106MOL   H25727767   1.117   1.991   0.680 -0.0668  1.3349  0.3600
  106MOL   H25827768   1.143   2.004   0.499  0.2049  0.6642 -0.2719
  106MOL   H25927769   1.140   2.152   0.602 -2.5608 -0.2826 -1.7251
  106MOL   H26027770   1.445   2.206   0.492  0.4590  0.9657 -1.1837
  106MOL   H26127771   1.294   2.199   0.410  1.5107  0.1363 -0.8352
  106MOL   H26227772   1.404   2.069   0.385  0.0823  0.5995 -0.5572
  107MOL     C127773   7.608   2.630   2.263  0.4949 -0.5071  0.2872
  107MOL     C227774   7.685   2.499   2.275  0.2903 -0.1136 -0.0037
  107MOL     C327775   7.636   2.375   2.279  1.2344 -0.1993 -0.3792
  107MOL     C427776   7.494   2.340   2.247 -0.1293  0.5336  0.2765
  107MOL     C527777   7.726   2.250   2.300  0.1236  0.3557 -0.4890
  107MOL     H627778   7.627   2.689   2.173  0.7806  0.0234  0.6914
  107MOL     H727779   7.500   2.623   2.276  0.4128  0.2990  0.0670
  107MOL     H827780   7.791   2.513   2.290  0.1894  0.4924  0.1989
  107MOL     H927781   7.429   2.426   2.263  0.4560  0.7223  1.7664
  107MOL    H1027782   7.453   2.254   2.300 -0.4792 -0.6582 -1.9048
  107MOL    H1127783   7.498   2.313   2.142  0.1539  0.4627  0.3047
  107MOL    H1227784   7.827   2.281   2.273  0.7787 -1.3855 -0.0776
  107MOL    H1327785   7.702   2.168   2.232 -1.7097 -0.8067  1.5272
  107MOL    H1427786   7.649   2.689   2.345  0.6807 -3.7899  2.6538
  107MOL    C1527787   7.717   2.183   2.437 -0.8184 -0.1625 -0.0434
  107MOL    C1627788   7.788   2.050   2.440 -0.1609  0.5080 -1.0617
  107MOL    C1727789   7.728   1.937   2.394  0.2408  0.6007 -0.4777
  107MOL    C1827790   7.582   1.938   2.346 -0.4281  0.3637  0.4346
  107MOL    C1927791   7.780   1.795   2.424  0.2128  0.7044  0.0941
  107MOL    H2027792   7.611   2.179   2.461 -0.6505 -1.4280  0.5035
  107MOL    H2127793   7.763   2.248   2.512  1.5415 -0.0525 -1.5348
  107MOL    H2227794   0.007   2.039   2.477 -0.6457 -1.6151 -0.2421
  107MOL    H2327795   7.539   2.030   2.306  0.3448 -0.0466 -1.3756
  107MOL    H2427796   7.509   1.904   2.420  1.4427 -0.5141  1.9141
  107MOL    H2527797   7.576   1.866   2.265 -1.5002  2.3963 -1.3350
  107MOL    H2627798   7.794   1.752   2.325 -1.7396  2.4899 -0.9905
  107MOL    H2727799   7.700   1.738   2.471 -1.1793  0.7833 -2.1294
  107MOL    C2827800   0.021   1.788   2.512  0.7083  0.5375  0.0935
  107MOL    C2927801   0.071   1.648   2.541 -0.0088 -0.1169  0.3972
  107MOL    C3027802   0.175   1.584   2.488  0.4681 -0.3876  0.7598
  107MOL    C3127803   0.279   1.633   2.393 -1.1299  0.0527  0.0784
  107MOL    C3227804   0.197   1.438   2.531 -0.3976 -0.0753 -0.3477
  107MOL    H3327805   0.007   1.830   2.612 -1.3785  1.2575 -0.4756
  107MOL    H3427806   0.100   1.847   2.465  1.1697  0.6599  0.9935
  107MOL    H3527807   0.005   1.593   2.606 -1.3904  0.0770 -0.8138
  107MOL    H3627808   0.377   1.622   2.439 -1.9541 -0.5254  1.7419
  107MOL    H3727809   0.271   1.739   2.371 -0.4648 -0.1637 -1.2521
  107MOL    H3827810   0.278   1.576   2.300 -0.1987  0.3211 -0.0915
  107MOL    H3927811   0.264   1.394   2.458 -1.0452  0.2690 -1.1578
  107MOL    H4027812   0.103   1.385   2.514 -0.5735  1.1654 -3.5440
  107MOL    C4127813   0.248   1.427   2.672 -0.4554  0.7431 -0.5255
  107MOL    C4227814   0.284   1.287   2.715 -0.0524  0.4028  0.2175
  107MOL    C4327815   0.406   1.231   2.691  0.3105  0.5575 -0.4416
  107MOL    C4427816   0.518   1.300   2.617  0.3457 -0.5873 -0.3607
  107MOL    C4527817   0.438   1.084   2.728  0.5183  0.4992  0.3148
  107MOL    H4627818   0.176   1.472   2.741  0.8980 -0.7445  1.9717
  107MOL    H4727819   0.329   1.499   2.682  2.4532 -2.5023  0.3200
  107MOL    H4827820   0.210   1.219   2.756  1.0728 -0.6446  0.5420
  107MOL    H4927821   0.477   1.371   2.545 -1.6730 -0.4971  0.8536
  107MOL    H5027822   0.586   1.232   2.565  2.4702  1.7620 -0.7682
  107MOL    H5127823   0.588   1.355   2.680  0.6900 -1.9085  0.4197
  107MOL    H5227824   0.461   1.019   2.642 -1.5890  1.8474 -1.3085
  107MOL    H5327825   0.354   1.039   2.780  0.2865 -0.9461 -1.2324
  107MOL    C5427826   0.569   1.068   2.817  0.3300  0.0652 -0.8080
  107MOL    C5527827   0.598   0.920   2.856 -0.3949 -0.2475  0.4332
  107MOL    C5627828   0.683   0.890   2.955  0.1547  0.6366  0.1519
  107MOL    C5727829   0.745   0.988   3.051 -0.4792  0.0401  0.7001
  107MOL    C5827830   0.715   0.744   2.976  0.5863  0.0559 -0.0885
  107MOL    H5927831   0.573   1.129   2.907 -0.7669 -0.5767 -0.3072
  107MOL    H6027832   0.656   1.090   2.755  1.2436 -2.4967 -0.5094
  107MOL    H6127833   0.558   0.840   2.796 -2.2628  0.5377  0.5887
  107MOL    H6227834   0.743   1.086   3.003 -2.5412  0.0655  0.7772
  107MOL    H6327835   0.851   0.967   3.064  0.7615  3.8196 -2.3025
  107MOL    H6427836   0.685   1.010   3.140  0.4766  1.1904  1.0672
  107MOL    H6527837   0.698   0.692   2.882  1.5326  0.4749 -0.4955
  107MOL    H6627838   0.642   0.716   3.052  1.8352 -0.6630  0.8485
  107MOL    C6727839   0.856   0.710   3.018 -0.3935  0.5555  0.0995
  107MOL    C6827840   0.868   0.560   3.026  0.6504  0.1199 -0.5073
  107MOL    C6927841   0.917   0.467   2.937  0.5986  0.1485  0.3370
  107MOL    C7027842   0.990   0.509   2.804  0.1874  0.5289 -0.8919
  107MOL    C7127843   0.896   0.318   2.955 -0.1647  0.4467  0.3564
  107MOL    H7227844   0.875   0.741   3.121 -0.7019  0.4398  0.1935
  107MOL    H7327845   0.919   0.754   2.941 -1.0032  1.1858 -0.0537
  107MOL    H7427846   0.807   0.520   3.105  1.7029  2.0241  1.2982
  107MOL    H7527847   1.057   0.438   2.755 -0.4271  0.8768 -2.2709
  107MOL    H7627848   1.049   0.596   2.831  0.6274  0.0312 -0.2405
  107MOL    H7727849   0.912   0.535   2.732 -1.7996 -1.0904  0.5760
  107MOL    H7827850   0.882   0.287   2.851 -3.6719 -0.5795  1.0615
  107MOL    H7927851   0.811   0.295   3.019 -0.1462  0.1446  0.2771
  107MOL    C8027852   1.025   0.252   3.007 -0.7107  0.4154  0.2559
  107MOL    C8127853   0.999   0.102   3.034 -0.0099 -0.0823  0.0726
  107MOL    C8227854   1.084   0.002   3.051 -0.2579 -0.3912 -0.2654
  107MOL    C8327855   1.234   0.033   3.032  0.6959  1.0308  0.2217
  107MOL    C8427856   1.049   7.737   3.073 -0.5480 -0.1022 -0.7815
  107MOL    H8527857   1.056   0.317   3.089  0.0848  0.3609 -0.0034
  107MOL    H8627858   1.108   0.251   2.937  0.4446 -1.1428  1.6162
  107MOL    H8727859   0.897   0.077   3.062  0.3956 -1.9802 -0.0798
  107MOL    H8827860   1.271   7.875   2.938 -1.0292  0.3779 -0.1860
  107MOL    H8927861   1.287   7.864   3.112 -0.1712 -0.3288 -0.0626
  107MOL    H9027862   1.258   0.136   3.057 -0.5058  1.8247 -1.7515
  107MOL    H9127863   1.103   7.702   3.161 -2.5641  1.1325  0.9870
  107MOL    H9227864   1.094   7.684   2.989  2.1654  1.3651 -0.3108
  107MOL    C9327865   0.903   7.712   3.108  0.2673 -0.1679  0.0724
  107MOL    C9427866   0.878   7.565   3.136 -0.5643 -0.3525  0.1959
  107MOL    C9527867   0.838   7.473   3.048 -0.9336  0.7073 -0.9827
  107MOL    C9627868   0.791   7.502   2.911 -0.3845 -0.4326 -0.5627
  107MOL    C9727869   0.830   7.330   3.103  0.1916  0.2721 -0.4142
  107MOL    H9827870   0.846   7.747   3.022 -2.5209  2.4639  2.8886
  107MOL    H9927871   0.867   7.778   3.186 -0.8020  1.4804 -1.7709
  107MOL   H10027872   0.912   7.535   3.234 -1.1664 -2.0326 -0.0939
  107MOL   H10127873   0.836   7.427   2.845  1.6455  0.0547  0.2317
  107MOL   H10227874   0.827   7.601   2.882  0.4477 -0.5616 -0.0052
  107MOL   H10327875   0.684   7.492   2.896 -0.5158 -0.6460  0.5213
  107MOL   H10427876   0.894   7.308   3.189 -0.2568  1.4700  0.2277
  107MOL   H10527877   0.865   7.264   3.023 -0.7432 -0.8727  0.1142
  107MOL   C10627878   0.680   7.294   3.142  0.0460  0.7521 -0.8999
  107MOL   C10727879   0.638   7.357   3.276 -0.1171 -0.5807 -0.1163
  107MOL   C10827880   0.542   7.445   3.293 -0.3189 -0.4283 -0.1956
  107MOL   C10927881   0.460   7.499   3.176 -0.1362  0.4713 -0.0727
  107MOL   C11027882   0.527   7.520   3.423 -0.5103 -0.2998 -0.7564
  107MOL   H11127883   0.662   7.187   3.146  0.7391  0.7100  2.4000
  107MOL   H11227884   0.623   7.324   3.054 -1.4143  0.9331  0.0781
  107MOL   H11327885   0.698   7.321   3.358  0.6455  0.8775 -0.0279
  107MOL   H11427886   0.364   7.545   3.200 -1.1456  0.0453 -3.1115
  107MOL   H11527887   0.426   7.418   3.112  1.7270  0.5315 -1.1659
  107MOL   H11627888   0.524   7.568   3.121  2.9038 -0.4989  2.0888
  107MOL   H11727889   0.565   7.462   3.508  0.2627  0.6849 -0.4272
  107MOL   H11827890   0.420   7.535   3.440 -0.2440  1.8039 -0.8626
  107MOL   C11927891   0.591   7.663   3.415  0.3375  0.1226 -0.0092
  107MOL   C12027892   0.732   7.652   3.460 -0.3025  0.4732 -0.9702
  107MOL   C12127893   0.807   7.728   3.545  0.2005 -0.0736 -0.2104
  107MOL   C12227894   0.753   7.849   3.617  0.1853  0.6909 -0.2418
  107MOL   C12327895   0.949   7.690   3.586  0.0189 -0.7440 -0.1164
  107MOL   H12427896   0.538   7.719   3.492  0.7062 -1.0911  1.1321
  107MOL   H12527897   0.573   7.698   3.313  2.8134 -0.5358 -0.7073
  107MOL   H12627898   0.781   7.569   3.412 -2.1890 -0.1499 -1.8698
  107MOL   H12727899   0.649   7.880   3.606 -0.0059  0.0859 -0.1669
  107MOL   H12827900   0.812   0.050   3.580  0.7171  1.3789  2.0644
  107MOL   H12927901   0.768   7.845   3.725 -0.1026  0.2475 -0.2148
  107MOL   H13027902   0.948   7.583   3.607  0.3713 -0.9974 -1.3664
  107MOL   H13127903   0.985   7.729   3.681 -1.4751  0.4437 -0.0243
  107MOL   C13227904   1.044   7.716   3.469 -0.2449  0.0236 -0.1874
  107MOL   C13327905   1.183   7.662   3.506 -0.4127 -0.5507 -0.8676
  107MOL   C13427906   1.303   7.725   3.485 -0.5161 -0.5450 -0.2893
  107MOL   C13527907   1.336   7.854   3.407  0.0127 -0.5469 -0.5532
  107MOL   C13627908   1.426   7.655   3.542 -0.1130  0.0332  0.1636
  107MOL   H13727909   1.063   7.822   3.458  0.9118 -0.3312 -1.8774
  107MOL   H13827910   1.025   7.670   3.372  1.4245 -0.3014 -0.3763
  107MOL   H13927911   1.190   7.563   3.550  4.2911  0.5252  1.1131
  107MOL   H14027912   1.259   0.009   3.341 -0.1212  0.3614  0.1091
  107MOL   H14127913   1.424   7.828   3.348  1.1289  0.8913  0.4172
  107MOL   H14227914   1.376   0.038   3.484  0.8118 -1.5997 -0.0337
  107MOL   H14327915   1.510   7.670   3.474 -0.7026  1.8439 -0.1849
  107MOL   H14427916   1.417   7.547   3.530  3.7588 -0.1693 -1.5734
  107MOL   C14527917   1.451   7.682   3.689 -0.6665  0.1915  0.5587
  107MOL   C14627918   1.558   7.602   3.760  0.6009  0.4733  0.0788
  107MOL   C14727919   1.680   7.641   3.813 -0.2884  0.4266  0.3196
  107MOL   C14827920   1.734   7.785   3.807 -0.0174  0.2823 -0.5886
  107MOL   C14927921   1.774   7.550   3.892 -0.1723 -1.2803  0.1805
  107MOL   H15027922   1.362   7.664   3.749  0.1100  1.1329  2.0348
  107MOL   H15127923   1.466   7.790   3.694  1.2235 -0.0383  0.2741
  107MOL   H15227924   1.530   7.502   3.790 -0.6443  1.1151  1.0814
  107MOL   H15327925   1.842   7.789   3.792 -0.0011 -1.1125 -0.8676
  107MOL   H15427926   1.712   7.841   3.898 -0.9886  0.2246 -0.7856
  107MOL   H15527927   1.690   7.839   3.723 -2.0669  0.6154  0.6710
  107MOL   H15627928   1.707   7.470   3.924 -1.1358  0.1641  1.8427
  107MOL   H15727929   1.807   7.605   3.980 -2.9665 -1.2231  1.2276
  107MOL   C15827930   1.893   7.489   3.813  0.2368 -0.3227  0.1668
  107MOL   C15927931   1.990   7.436   3.918 -0.2819  0.0331 -0.6257
  107MOL   C16027932   2.120   7.407   3.904  0.1662  0.4947 -0.6186
  107MOL   C16127933   2.193   7.420   3.768  0.0325 -0.1508 -0.0627
  107MOL   C16227934   2.211   7.377   4.016 -0.1157 -1.0385  0.3560
  107MOL   H16327935   1.951   7.566   3.761  1.0807 -0.2314  1.2347
  107MOL   H16427936   1.866   7.410   3.743  0.6666  0.8496 -1.3751
  107MOL   H16527937   1.945   7.416   4.015  3.2113 -2.1555  0.6345
  107MOL   H16627938   2.116   7.427   3.691  0.2320 -0.7700 -0.3194
  107MOL   H16727939   2.259   7.335   3.755 -0.2432 -0.3718 -0.0260
  107MOL   H16827940   2.238   7.519   3.775 -2.5451  0.9859  1.2437
  107MOL   H16927941   2.290   7.449   4.036 -0.3390 -0.3469 -1.1324
  107MOL   H17027942   2.274   7.294   3.983 -0.2497 -1.4851  1.2151
  107MOL   C17127943   2.149   7.353   4.158 -0.2763 -0.3904 -0.3088
  107MOL   C17227944   2.260   7.316   4.259  0.3377 -0.3026  0.4476
  107MOL   C17327945   2.327   7.403   4.340 -0.4818  0.6390 -0.0456
  107MOL   C17427946   2.302   7.555   4.330 -0.1936 -0.6425  0.5491
  107MOL   C17527947   2.447   7.351   4.422  0.2362  0.2665 -0.2622
  107MOL   H17627948   2.106   7.253   4.154  1.0239 -1.1608  3.4396
  107MOL   H17727949   2.073   7.423   4.191 -0.6680 -1.0104  0.1081
  107MOL   H17827950   2.296   7.215   4.259 -0.6458 -0.6573  0.5210
  107MOL   H17927951   2.326   7.608   4.423 -1.4024 -0.1104  0.5707
  107MOL   H18027952   2.198   7.582   4.311  0.2209  0.6214  0.0259
  107MOL   H18127953   2.361   7.600   4.250 -1.9653 -0.1152 -0.4970
  107MOL   H18227954   2.461   7.246   4.396  3.4363  0.3930  0.7289
  107MOL   H18327955   2.447   7.378   4.527 -0.3581 -1.2751  0.1421
  107MOL   C18427956   2.572   7.412   4.367  0.4412 -0.0850  0.2430
  107MOL   C18527957   2.695   7.381   4.454 -1.0576 -0.4099 -0.2187
  107MOL   C18627958   2.823   7.417   4.422 -0.2330  0.2508  0.4356
  107MOL   C18727959   2.854   7.491   4.298  0.4981 -0.0192  0.4151
  107MOL   C18827960   2.940   7.378   4.508  0.6447  0.1324 -0.1681
  107MOL   H18927961   2.557   7.519   4.378  1.1322 -0.0891  1.3584
  107MOL   H19027962   2.589   7.372   4.267 -1.2773  2.0514 -0.9330
  107MOL   H19127963   2.680   7.338   4.552  3.4509  0.5837  1.0274
  107MOL   H19227964   2.913   7.436   4.225 -1.1895 -2.5961  0.9405
  107MOL   H19327965   2.890   7.591   4.324 -2.4644  1.9979 -2.8145
  107MOL   H19427966   2.763   7.512   4.243  0.2315 -0.5691  0.6474
  107MOL   H19527967   2.999   7.468   4.496  0.9084 -0.1791 -1.2393
  107MOL   H19627968   2.994   7.293   4.467  1.1590  0.0826  0.6010
  107MOL   C19727969   2.910   7.336   4.647 -0.1432  0.0283 -0.3415
  107MOL   C19827970   2.866   7.447   4.736 -0.4471  0.0218  0.0283
  107MOL   C19927971   2.926   7.489   4.849  0.2581 -0.3762 -0.4733
  107MOL   C20027972   3.062   7.435   4.906 -0.9387  0.0847 -0.2594
  107MOL   C20127973   2.859   7.600   4.931  0.2102 -0.0607  0.0168
  107MOL   H20227974   3.001   7.288   4.684 -2.2568 -1.3555  3.1927
  107MOL   H20327975   2.839   7.254   4.652 -0.6307  0.5069  0.5603
  107MOL   H20427976   2.769   7.483   4.705 -1.6944 -3.3044 -0.1635
  107MOL   H20527977   3.065   7.420   5.014 -3.0501  0.1950 -0.1574
  107MOL   H20627978   3.141   7.509   4.892  0.8947 -2.0144 -1.2877
  107MOL   H20727979   3.100   7.339   4.872 -1.7298 -0.3875  0.1794
  107MOL   H20827980   2.775   7.638   4.873  0.6645 -0.3728 -0.8551
  107MOL   H20927981   2.926   7.680   4.963 -0.5358  0.4432  0.3172
  107MOL   C21027982   2.789   7.565   5.070  0.3863  0.5226  0.2186
  107MOL   C21127983   2.743   7.685   5.141 -0.2105 -0.5221  0.1719
  107MOL   C21227984   2.797   7.748   5.244 -0.3733  0.0781 -0.1177
  107MOL   C21327985   2.945   7.730   5.283  0.0125 -0.6039  0.8421
  107MOL   C21427986   2.721   7.851   5.322  0.1867  0.3555 -0.6889
  107MOL   H21527987   2.849   7.512   5.144  0.0961  0.1724  0.2029
  107MOL   H21627988   2.708   7.492   5.063  1.4854 -0.5299 -2.1086
  107MOL   H21727989   2.641   7.711   5.115 -0.1287  0.2378  0.5966
  107MOL   H21827990   3.010   7.817   5.278 -1.0319  0.1684  0.5389
  107MOL   H21927991   2.996   7.652   5.226  0.4090 -0.3460  0.8447
  107MOL   H22027992   2.958   7.700   5.387  1.1276  0.2372  0.9523
  107MOL   H22127993   2.620   7.855   5.281 -0.3383  3.0460  0.7732
  107MOL   H22227994   2.764   0.068   5.326 -0.3637  0.5079  2.6705
  107MOL   C22327995   2.716   7.808   5.470 -0.2083  0.0193 -0.0557
  107MOL   C22427996   2.605   7.879   5.551  0.8228  0.8755 -0.0903
  107MOL   C22527997   2.515   7.809   5.633  0.3533 -0.0354  0.4777
  107MOL   C22627998   2.530   7.659   5.666 -0.2706  0.4011 -0.6828
  107MOL   C22727999   2.402   7.874   5.712  0.2518 -0.4309  0.3696
  107MOL   H22828000   2.805   7.825   5.530  0.5639 -0.4819 -1.0476
  107MOL   H22928001   2.710   7.699   5.474  1.2083 -0.0571  0.1055
  107MOL   H23028002   2.586   0.102   5.536  2.3036  0.9728 -1.4097
  107MOL   H23128003   2.561   7.596   5.583  0.5769 -0.3095  0.1485
  107MOL   H23228004   2.434   7.612   5.687  1.1020 -1.6389  1.3876
  107MOL   H23328005   2.585   7.632   5.757  1.5501  0.2243 -1.8199
  107MOL   H23428006   2.306   7.828   5.686 -0.8950  1.3702  1.3056
  107MOL   H23528007   2.369   0.090   5.677 -1.4777 -1.3673 -0.7196
  107MOL   C23628008   2.431   7.876   5.865 -0.6810 -1.1192 -0.0309
  107MOL   C23728009   2.337   0.077   5.961 -0.0767  0.5032 -0.3894
  107MOL   C23828010   2.311   0.053   6.097 -0.2943  0.5306 -0.3383
  107MOL   C23928011   2.354   7.812   6.168 -0.2937 -0.2300  0.8802
  107MOL   C24028012   2.222   0.145   6.180 -0.2426  0.5686 -0.0019
  107MOL   H24128013   2.528   0.044   5.868 -0.1699 -2.1441  1.3911
  107MOL   H24228014   2.449   7.774   5.898 -0.0104 -0.8734  0.3770
  107MOL   H24328015   2.322   0.175   5.919  1.8811  0.3198 -1.5690
  107MOL   H24428016   2.371   7.845   6.271 -0.4914 -1.0870  1.1874
  107MOL   H24528017   2.433   7.758   6.117 -1.6615  0.0343 -1.5942
  107MOL   H24628018   2.271   7.741   6.171  0.3441 -0.9727  0.8647
  107MOL   H24728019   2.215   0.237   6.123  0.0402 -0.5972 -1.9664
  107MOL   H24828020   2.259   0.170   6.279  0.4458  1.7783 -0.5638
  107MOL   C24928021   2.081   0.088   6.190  0.1850 -0.4181 -0.4539
  107MOL   C25028022   1.975   0.190   6.217 -0.1749 -0.2240 -0.0169
  107MOL   C25128023   1.929   0.222   6.337 -0.1676 -0.5597 -0.1830
  107MOL   C25228024   1.997   0.178   6.470  0.1148  0.0733 -0.4932
  107MOL   C25328025   1.814   0.319   6.354  0.5759  0.4048  0.1309
  107MOL   H25428026   2.085   0.001   6.255 -0.3008  2.4235  3.5717
  107MOL   H25528027   2.045   0.041   6.099 -0.3961 -1.4345  0.3017
  107MOL   H25628028   1.926   0.233   6.131  1.7447  0.7157 -0.6593
  107MOL   H25728029   1.929   0.115   6.527  1.4573 -1.5059 -0.5900
  107MOL   H25828030   2.026   0.266   6.528 -0.8440  0.3702 -0.4544
  107MOL   H25928031   2.091   0.123   6.461 -0.5420 -1.2087  0.4010
  107MOL   H26028032   1.833   0.388   6.437  3.0931 -1.1200  0.8942
  107MOL   H26128033   1.722   0.262   6.360 -0.9286  2.7889  0.0413
  107MOL   H26228034   1.795   0.393   6.276  0.7321  0.0430 -0.2537
  108MOL     C128035   0.385   6.577   6.521 -0.4231 -0.1323 -1.0053
  108MOL     C228036   0.255   6.505   6.542  0.3279 -0.0823  0.6608
  108MOL     C328037   0.159   6.488   6.445  0.3412  0.0070 -0.5153
  108MOL     C428038   0.173   6.525   6.300 -0.9578 -0.8544 -0.3148
  108MOL     C528039   0.025   6.441   6.483  0.1067  0.3414 -0.1653
  108MOL     H628040   0.455   6.523   6.456  2.1211 -1.7759  2.8587
  108MOL     H728041   0.360   6.679   6.492  3.0618  1.5129  1.4788
  108MOL     H828042   0.227   6.487   6.645 -2.7863  0.0801 -0.0989
  108MOL     H928043   0.139   6.441   6.239 -0.8651  0.8329 -2.7783
  108MOL    H1028044   0.281   6.529   6.288 -0.9010  0.2412  0.5370
  108MOL    H1128045   0.133   6.625   6.284  0.2854 -0.3264 -0.1544
  108MOL    H1228046   0.036   6.371   6.566  3.0416  1.4200  0.3978
  108MOL    H1328047   0.005   6.371   6.401  2.8475  0.8752 -1.3444
  108MOL    H1428048   0.442   6.585   6.614  0.8356 -2.6906 -1.5020
  108MOL    C1528049   7.801   6.555   6.497  0.4968 -0.5802  0.7944
  108MOL    C1628050   7.658   6.496   6.499 -1.0684  0.2526 -0.4284
  108MOL    C1728051   7.542   6.557   6.528 -0.7600  0.4058 -0.3381
  108MOL    C1828052   7.543   6.697   6.562 -0.3930 -0.0095 -0.9302
  108MOL    C1928053   7.409   6.484   6.520 -0.5434 -0.3271  0.2651
  108MOL    H2028054   7.818   6.619   6.410 -2.7065 -0.6403  0.0826
  108MOL    H2128055   7.811   6.622   6.582  0.4473  0.2429  0.1597
  108MOL    H2228056   7.644   6.395   6.461 -1.2938  0.9316 -2.2129
  108MOL    H2328057   7.617   6.757   6.508  1.9433 -1.5461  0.4592
  108MOL    H2428058   7.577   6.696   6.665 -1.3216  0.5646 -0.6128
  108MOL    H2528059   7.441   6.734   6.565 -0.3553  0.3417 -2.9125
  108MOL    H2628060   7.363   6.489   6.619  2.6196 -0.1186  1.8003
  108MOL    H2728061   7.443   6.381   6.503  1.3287 -0.2325  3.0300
  108MOL    C2828062   7.321   6.527   6.403  0.3805  0.7081  0.0592
  108MOL    C2928063   7.189   6.457   6.413  0.0723  0.4957 -0.2824
  108MOL    C3028064   7.122   6.417   6.302 -0.2598 -0.5978 -0.7254
  108MOL    C3128065   7.165   6.468   6.164  0.3556 -0.2167  0.1310
  108MOL    C3228066   6.996   6.336   6.316  0.5716  0.1847 -0.3632
  108MOL    H3328067   7.385   6.511   6.316  1.9336 -0.8234  1.4215
  108MOL    H3428068   7.293   6.632   6.401 -1.4524  0.2323 -0.1711
  108MOL    H3528069   7.154   6.442   6.514  2.4062 -1.1985  0.3227
  108MOL    H3628070   7.095   6.539   6.121  1.8179 -0.6923 -3.1054
  108MOL    H3728071   7.161   6.382   6.097  2.0379 -1.4421  1.5278
  108MOL    H3828072   7.265   6.510   6.151 -0.3730  1.7031  0.5405
  108MOL    H3928073   6.918   6.406   6.286  1.2728  1.5603  0.9200
  108MOL    H4028074   6.983   6.314   6.422 -0.5297  0.8554 -0.3601
  108MOL    C4128075   6.995   6.200   6.244 -0.1677 -0.8721  0.4105
  108MOL    C4228076   6.866   6.123   6.271 -0.2528 -0.2905 -0.0627
  108MOL    C4328077   6.794   6.046   6.188 -0.4473  0.3383 -0.2961
  108MOL    C4428078   6.836   6.014   6.050 -0.3738  0.2593  0.3500
  108MOL    C4528079   6.662   5.982   6.238  0.2044  0.6452 -0.1052
  108MOL    H4628080   7.083   6.151   6.286  0.1028  0.8760  1.9502
  108MOL    H4728081   7.011   6.220   6.138  0.1760 -3.2149 -0.0015
  108MOL    H4828082   6.823   6.138   6.369 -1.4273 -1.6490 -0.3562
  108MOL    H4928083   6.836   5.906   6.037  0.2783  0.0406  2.1481
  108MOL    H5028084   6.938   6.052   6.044 -0.7616  1.9552  3.6040
  108MOL    H5128085   6.770   6.056   5.974  0.7024  1.2550 -0.0379
  108MOL    H5228086   6.574   6.041   6.211 -0.2107  0.2750  0.4388
  108MOL    H5328087   6.657   5.985   6.347 -0.4226 -0.0381 -0.1073
  108MOL    C5428088   6.645   5.838   6.208  0.4391  0.8543 -0.1437
  108MOL    C5528089   6.529   5.786   6.276 -0.6337  1.1081 -0.2799
  108MOL    C5628090   6.399   5.776   6.231  0.2040  0.1686 -0.9833
  108MOL    C5728091   6.349   5.820   6.097  0.0679  0.3764 -0.7998
  108MOL    C5828092   6.294   5.704   6.317  0.4358 -0.1106  0.3187
  108MOL    H5928093   6.736   5.787   6.239  1.0675  1.2658 -1.2448
  108MOL    H6028094   6.628   5.819   6.102 -1.4174 -0.9405  0.4484
  108MOL    H6128095   6.554   5.752   6.375 -0.8340 -0.0447 -0.6290
  108MOL    H6228096   6.425   5.877   6.044 -0.2115  1.8048  0.2989
  108MOL    H6328097   6.260   5.883   6.104  1.3641  1.9430  3.5056
  108MOL    H6428098   6.328   5.725   6.048  2.4411 -0.9713  0.6687
  108MOL    H6528099   6.256   5.778   6.388 -0.1541 -1.8265  1.8127
  108MOL    H6628100   6.349   5.627   6.371 -0.7963 -1.0772  0.2238
  108MOL    C6728101   6.165   5.645   6.244  0.2662  0.2603  0.0784
  108MOL    C6828102   6.068   5.558   6.331 -0.1992 -0.1607  0.1124
  108MOL    C6928103   5.934   5.562   6.332  0.1767  0.1245 -0.4961
  108MOL    C7028104   5.856   5.657   6.235 -0.0186 -0.1249  0.2140
  108MOL    C7128105   5.851   5.471   6.420 -0.2570 -0.4687  0.2453
  108MOL    H7228106   6.199   5.581   6.163  0.4424  0.1572  0.2322
  108MOL    H7328107   6.106   5.722   6.194  1.2053  1.2456  0.4528
  108MOL    H7428108   6.116   5.491   6.400 -3.6173 -1.3189  1.4805
  108MOL    H7528109   5.839   5.756   6.277 -0.2788  0.2232 -0.6827
  108MOL    H7628110   5.754   5.618   6.229  0.1428 -0.2140 -2.8420
  108MOL    H7728111   5.893   5.669   6.133 -1.9041  1.6284 -0.2946
  108MOL    H7828112   5.918   5.388   6.445  0.5210 -0.4799 -1.7497
  108MOL    H7928113   5.780   5.417   6.357 -1.9679 -0.5616  2.2156
  108MOL    C8028114   5.793   5.552   6.534 -0.5856  0.6733  0.0995
  108MOL    C8128115   5.898   5.626   6.615  0.0002 -0.1399 -0.0624
  108MOL    C8228116   5.988   5.566   6.699 -0.2190  0.3339 -0.2901
  108MOL    C8328117   6.010   5.412   6.705 -0.1446  0.1848  0.0410
  108MOL    C8428118   6.086   5.649   6.781  0.0659 -0.1066  0.0566
  108MOL    H8528119   5.740   5.491   6.608  0.6141 -0.0909  0.3308
  108MOL    H8628120   5.718   5.622   6.496 -1.8990 -0.7350  0.0572
  108MOL    H8728121   5.885   5.733   6.607  1.4089 -0.1605 -3.3701
  108MOL    H8828122   6.108   5.381   6.667 -0.6468 -0.6454 -0.5959
  108MOL    H8928123   5.931   5.352   6.660  1.7612 -2.8524  0.5256
  108MOL    H9028124   6.006   5.385   6.811  0.2553  0.8420  0.2261
  108MOL    H9128125   6.072   5.757   6.767  2.1495 -0.1490 -2.9668
  108MOL    H9228126   6.181   5.619   6.737 -0.7793 -1.2354 -1.0377
  108MOL    C9328127   6.078   5.614   6.929  0.6118  0.5817  0.2272
  108MOL    C9428128   6.182   5.698   7.001 -0.2666 -0.0472  0.1307
  108MOL    C9528129   6.162   5.767   7.112 -0.2673 -0.3257 -0.0055
  108MOL    C9628130   6.032   5.757   7.188  0.0928  0.1690 -0.0026
  108MOL    C9728131   6.272   5.851   7.180  0.0029 -0.7446 -0.0194
  108MOL    H9828132   6.089   5.508   6.954 -2.3961 -0.7817 -3.6174
  108MOL    H9928133   5.978   5.643   6.961 -0.0087 -1.2931  0.0611
  108MOL   H10028134   6.279   5.698   6.953 -0.0484 -1.7518  0.5586
  108MOL   H10128135   5.988   5.657   7.189  2.1766 -0.7967  3.5744
  108MOL   H10228136   5.961   5.814   7.128  0.6922  0.6675 -0.2475
  108MOL   H10328137   6.034   5.799   7.288 -0.6083 -1.2065  0.6033
  108MOL   H10428138   6.376   5.833   7.152  0.0461 -0.8638  0.2145
  108MOL   H10528139   6.277   5.830   7.287  1.1308 -1.1474 -0.1487
  108MOL   C10628140   6.229   6.000   7.165 -0.1373  0.8894 -0.3450
  108MOL   C10728141   6.337   6.099   7.198 -0.0788  0.1839 -0.4675
  108MOL   C10828142   6.371   6.208   7.130  0.1149 -0.3785  0.1920
  108MOL   C10928143   6.285   6.267   7.015 -0.0087  0.2010 -0.9614
  108MOL   C11028144   6.489   6.290   7.177 -0.2233  0.6621  0.3808
  108MOL   H11128145   6.149   6.028   7.233  2.9778  0.3061  3.7738
  108MOL   H11228146   6.201   6.009   7.060 -0.7287  3.8641  0.0305
  108MOL   H11328147   6.397   6.063   7.279  0.3631  1.5080 -0.1963
  108MOL   H11428148   6.186   6.223   7.000 -1.3713  2.9629 -0.3308
  108MOL   H11528149   6.337   6.258   6.919 -1.0090  1.1874 -1.6123
  108MOL   H11628150   6.278   6.375   7.030 -1.9998 -0.0875  0.2805
  108MOL   H11728151   6.533   6.339   7.090  0.6332 -1.5232 -0.4657
  108MOL   H11828152   6.566   6.221   7.210  0.5792  2.1704  1.7271
  108MOL   C11928153   6.467   6.396   7.291 -0.2507  0.0265 -0.0022
  108MOL   C12028154   6.583   6.495   7.297  0.1179  0.8508  0.2928
  108MOL   C12128155   6.581   6.619   7.351  0.7009 -0.2997 -0.4548
  108MOL   C12228156   6.459   6.659   7.440  0.4293 -0.3029 -0.2092
  108MOL   C12328157   6.689   6.724   7.342 -0.0946 -0.1297 -0.6594
  108MOL   H12428158   6.465   6.348   7.389 -0.5633 -0.6382 -0.3281
  108MOL   H12528159   6.375   6.454   7.285 -1.6784 -2.2168 -0.4563
  108MOL   H12628160   6.674   6.471   7.244 -0.4411  1.1829 -0.8292
  108MOL   H12728161   6.369   6.599   7.430  1.3573 -1.7492 -0.0606
  108MOL   H12828162   6.434   6.763   7.418  0.6060 -0.4287 -1.0143
  108MOL   H12928163   6.487   6.642   7.544 -2.5249 -0.1806  0.6570
  108MOL   H13028164   6.669   6.780   7.434  1.3898 -1.8526  0.7658
  108MOL   H13128165   6.661   6.797   7.267 -0.0076  1.5987  0.9592
  108MOL   C13228166   6.831   6.680   7.331 -0.3125 -0.5852  0.2840
  108MOL   C13328167   6.853   6.644   7.189 -0.3077 -0.7038 -0.2415
  108MOL   C13428168   6.914   6.532   7.144  0.6403 -0.1015  0.1081
  108MOL   C13528169   6.961   6.417   7.230 -0.2360  0.0733 -0.0998
  108MOL   C13628170   6.922   6.505   6.995  0.0212 -0.2862 -0.6997
  108MOL   H13728171   6.868   6.615   7.410 -0.5764 -0.8029  0.2289
  108MOL   H13828172   6.899   6.764   7.343 -1.9808  1.0022 -1.0278
  108MOL   H13928173   6.806   6.707   7.114 -1.5195 -1.4532 -0.1266
  108MOL   H14028174   6.879   6.345   7.237 -2.2820  2.2545 -0.9456
  108MOL   H14128175   6.998   6.460   7.323 -1.8132  1.0018  0.1093
  108MOL   H14228176   7.040   6.358   7.183 -0.9948 -0.5356 -0.6231
  108MOL   H14328177   7.011   6.451   6.965 -0.0980 -0.5707 -0.5537
  108MOL   H14428178   6.922   6.602   6.945 -0.4811  0.2263  0.2563
  108MOL   C14528179   6.806   6.423   6.948 -0.1461  0.2728  0.0749
  108MOL   C14628180   6.804   6.403   6.793 -0.1901  0.5791  0.0394
  108MOL   C14728181   6.687   6.409   6.720 -0.3895 -0.0912  0.7676
  108MOL   C14828182   6.551   6.431   6.774  0.2737  0.2427  0.1551
  108MOL   C14928183   6.691   6.385   6.566  0.2370  0.4757  0.5042
  108MOL   H15028184   6.717   6.472   6.989  1.2347  4.7866 -2.0173
  108MOL   H15128185   6.822   6.324   6.991  1.7872  0.5624  0.0418
  108MOL   H15228186   6.899   6.374   6.751  0.4950  1.5394  0.9208
  108MOL   H15328187   6.554   6.532   6.817 -0.7874  0.1252  0.5017
  108MOL   H15428188   6.532   6.354   6.848  0.2989  0.3312  0.2547
  108MOL   H15528189   6.467   6.438   6.705  0.0787 -4.0472 -0.1363
  108MOL   H15628190   6.595   6.340   6.541 -0.1183  1.0081  0.9187
  108MOL   H15728191   6.764   6.308   6.538  0.0579  0.9704 -1.3516
  108MOL   C15828192   6.705   6.522   6.497 -0.0119 -0.1432 -0.1077
  108MOL   C15928193   6.676   6.515   6.351  0.1483 -0.2302 -0.3106
  108MOL   C16028194   6.660   6.618   6.267  0.3026 -0.9864 -0.1740
  108MOL   C16128195   6.669   6.764   6.313 -0.0445 -0.6659 -0.0740
  108MOL   C16228196   6.635   6.588   6.124 -0.2209 -0.1707  0.2645
  108MOL   H16328197   6.805   6.565   6.508  0.3996 -0.8914 -0.8621
  108MOL   H16428198   6.630   6.588   6.541 -0.2353  0.1681 -0.9590
  108MOL   H16528199   6.663   6.417   6.307 -0.0412 -0.0987 -0.5452
  108MOL   H16628200   6.664   6.782   6.420 -2.5853  2.5544 -0.6305
  108MOL   H16728201   6.589   6.823   6.268  1.7379  2.6548  0.9023
  108MOL   H16828202   6.766   6.804   6.281  0.1082 -0.2556  0.8871
  108MOL   H16928203   6.534   6.617   6.094  0.7479  1.0971 -1.8601
  108MOL   H17028204   6.624   6.480   6.113  1.9926 -0.7309  3.0256
  108MOL   C17128205   6.744   6.645   6.029 -0.7317  0.3845  0.7718
  108MOL   C17228206   6.732   6.590   5.887  0.7774 -0.7891  0.1843
  108MOL   C17328207   6.819   6.510   5.820  0.2398 -0.9308 -0.8629
  108MOL   C17428208   6.943   6.447   5.885 -1.0787 -0.1216 -0.3065
  108MOL   C17528209   6.799   6.477   5.680  0.2090 -0.1781 -0.3893
  108MOL   H17628210   6.848   6.633   6.061  0.1529 -0.5766 -2.3024
  108MOL   H17728211   6.748   6.753   6.019  3.0180  0.1602 -1.1276
  108MOL   H17828212   6.640   6.624   5.842  1.8272 -1.0655 -2.2731
  108MOL   H17928213   7.030   6.504   5.854  1.2923 -3.1463  0.6302
  108MOL   H18028214   6.954   6.344   5.850  0.5994 -0.0980  0.1241
  108MOL   H18128215   6.935   6.445   5.993  1.8091  0.2138 -0.0648
  108MOL   H18228216   6.776   6.371   5.689  2.7363 -0.6248  1.1237
  108MOL   H18328217   6.900   6.483   5.638  1.4219 -0.5864  2.3716
  108MOL   C18428218   6.700   6.557   5.596  0.3757 -0.3544 -0.2052
  108MOL   C18528219   6.718   6.556   5.442 -0.2160  0.6739  0.1182
  108MOL   C18628220   6.630   6.602   5.350  0.3630  0.3403  0.1707
  108MOL   C18728221   6.495   6.650   5.397 -0.1348  0.3807  0.0330
  108MOL   C18828222   6.650   6.602   5.198  0.5564  0.2800 -0.2943
  108MOL   H18928223   6.696   6.660   5.631  3.0554  0.3157 -1.7329
  108MOL   H19028224   6.603   6.519   5.628  0.4914 -0.0886  0.4870
  108MOL   H19128225   6.810   6.506   5.415 -0.0392 -0.2227  2.2833
  108MOL   H19228226   6.426   6.566   5.396  0.1065  0.1334  1.7617
  108MOL   H19328227   6.468   6.731   5.328 -1.0913  0.3209  0.3256
  108MOL   H19428228   6.498   6.696   5.496 -0.4415  0.3511  0.0571
  108MOL   H19528229   6.618   6.699   5.161  0.5987 -0.6469 -2.8425
  108MOL   H19628230   6.593   6.525   5.145  0.5920 -0.1453  0.2758
  108MOL   C19728231   6.798   6.589   5.155  0.3687 -0.2800  0.7156
  108MOL   C19828232   6.813   6.615   5.006 -0.4556 -0.1849  0.0257
  108MOL   C19928233   6.904   6.694   4.944  0.2254 -0.0962  0.3127
  108MOL   C20028234   6.997   6.789   5.019  0.6244 -0.5419 -0.7924
  108MOL   C20128235   6.910   6.718   4.790  0.3164 -0.6802  0.3011
  108MOL   H20228236   6.825   6.485   5.175  0.1259 -0.3616  0.6212
  108MOL   H20328237   6.862   6.656   5.212  0.0365  0.1500  0.5864
  108MOL   H20428238   6.753   6.557   4.937 -0.9080 -2.0688  1.9544
  108MOL   H20528239   6.931   6.870   5.052 -0.5626 -0.5656 -3.0111
  108MOL   H20628240   7.080   6.826   4.959  0.1921 -0.1263 -1.1492
  108MOL   H20728241   7.038   6.733   5.103  0.3131  0.9641  0.3853
  108MOL   H20828242   6.844   6.648   4.739  1.0401 -1.1528 -0.0011
  108MOL   H20928243   7.012   6.685   4.771  0.2273 -0.4472 -0.6062
  108MOL   C21028244   6.874   6.862   4.746  0.3363 -0.1373  0.2890
  108MOL   C21128245   6.909   6.883   4.598 -0.2600 -0.0025 -0.1098
  108MOL   C21228246   6.843   6.951   4.506 -0.0342  0.3589 -0.3768
  108MOL   C21328247   6.720   7.031   4.537 -0.0749 -0.6082 -0.0576
  108MOL   C21428248   6.898   6.984   4.370 -0.3712 -0.5058  0.2577
  108MOL   H21528249   6.923   6.944   4.799 -1.0703 -0.4976  2.1967
  108MOL   H21628250   6.767   6.871   4.764  0.9126  3.0206  2.6398
  108MOL   H21728251   7.002   6.837   4.565 -0.1076 -0.4351  0.9165
  108MOL   H21828252   6.668   7.054   4.444  0.5244  0.1951 -0.2006
  108MOL   H21928253   6.741   7.131   4.574  1.0575 -0.7260 -0.3642
  108MOL   H22028254   6.642   6.981   4.595 -0.1952 -1.1141 -0.6536
  108MOL   H22128255   6.823   6.994   4.292 -2.0526 -2.9018  1.5011
  108MOL   H22228256   6.961   6.903   4.334 -0.2984 -0.3439  0.0237
  108MOL   C22328257   6.978   7.123   4.377 -0.5391  0.4663 -0.0119
  108MOL   C22428258   7.030   7.178   4.247  0.4881  0.6558 -0.4857
  108MOL   C22528259   7.045   7.302   4.200 -0.3346 -0.1428 -0.0112
  108MOL   C22628260   6.987   7.424   4.275 -0.5759 -0.0014  0.6331
  108MOL   C22728261   7.129   7.328   4.077  0.0968 -0.5594  0.7898
  108MOL   H22828262   7.065   7.122   4.443  1.9501  2.8131 -3.1134
  108MOL   H22928263   6.914   7.201   4.416  1.0079  1.6323  0.2556
  108MOL   H23028264   7.075   7.099   4.189 -2.3980 -2.0773  0.8541
  108MOL   H23128265   7.066   7.481   4.323  1.1638 -0.2337 -1.8012
  108MOL   H23228266   6.909   7.396   4.345 -0.4053  1.6973  1.5007
  108MOL   H23328267   6.940   7.482   4.196  0.4990 -1.5787 -1.2234
  108MOL   H23428268   7.219   7.266   4.067  1.5523  1.3560  1.6235
  108MOL   H23528269   7.183   7.423   4.080  0.2016 -0.5593 -0.7669
  108MOL   C23628270   7.053   7.309   3.948  0.0647 -0.2740 -0.0482
  108MOL   C23728271   7.161   7.295   3.837 -0.3343  0.5778 -0.5475
  108MOL   C23828272   7.199   7.386   3.749 -0.2319 -0.3323 -0.3658
  108MOL   C23928273   7.148   7.532   3.752  0.2329  0.4004  0.3069
  108MOL   C24028274   7.312   7.372   3.651  0.1534  0.0042  0.7489
  108MOL   H24128275   6.971   7.380   3.937  1.5058  1.4140 -0.2345
  108MOL   H24228276   7.006   7.213   3.928  0.5779 -0.2762 -1.3337
  108MOL   H24328277   7.207   7.197   3.827 -1.2401 -0.0175  1.0668
  108MOL   H24428278   7.138   7.570   3.854 -1.1257  3.7960 -0.9951
  108MOL   H24528279   7.045   7.532   3.715  0.2906  2.0657  0.0837
  108MOL   H24628280   7.207   7.606   3.697  1.6459  0.1040  1.3990
  108MOL   H24728281   7.388   7.450   3.660 -0.3991  1.0247 -2.6810
  108MOL   H24828282   7.271   7.387   3.551 -0.1114  0.6049  0.9414
  108MOL   C24928283   7.387   7.240   3.634  0.2934  0.2775 -0.3698
  108MOL   C25028284   7.494   7.217   3.738 -0.5465 -0.2548 -0.1246
  108MOL   C25128285   7.627   7.238   3.720  0.3817 -0.3340  0.1586
  108MOL   C25228286   7.682   7.299   3.592  0.5906  0.4376 -0.8562
  108MOL   C25328287   7.721   7.204   3.830 -0.1456 -0.8881  0.2461
  108MOL   H25428288   7.443   7.248   3.541 -0.6911  3.0207 -0.7779
  108MOL   H25528289   7.321   7.154   3.645 -1.5058  1.7684  0.7490
  108MOL   H25628290   7.462   7.177   3.833 -0.6468 -2.0323 -0.8823
  108MOL   H25728291   7.623   7.376   3.542  1.1585 -0.5693 -3.1438
  108MOL   H25828292   7.694   7.222   3.516  0.5195  0.4510 -0.8802
  108MOL   H25928293   7.782   7.334   3.618  0.8508 -0.8221 -0.1272
  108MOL   H26028294   7.819   7.165   3.800  0.5008  0.6503  0.3231
  108MOL   H26128295   7.671   7.136   3.899  0.1080 -1.1235  0.1999
  108MOL   H26228296   7.746   7.302   3.869 -0.5735 -0.3955 -0.7092
  109MOL     C128297   1.132   6.209   4.388 -0.5439 -0.3119 -0.1143
  109MOL     C228298   1.089   6.083   4.307  0.0171 -0.2689  0.1934
  109MOL     C328299   1.009   6.093   4.199 -0.5577 -0.3098 -0.9770
  109MOL     C428300   0.930   6.210   4.151 -0.3504  0.0205  1.3606
  109MOL     C528301   0.979   5.975   4.115  0.0199 -0.0374 -0.1029
  109MOL     H628302   1.198   6.182   4.471 -1.7427 -0.4859  0.8007
  109MOL     H728303   1.183   6.280   4.324 -0.6143 -0.8263 -0.7445
  109MOL     H828304   1.133   5.985   4.323  1.4085  0.2881 -0.1014
  109MOL     H928305   0.921   6.279   4.236 -1.2428  0.7208  0.7090
  109MOL    H1028306   0.832   6.181   4.113 -0.8227  2.0504  0.9495
  109MOL    H1128307   0.970   6.266   4.067 -1.2256  0.0608  0.9704
  109MOL    H1228308   1.063   5.911   4.145  0.1708  0.6951  1.0771
  109MOL    H1328309   0.995   6.010   4.013 -0.3403  0.1732 -0.0871
  109MOL    H1428310   1.046   6.258   4.435 -0.9458 -1.7449  0.6870
  109MOL    C1528311   0.846   5.901   4.127  0.6350  0.1798 -0.1480
  109MOL    C1628312   0.844   5.787   4.032 -0.1359 -0.3237  0.0749
  109MOL    C1728313   0.761   5.763   3.931  0.8792  0.4180  0.1410
  109MOL    C1828314   0.646   5.859   3.895 -0.1996 -0.2386  0.3056
  109MOL    C1928315   0.762   5.636   3.848  0.0684  1.0035 -0.5601
  109MOL    H2028316   0.768   5.976   4.110 -0.3188 -0.4301  1.4375
  109MOL    H2128317   0.830   5.866   4.229 -1.0080 -0.1940 -0.5161
  109MOL    H2228318   0.916   5.708   4.047 -0.2500 -0.2964  0.7724
  109MOL    H2328319   0.555   5.807   3.867  1.4162 -2.2429 -1.3488
  109MOL    H2428320   0.668   5.927   3.812  0.0736 -3.2187 -2.1463
  109MOL    H2528321   0.608   5.916   3.980  1.0160 -1.8180  1.9618
  109MOL    H2628322   0.864   5.600   3.831 -0.4825 -0.7704 -0.2140
  109MOL    H2728323   0.733   5.661   3.746 -0.8977  0.0137 -0.5428
  109MOL    C2828324   0.663   5.526   3.901  0.3239 -0.0287  0.3373
  109MOL    C2928325   0.710   5.385   3.870  0.1196  0.2347  0.4169
  109MOL    C3028326   0.647   5.301   3.781  0.2781  0.2044  0.5530
  109MOL    C3128327   0.530   5.345   3.688  0.1575 -0.7533  0.2633
  109MOL    C3228328   0.691   5.164   3.761  0.8961  0.9987 -0.2191
  109MOL    H3328329   0.561   5.538   3.863  0.3753  0.5487  0.3749
  109MOL    H3428330   0.663   5.539   4.009  2.4316  0.2669  0.3107
  109MOL    H3528331   0.790   5.346   3.931  0.3887  0.5034  0.2378
  109MOL    H3628332   0.531   5.269   3.609  0.8750 -0.1342 -0.3377
  109MOL    H3728333   0.559   5.447   3.661  1.9893 -1.1422  0.6657
  109MOL    H3828334   0.438   5.341   3.746  0.5167 -2.5726  0.7357
  109MOL    H3928335   0.606   5.099   3.744 -0.7475  2.8699  0.6479
  109MOL    H4028336   0.732   5.123   3.854 -3.0518  0.2395  1.2953
  109MOL    C4128337   0.802   5.150   3.652  0.1297  0.5688  0.5886
  109MOL    C4228338   0.926   5.238   3.674  0.4350  0.3285  0.1213
  109MOL    C4328339   1.034   5.198   3.746 -0.3819  1.1872  0.3350
  109MOL    C4428340   1.041   5.055   3.803 -0.1235  0.2466 -0.6470
  109MOL    C4528341   1.151   5.290   3.750 -0.2736 -0.5044 -0.1461
  109MOL    H4628342   0.759   5.179   3.556 -2.1050 -1.1880  1.0195
  109MOL    H4728343   0.837   5.048   3.635  0.9369  1.1459 -1.4222
  109MOL    H4828344   0.923   5.335   3.626  1.0054  0.4767  0.3872
  109MOL    H4928345   0.943   5.011   3.820 -1.6087  3.2192 -1.2792
  109MOL    H5028346   1.082   5.061   3.904  0.2819 -1.1532 -0.7166
  109MOL    H5128347   1.108   4.988   3.749  0.7531  1.3778 -0.9756
  109MOL    H5228348   1.177   5.328   3.652  0.3234  0.8502  0.5265
  109MOL    H5328349   1.234   5.231   3.788 -1.5378 -0.7823  2.3373
  109MOL    C5428350   1.135   5.407   3.847 -0.5247 -0.2147 -0.2575
  109MOL    C5528351   1.265   5.455   3.923 -0.3032 -0.2897 -0.1344
  109MOL    C5628352   1.331   5.576   3.924 -0.2257 -0.0964 -0.4846
  109MOL    C5728353   1.275   5.703   3.858  0.7368  0.0010  0.4226
  109MOL    C5828354   1.466   5.589   3.997  0.1273  0.0699 -0.9097
  109MOL    H5928355   1.062   5.390   3.925  2.0761 -1.1685  2.0690
  109MOL    H6028356   1.089   5.489   3.791 -2.2068 -0.6996  0.4008
  109MOL    H6128357   1.308   5.376   3.983  2.4487  0.4578 -1.0542
  109MOL    H6228358   1.166   5.700   3.857  0.7506 -0.2823 -0.3638
  109MOL    H6328359   1.314   5.710   3.756 -2.0742 -1.6645 -0.8169
  109MOL    H6428360   1.303   5.790   3.918 -1.1826  1.0749 -0.1798
  109MOL    H6528361   1.543   5.642   3.941  1.2547 -0.7491 -0.1436
  109MOL    H6628362   1.501   5.487   4.015  1.7942  0.6859 -0.6127
  109MOL    C6728363   1.443   5.642   4.137 -0.0859 -0.3812 -0.0769
  109MOL    C6828364   1.572   5.667   4.209  0.5510  0.2213 -0.9315
  109MOL    C6928365   1.631   5.786   4.237  0.5778 -0.3918  0.6086
  109MOL    C7028366   1.566   5.914   4.212 -0.0199  0.2485 -0.1826
  109MOL    C7128367   1.757   5.794   4.321 -0.3814 -0.1621  0.6535
  109MOL    H7228368   1.376   5.574   4.189  3.7002 -1.7756  3.1838
  109MOL    H7328369   1.389   5.736   4.127  2.5211  1.3399  1.6685
  109MOL    H7428370   1.631   5.582   4.240  0.1655  0.7522  1.3331
  109MOL    H7528371   1.637   5.977   4.159  1.4082 -0.5553  0.7431
  109MOL    H7628372   1.536   5.956   4.308 -1.9867  0.2922 -0.7959
  109MOL    H7728373   1.477   5.908   4.149  0.1756 -1.9433 -0.2833
  109MOL    H7828374   1.829   5.859   4.271  1.0939 -1.4735  1.0052
  109MOL    H7928375   1.799   5.693   4.325  0.5008  0.0420 -2.6578
  109MOL    C8028376   1.731   5.840   4.464  0.5007 -0.3027 -1.0306
  109MOL    C8128377   1.827   5.793   4.566 -0.6294 -0.6410 -0.5012
  109MOL    C8228378   1.831   5.671   4.620 -0.0555 -0.1277  0.7873
  109MOL    C8328379   1.737   5.558   4.590  0.1297  0.1479  0.0913
  109MOL    C8428380   1.936   5.633   4.724  0.2901  0.0007  0.0918
  109MOL    H8528381   1.627   5.839   4.496 -0.7064  1.6912 -4.6355
  109MOL    H8628382   1.747   5.948   4.458  2.4285 -0.5489 -0.5600
  109MOL    H8728383   1.889   5.871   4.609  1.0625 -2.5964  0.6870
  109MOL    H8828384   1.662   5.581   4.514 -1.6970  1.5861  2.2622
  109MOL    H8928385   1.678   5.537   4.679 -2.1470 -0.1340 -1.4345
  109MOL    H9028386   1.784   5.463   4.566 -3.0941 -1.4926 -0.0485
  109MOL    H9128387   2.034   5.627   4.676  1.6243 -1.0701  2.8518
  109MOL    H9228388   1.908   5.533   4.755  1.0518 -0.1874  0.1751
  109MOL    C9328389   1.943   5.735   4.843  1.0095 -0.2099  0.3117
  109MOL    C9428390   2.046   5.692   4.953 -0.2311  0.2509  0.5063
  109MOL    C9528391   2.024   5.609   5.065  0.5223 -0.2848  0.5453
  109MOL    C9628392   1.883   5.557   5.090  0.4354 -0.2193 -0.7230
  109MOL    C9728393   2.128   5.576   5.172 -0.4001  0.6339 -0.2941
  109MOL    H9828394   1.847   5.754   4.891  0.3430  0.7054 -1.3235
  109MOL    H9928395   1.976   5.835   4.815  0.8706  0.2512  1.7507
  109MOL   H10028396   2.139   5.744   4.942 -0.8999  0.8453 -2.7019
  109MOL   H10128397   1.850   5.612   5.178  0.7386  0.0618 -0.7852
  109MOL   H10228398   1.877   5.451   5.115 -0.0268  0.2018  1.0694
  109MOL   H10328399   1.814   5.564   5.006  0.2708 -4.2669 -1.0109
  109MOL   H10428400   2.159   5.471   5.164  0.4397  0.9009 -0.6615
  109MOL   H10528401   2.078   5.596   5.266  0.2747 -2.7338  0.8660
  109MOL   C10628402   2.260   5.669   5.169 -0.1690 -0.1061 -0.6545
  109MOL   C10728403   2.344   5.639   5.298  0.6244  0.3390  0.1514
  109MOL   C10828404   2.422   5.723   5.364  0.2375 -0.4547  0.0964
  109MOL   C10928405   2.441   5.872   5.335 -0.2506 -0.5653 -0.4878
  109MOL   C11028406   2.491   5.677   5.495 -0.5529 -0.2318  0.2452
  109MOL   H11128407   2.235   5.775   5.167  0.3312  0.1302  2.9323
  109MOL   H11228408   2.329   5.651   5.086  2.4640  2.9793  0.7789
  109MOL   H11328409   2.341   5.535   5.327 -2.1541 -0.0814 -1.4935
  109MOL   H11428410   2.541   5.907   5.360 -1.1066  0.2305  1.9845
  109MOL   H11528411   2.367   5.924   5.397 -0.9959 -2.4752  0.2732
  109MOL   H11628412   2.418   5.904   5.234  0.7907  0.6326 -0.3621
  109MOL   H11728413   2.597   5.699   5.489 -1.1462  3.0261  0.6302
  109MOL   H11828414   2.496   5.570   5.515 -0.7820 -0.4871 -0.9994
  109MOL   C11928415   2.425   5.740   5.618  0.8876  0.3582 -0.3075
  109MOL   C12028416   2.505   5.748   5.744  0.2197 -0.3441 -0.4169
  109MOL   C12128417   2.545   5.860   5.812  0.2498  0.2863 -0.1545
  109MOL   C12228418   2.521   5.999   5.771  0.1095  0.4215 -0.8587
  109MOL   C12328419   2.627   5.856   5.949 -0.6775 -0.5207  0.4309
  109MOL   H12428420   2.331   5.690   5.641  1.5737 -1.4559 -1.2887
  109MOL   H12528421   2.376   5.833   5.591 -1.0844 -0.4031  0.5934
  109MOL   H12628422   2.528   5.652   5.786  0.5249  0.9828  2.6218
  109MOL   H12728423   2.610   6.057   5.748 -0.7070  1.2614 -1.9476
  109MOL   H12828424   2.470   6.063   5.844  1.4053 -0.8550  1.2229
  109MOL   H12928425   2.465   6.006   5.678 -0.6517  2.2363 -0.3027
  109MOL   H13028426   2.712   5.925   5.937 -1.8575  1.0236  0.7821
  109MOL   H13128427   2.666   5.755   5.961 -1.0852 -0.7131  0.1287
  109MOL   C13228428   2.542   5.891   6.072 -0.3417 -0.1372 -0.2936
  109MOL   C13328429   2.420   5.804   6.103 -0.5486 -0.1068  0.1189
  109MOL   C13428430   2.291   5.853   6.112 -0.9050 -0.7618  0.2743
  109MOL   C13528431   2.258   6.001   6.073 -0.4531 -0.7940 -0.1728
  109MOL   C13628432   2.169   5.771   6.157  0.7359  0.3175  0.4590
  109MOL   H13728433   2.508   5.994   6.084  0.0726  0.1191 -1.2638
  109MOL   H13828434   2.615   5.879   6.152  0.7382 -0.3137 -1.2884
  109MOL   H13928435   2.437   5.701   6.133  2.9839  0.0344 -1.1478
  109MOL   H14028436   2.171   6.010   6.008 -1.7036  1.2524  1.7085
  109MOL   H14128437   2.328   6.052   6.006  1.3841 -0.3835  1.9894
  109MOL   H14228438   2.234   6.068   6.155 -1.7523 -1.3210 -0.1237
  109MOL   H14328439   2.140   5.804   6.257  2.0180 -0.4354  1.1034
  109MOL   H14428440   2.200   5.666   6.168 -0.9007 -0.3251 -0.9227
  109MOL   C14528441   2.046   5.760   6.063 -0.1035 -0.1956 -0.2596
  109MOL   C14628442   1.947   5.654   6.113 -0.5551  0.1860 -0.3855
  109MOL   C14728443   1.834   5.675   6.181  0.5547 -0.1312 -0.0758
  109MOL   C14828444   1.793   5.809   6.238 -0.3590 -0.1431  0.9899
  109MOL   C14928445   1.737   5.563   6.205 -0.0313  0.1204  0.0401
  109MOL   H15028446   2.081   5.729   5.964  0.7479  1.3252 -0.4545
  109MOL   H15128447   1.997   5.856   6.047 -1.1143 -0.8209 -0.9831
  109MOL   H15228448   1.976   5.554   6.085 -0.0218  0.6353 -1.4778
  109MOL   H15328449   1.739   5.791   6.331 -0.1350 -1.2728  0.9173
  109MOL   H15428450   1.742   5.882   6.175  0.7099 -0.1419  0.1138
  109MOL   H15528451   1.880   5.861   6.277 -0.3177 -0.9752  2.0589
  109MOL   H15628452   1.712   5.553   6.310  1.1637 -0.1900  0.3068
  109MOL   H15728453   1.784   5.464   6.199 -0.5245 -0.1539  0.7331
  109MOL   C15828454   1.619   5.553   6.111  0.6939  0.0846 -0.4153
  109MOL   C15928455   1.520   5.665   6.136 -0.4253  0.0685 -0.2993
  109MOL   C16028456   1.479   5.761   6.051  0.8037 -0.4902  0.2896
  109MOL   C16128457   1.538   5.791   5.918 -0.3091  0.3768  0.1923
  109MOL   C16228458   1.377   5.866   6.091  0.0264 -0.5952 -0.2933
  109MOL   H16328459   1.566   5.460   6.133  2.8708 -0.6914  1.8028
  109MOL   H16428460   1.653   5.541   6.008  0.8235  3.2215 -0.7586
  109MOL   H16528461   1.478   5.651   6.235  1.0796  1.7804  0.5979
  109MOL   H16628462   1.472   5.832   5.841  0.0791 -0.1040 -0.4038
  109MOL   H16728463   1.566   5.696   5.872 -0.7285 -0.5470  1.7995
  109MOL   H16828464   1.630   5.849   5.924 -0.2138  0.3089 -0.5524
  109MOL   H16928465   1.318   5.812   6.165 -1.3498 -0.3798 -1.1891
  109MOL   H17028466   1.317   5.901   6.006  0.4031  2.0530  0.4742
  109MOL   C17128467   1.455   5.972   6.173  0.5107  0.5146 -0.2621
  109MOL   C17228468   1.357   6.076   6.232 -0.0152  0.0071 -0.1237
  109MOL   C17328469   1.395   6.198   6.275  0.8717 -0.2993 -0.6057
  109MOL   C17428470   1.537   6.244   6.279 -0.5465 -0.0241  0.1116
  109MOL   C17528471   1.293   6.303   6.327  0.3508  0.6588  0.6100
  109MOL   H17628472   1.530   6.018   6.109 -1.5353  1.0567 -2.3213
  109MOL   H17728473   1.514   5.928   6.253 -0.5359 -3.0595 -1.3461
  109MOL   H17828474   1.253   6.048   6.221 -1.0112  2.9787  1.1267
  109MOL   H17928475   1.608   6.192   6.214  1.5018  1.2713  1.2867
  109MOL   H18028476   1.594   6.224   6.370  0.2312  1.0684 -0.1263
  109MOL   H18128477   1.548   6.351   6.262  3.0185 -0.2194  0.7694
  109MOL   H18228478   1.309   6.342   6.428  1.7455  3.2960 -0.5670
  109MOL   H18328479   1.197   6.251   6.331  0.5807 -0.4973 -5.1128
  109MOL   C18428480   1.276   6.416   6.227 -0.1121  0.3073 -0.8913
  109MOL   C18528481   1.143   6.495   6.258  0.2279 -0.1496 -0.6532
  109MOL   C18628482   1.023   6.480   6.198 -0.8300 -0.1391 -0.5848
  109MOL   C18728483   1.004   6.368   6.102 -0.2351 -0.0451  1.2406
  109MOL   C18828484   0.904   6.564   6.237  0.8252 -0.5599 -0.6300
  109MOL   H18928485   1.283   6.373   6.127  2.5397 -0.2979 -0.4837
  109MOL   H19028486   1.369   6.473   6.234  1.1284 -1.7992  0.2047
  109MOL   H19128487   1.158   6.574   6.330 -0.0524 -3.2037  2.8727
  109MOL   H19228488   1.095   6.317   6.070 -0.5521  1.3920 -2.1695
  109MOL   H19328489   0.940   6.392   6.018  0.9626  1.0208  0.6203
  109MOL   H19428490   0.936   6.293   6.143  0.0874  0.3271  2.4831
  109MOL   H19528491   0.829   6.561   6.158  0.0340 -0.4657  0.1113
  109MOL   H19628492   0.941   6.667   6.238 -0.7236  0.0092 -1.6144
  109MOL   C19728493   0.846   6.525   6.376 -0.1490 -0.4603  0.9758
  109MOL   C19828494   0.794   6.382   6.403 -0.4672 -0.6353 -0.1158
  109MOL   C19928495   0.846   6.286   6.479 -0.1408  0.0444  0.5412
  109MOL   C20028496   0.980   6.300   6.561 -0.5455  0.6328  0.4132
  109MOL   C20128497   0.777   6.149   6.484  0.0226  0.1736  0.2599
  109MOL   H20228498   0.760   6.589   6.397 -1.4915 -2.1050  0.6187
  109MOL   H20328499   0.917   6.545   6.456  1.2827  1.0297 -0.6444
  109MOL   H20428500   0.702   6.363   6.349 -0.0694  0.8328 -1.3424
  109MOL   H20528501   1.005   6.405   6.574 -0.5890  0.8317 -0.9636
  109MOL   H20628502   1.067   6.257   6.511  0.8535  1.2149  2.3072
  109MOL   H20728503   0.966   6.247   6.655  1.1995  1.3380  1.0910
  109MOL   H20828504   0.670   6.148   6.467  0.2756 -0.0572 -1.4309
  109MOL   H20928505   0.777   6.121   6.589  0.2167 -0.3417  0.1260
  109MOL   C21028506   0.847   6.056   6.387  0.0995 -0.7129  0.0023
  109MOL   C21128507   0.797   5.915   6.379  0.5213  0.3436 -0.5947
  109MOL   C21228508   0.843   5.820   6.296 -0.9019 -0.4316 -0.3244
  109MOL   C21328509   0.972   5.836   6.208 -0.5936 -0.0948  0.1823
  109MOL   C21428510   0.785   5.683   6.276  0.6054 -0.5463  0.2378
  109MOL   H21528511   0.952   6.060   6.417 -0.3114  1.4731  1.2412
  109MOL   H21628512   0.850   6.104   6.289  1.3889 -0.9734 -0.1020
  109MOL   H21728513   0.698   5.894   6.418  0.2264  2.5116 -0.1330
  109MOL   H21828514   0.973   5.778   6.116 -0.2270  0.6640 -0.3017
  109MOL   H21928515   1.063   5.813   6.263 -0.9564 -0.1223  0.7786
  109MOL   H22028516   0.966   5.941   6.178  1.6261 -0.2800 -1.0497
  109MOL   H22128517   0.870   5.616   6.287  1.8201  0.9280 -0.0966
  109MOL   H22228518   0.756   5.680   6.171 -0.8556  2.1426  0.5306
  109MOL   C22328519   0.668   5.646   6.357  1.2200 -0.5517  0.3211
  109MOL   C22428520   0.641   5.493   6.355 -0.2120  0.0626 -0.7436
  109MOL   C22528521   0.635   5.405   6.459 -0.1153  0.3801  0.2911
  109MOL   C22628522   0.672   5.431   6.605 -0.2765  0.4493  0.5508
  109MOL   C22728523   0.593   5.259   6.429  0.0050  0.1541  0.0752
  109MOL   H22828524   0.588   5.713   6.326  2.4020  0.8796  0.3125
  109MOL   H22928525   0.681   5.671   6.463 -0.5478  0.3462  0.3503
  109MOL   H23028526   0.626   5.453   6.256  1.0938  0.3019 -1.0473
  109MOL   H23128527   0.762   5.378   6.636 -0.2620 -1.1004 -2.0087
  109MOL   H23228528   0.584   5.405   6.663 -0.9720 -0.8815 -1.0700
  109MOL   H23328529   0.713   5.532   6.618  1.7726 -0.1941 -0.7101
  109MOL   H23428530   0.675   5.196   6.463 -1.4194 -1.4237  0.6734
  109MOL   H23528531   0.589   5.243   6.321  0.6755 -0.2789  0.1122
  109MOL   C23628532   0.461   5.224   6.494  0.2891  0.2265 -0.0302
  109MOL   C23728533   0.351   5.320   6.455 -0.6418 -0.2640  1.0538
  109MOL   C23828534   0.228   5.288   6.399 -0.0401 -0.0709  0.0901
  109MOL   C23928535   0.190   5.145   6.354 -0.1049 -0.8017 -0.1944
  109MOL   C24028536   0.122   5.394   6.371  1.2257 -0.6278  0.1972
  109MOL   H24128537   0.468   5.204   6.601  0.3659  0.3137 -0.0186
  109MOL   H24228538   0.421   5.126   6.468 -2.1903  0.2706  3.2139
  109MOL   H24328539   0.360   5.425   6.478 -0.0716 -0.0202 -0.2249
  109MOL   H24428540   0.082   5.140   6.335 -0.5715  1.9121  1.4456
  109MOL   H24528541   0.219   5.068   6.425 -0.2932  0.1458  0.9281
  109MOL   H24628542   0.225   5.131   6.252 -1.0912  0.7277 -0.7725
  109MOL   H24728543   0.142   5.487   6.424 -1.2207  0.0043  0.0567
  109MOL   H24828544   0.038   5.359   6.430 -0.2562  0.0813 -1.4474
  109MOL   C24928545   0.101   5.426   6.225  0.0046 -0.1065  0.1920
  109MOL   C25028546   0.002   5.531   6.204 -0.3853 -0.1089  0.0048
  109MOL   C25128547   7.757   5.516   6.167 -0.8522  0.8012  0.1238
  109MOL   C25228548   7.699   5.379   6.136  0.1199 -0.0148  0.2011
  109MOL   C25328549   7.669   5.638   6.149 -0.2798 -0.0896 -0.2469
  109MOL   H25428550   0.075   5.340   6.164 -0.9962  1.6397 -1.9016
  109MOL   H25528551   0.194   5.464   6.185  0.0344  0.2935  0.6314
  109MOL   H25628552   0.027   5.633   6.229 -0.4268 -0.3599  1.0671
  109MOL   H25728553   7.655   5.355   6.233  3.2924  1.9302  2.1999
  109MOL   H25828554   7.772   5.301   6.113  1.5501  0.3687  3.1623
  109MOL   H25928555   7.620   5.374   6.061 -0.5782  1.7642  0.7934
  109MOL   H26028556   7.596   5.645   6.229 -2.0616  1.7079 -1.9960
  109MOL   H26128557   7.636   5.637   6.045 -0.6347  2.3478 -0.1879
  109MOL   H26228558   7.725   5.730   6.162 -0.8456  0.3650 -0.9863
  110MOL     C128559   3.485   3.024   4.782 -0.6321 -0.0688  0.4028
  110MOL     C228560   3.591   2.939   4.711  0.4127 -0.3854  0.1696
  110MOL     C328561   3.617   2.814   4.747 -0.2949  0.2510  0.4817
  110MOL     C428562   3.549   2.723   4.847  0.7223  0.3132  0.4200
  110MOL     C528563   3.731   2.735   4.682  0.1574  0.6334 -0.4003
  110MOL     H628564   3.443   2.978   4.872 -1.3464  1.4178  0.8438
  110MOL     H728565   3.534   3.118   4.806 -2.0870  1.1148 -1.1614
  110MOL     H828566   3.649   2.997   4.641  1.2728 -0.3394  0.9026
  110MOL     H928567   3.461   2.764   4.896  0.2613  2.0431 -1.7662
  110MOL    H1028568   3.624   2.690   4.919 -0.9988 -0.6155  1.8130
  110MOL    H1128569   3.513   2.635   4.794  0.2703  1.1107 -0.6265
  110MOL    H1228570   3.814   2.720   4.751 -0.6721 -1.1792  0.2367
  110MOL    H1328571   3.782   2.794   4.606  3.4204 -3.5739 -1.6640
  110MOL    H1428572   3.398   3.034   4.716  0.0112 -0.5651 -0.5299
  110MOL    C1528573   3.686   2.610   4.608 -0.3493 -0.4460 -0.2005
  110MOL    C1628574   3.790   2.562   4.513  0.1787  0.5035  1.1696
  110MOL    C1728575   3.771   2.474   4.410  0.3788  0.4393 -0.2251
  110MOL    C1828576   3.640   2.398   4.391  0.1013 -0.0758  0.4280
  110MOL    C1928577   3.879   2.436   4.313  0.3081  0.4299  0.7741
  110MOL    H2028578   3.593   2.630   4.555  0.1358 -0.9627 -1.2551
  110MOL    H2128579   3.678   2.526   4.678 -0.0504 -0.0601  0.2990
  110MOL    H2228580   3.885   2.612   4.532  1.3556 -1.3664  0.3202
  110MOL    H2328581   3.580   2.400   4.482 -2.2002 -1.2730 -1.0136
  110MOL    H2428582   3.646   2.298   4.349  1.7283  0.3685 -0.4066
  110MOL    H2528583   3.583   2.461   4.323 -0.2830 -0.5507  0.3052
  110MOL    H2628584   3.837   2.424   4.213  1.4913 -0.0163  0.3227
  110MOL    H2728585   3.908   2.337   4.347  4.1333  1.0150 -0.5425
  110MOL    C2828586   4.011   2.526   4.314 -0.2353  0.1772  0.1229
  110MOL    C2928587   4.106   2.475   4.208  0.4856 -0.2388  0.1584
  110MOL    C3028588   4.112   2.519   4.078  0.4769 -0.3731  0.9383
  110MOL    C3128589   4.018   2.616   4.014  0.4191  0.1342  0.5190
  110MOL    C3228590   4.222   2.477   3.981  0.2727  0.4659  0.4886
  110MOL    H3328591   4.058   2.521   4.412 -0.1798 -3.6831 -0.0340
  110MOL    H3428592   3.991   2.632   4.296  1.3702  0.8176  1.9661
  110MOL    H3528593   4.182   2.412   4.252  0.2075  0.3545  1.4996
  110MOL    H3628594   3.941   2.669   4.070 -2.9240 -0.8719 -2.9159
  110MOL    H3728595   3.963   2.563   3.937 -0.9961  1.6409  0.4750
  110MOL    H3828596   4.074   2.699   3.972 -3.6768  2.2785 -0.9498
  110MOL    H3928597   4.262   2.565   3.930  1.8535 -0.0852  0.7651
  110MOL    H4028598   4.165   2.423   3.906  0.6851 -1.0945  1.2835
  110MOL    C4128599   4.329   2.381   4.039  0.7213 -0.8826 -0.0965
  110MOL    C4228600   4.441   2.381   3.941  0.3545 -0.1085  0.3114
  110MOL    C4328601   4.476   2.290   3.850  0.1867 -0.0310  1.0065
  110MOL    C4428602   4.421   2.150   3.835 -0.2319 -0.0154 -0.5869
  110MOL    C4528603   4.587   2.317   3.752 -0.1734 -0.3339  0.1322
  110MOL    H4628604   4.285   2.281   4.046 -1.2905  0.0981  1.6238
  110MOL    H4728605   4.368   2.407   4.137 -0.7997  1.0022  0.0304
  110MOL    H4828606   4.492   2.476   3.937 -1.7869  1.1231  1.4007
  110MOL    H4928607   4.394   2.122   3.733  0.8418 -0.8632 -0.6443
  110MOL    H5028608   4.329   2.129   3.888 -0.0075 -0.3317 -0.3227
  110MOL    H5128609   4.498   2.077   3.858 -0.5527 -0.3900 -0.6967
  110MOL    H5228610   4.557   2.297   3.649  0.9775 -1.3029 -0.0265
  110MOL    H5328611   4.655   2.233   3.759  0.8866  0.5294  0.3424
  110MOL    C5428612   4.665   2.454   3.756 -0.3333 -0.5436 -0.0314
  110MOL    C5528613   4.773   2.469   3.647 -0.5372 -0.5500 -0.5539
  110MOL    C5628614   4.770   2.546   3.534 -0.3185 -0.2361  0.2790
  110MOL    C5728615   4.656   2.642   3.495 -0.3638  0.5552 -0.4753
  110MOL    C5828616   4.884   2.533   3.434 -0.3352 -0.0999 -0.8596
  110MOL    H5928617   4.706   2.460   3.857 -2.2886  0.3833  0.7373
  110MOL    H6028618   4.593   2.535   3.742 -0.6726 -0.8805 -0.2514
  110MOL    H6128619   4.857   2.401   3.642 -0.5559 -0.4685 -2.4964
  110MOL    H6228620   4.649   2.636   3.387 -1.9588  1.0572 -0.4187
  110MOL    H6328621   4.672   2.747   3.520 -0.5457  0.3052  0.7580
  110MOL    H6428622   4.560   2.605   3.532  0.2947  0.9748  1.7257
  110MOL    H6528623   4.967   2.480   3.480 -0.7271  2.5516  3.2443
  110MOL    H6628624   4.915   2.633   3.401  0.1352  0.4099  1.0606
  110MOL    C6728625   4.843   2.443   3.317 -0.1277 -0.1839  0.1444
  110MOL    C6828626   4.940   2.456   3.208  0.2249  0.1266 -0.9514
  110MOL    C6928627   5.043   2.379   3.174  0.8255  0.1068 -0.5299
  110MOL    C7028628   5.096   2.274   3.270  0.9916 -0.2790  0.3254
  110MOL    C7128629   5.126   2.407   3.052  0.1824 -0.3929  0.0511
  110MOL    H7228630   4.761   2.489   3.262  0.1962  0.7358  0.4215
  110MOL    H7328631   4.831   2.336   3.337 -0.0047 -0.2576 -0.1711
  110MOL    H7428632   4.914   2.540   3.144  2.0340  0.7474 -0.8980
  110MOL    H7528633   5.090   2.174   3.227  1.0529 -0.3404  0.4585
  110MOL    H7628634   5.040   2.271   3.364 -2.0535  0.7383 -1.4042
  110MOL    H7728635   5.201   2.295   3.290  0.8903  1.0444 -0.5217
  110MOL    H7828636   5.224   2.437   3.089 -0.6322  1.5184  0.6864
  110MOL    H7928637   5.088   2.493   2.996 -2.3903 -0.4672  1.6027
  110MOL    C8028638   5.152   2.290   2.960  0.2728  0.2964 -0.3552
  110MOL    C8128639   5.232   2.332   2.836  1.1676 -0.1044 -0.0370
  110MOL    C8228640   5.187   2.325   2.711  0.5948  0.0215  0.0655
  110MOL    C8328641   5.052   2.267   2.678  0.5077 -0.3044 -0.4789
  110MOL    C8428642   5.274   2.364   2.594  0.5761 -0.1531 -0.7904
  110MOL    H8528643   5.055   2.248   2.930  0.2523 -0.4815  0.7940
  110MOL    H8628644   5.205   2.216   3.019 -0.6177  0.2003  0.3388
  110MOL    H8728645   5.332   2.368   2.856  1.5274 -1.3986  0.5517
  110MOL    H8828646   5.018   2.299   2.579 -2.4743  1.2494  0.9785
  110MOL    H8928647   4.972   2.281   2.751 -1.5125 -0.9333 -2.5336
  110MOL    H9028648   5.053   2.159   2.669 -1.7658 -0.3045 -0.8129
  110MOL    H9128649   5.374   2.394   2.628 -0.6302  0.6834  2.1822
  110MOL    H9228650   5.218   2.442   2.543 -2.6342 -2.6512 -1.2650
  110MOL    C9328651   5.300   2.245   2.500  0.2864  0.9590  0.1733
  110MOL    C9428652   5.396   2.303   2.391 -0.2298 -1.0032 -0.9225
  110MOL    C9528653   5.363   2.358   2.271  0.6921 -0.2825  0.0620
  110MOL    C9628654   5.217   2.369   2.224  0.3527 -0.1032 -0.0477
  110MOL    C9728655   5.455   2.429   2.186  0.1141  0.0999  0.5015
  110MOL    H9828656   5.212   2.208   2.448 -1.3211 -1.0343  4.0744
  110MOL    H9928657   5.338   2.165   2.564  1.4991  1.6868  0.3771
  110MOL   H10028658   5.501   2.304   2.419 -0.4926 -0.5785  0.0723
  110MOL   H10128659   5.201   2.439   2.142 -1.9959  0.3482  0.7545
  110MOL   H10228660   5.158   2.389   2.314  0.7189 -0.6304  0.3141
  110MOL   H10328661   5.189   2.268   2.193 -1.1963 -0.0442  1.0561
  110MOL   H10428662   5.430   2.535   2.185  1.6781  0.4852 -1.1234
  110MOL   H10528663   5.453   2.386   2.086 -0.8653  0.2823  0.4437
  110MOL   C10628664   5.607   2.422   2.225 -0.0194 -0.8501 -0.9123
  110MOL   C10728665   5.683   2.499   2.118  0.2579  0.2121 -0.4318
  110MOL   C10828666   5.780   2.458   2.034  0.4501 -0.3426 -0.4921
  110MOL   C10928667   5.857   2.333   2.047 -0.0343  0.0729 -0.1274
  110MOL   C11028668   5.830   2.544   1.920 -0.3824  0.7004 -0.6216
  110MOL   H11128669   5.643   2.319   2.228 -0.9811 -1.2080 -1.2580
  110MOL   H11228670   5.627   2.469   2.321 -0.5068  1.5444 -1.9551
  110MOL   H11328671   5.636   2.596   2.114  0.5016  0.4144  1.3429
  110MOL   H11428672   5.964   2.348   2.057 -0.0768 -0.0185  0.5156
  110MOL   H11528673   5.858   2.274   1.955  1.2453  2.1118 -1.4376
  110MOL   H11628674   5.828   2.267   2.129 -1.7735  0.8752 -0.0710
  110MOL   H11728675   5.937   2.527   1.907 -0.4267  0.8048 -1.1178
  110MOL   H11828676   5.818   2.650   1.946  1.8900  0.7784  0.2564
  110MOL   C11928677   5.754   2.515   1.793  0.3734 -0.5998 -0.2165
  110MOL   C12028678   5.599   2.551   1.809 -0.1576 -0.2837 -0.3655
  110MOL   C12128679   5.498   2.465   1.789  0.5445  0.1198  0.4842
  110MOL   C12228680   5.515   2.317   1.748 -0.1010 -0.0860 -0.0599
  110MOL   C12328681   5.357   2.505   1.824  1.1096 -0.2466 -0.0320
  110MOL   H12428682   5.770   2.418   1.747 -0.4161 -1.6289  1.6430
  110MOL   H12528683   5.795   2.590   1.725  1.6796  0.5693  1.8304
  110MOL   H12628684   5.582   2.656   1.827 -1.0016 -0.5209  0.2535
  110MOL   H12728685   5.418   2.273   1.721  1.0209 -2.6253 -0.1053
  110MOL   H12828686   5.543   2.268   1.841  0.4772  0.9561  0.3220
  110MOL   H12928687   5.590   2.295   1.672  0.2175 -0.9395  0.5015
  110MOL   H13028688   5.364   2.611   1.848 -1.5724 -0.2945  1.1358
  110MOL   H13128689   5.322   2.459   1.917  0.6855  0.5535  0.2065
  110MOL   C13228690   5.249   2.483   1.722  0.1279 -0.1276 -0.7548
  110MOL   C13328691   5.120   2.542   1.776  0.1015 -0.2823 -0.6824
  110MOL   C13428692   5.014   2.481   1.839  0.2546  0.4210  0.6205
  110MOL   C13528693   5.010   2.331   1.861 -0.5479  1.2374 -0.8837
  110MOL   C13628694   4.894   2.568   1.874  0.1332 -0.0137  0.1519
  110MOL   H13728695   5.235   2.378   1.696 -0.4226 -0.5845  1.2512
  110MOL   H13828696   5.283   2.537   1.634  2.3407  0.7992  0.6126
  110MOL   H13928697   5.106   2.648   1.757 -0.6285 -0.6367 -2.2039
  110MOL   H14028698   5.108   2.290   1.884 -1.2163 -0.1361 -0.4608
  110MOL   H14128699   4.952   2.283   1.782  2.0440 -3.1651 -0.2273
  110MOL   H14228700   4.969   2.317   1.961  0.7265 -0.7759 -0.6085
  110MOL   H14328701   4.807   2.522   1.827  1.3217 -0.3701 -1.7356
  110MOL   H14428702   4.903   2.667   1.830 -1.3727  0.3359  0.5865
  110MOL   C14528703   4.879   2.577   2.028  0.1669 -1.1292 -0.7009
  110MOL   C14628704   5.006   2.643   2.084  0.2350 -0.3457 -0.7896
  110MOL   C14728705   5.022   2.761   2.152 -0.2002  0.9719 -0.1890
  110MOL   C14828706   4.905   2.842   2.189  0.4427 -0.1500  0.3542
  110MOL   C14928707   5.152   2.816   2.191  0.2290  0.1160  0.3830
  110MOL   H15028708   4.870   2.476   2.069 -0.6538 -0.7225  0.1188
  110MOL   H15128709   4.788   2.632   2.053  2.4593  2.2657  0.4764
  110MOL   H15228710   5.103   2.601   2.060 -0.0884 -0.8916 -1.1562
  110MOL   H15328711   4.896   2.851   2.297  1.2040 -1.8003  0.5637
  110MOL   H15428712   4.809   2.817   2.145  0.6562 -0.2972 -0.0305
  110MOL   H15528713   4.907   2.945   2.151 -2.6310  0.1376  0.8168
  110MOL   H15628714   5.212   2.732   2.226 -1.0890 -2.0348 -2.3184
  110MOL   H15728715   5.145   2.872   2.284  0.7417 -3.3934  2.6573
  110MOL   C15828716   5.206   2.909   2.081 -0.8331  0.2404 -0.0807
  110MOL   C15928717   5.339   2.979   2.125  0.4591  0.6646 -0.6444
  110MOL   C16028718   5.461   2.964   2.079 -0.2927  0.0174 -0.0016
  110MOL   C16128719   5.486   2.852   1.975  0.1192 -0.0070 -0.6876
  110MOL   C16228720   5.590   3.031   2.129 -0.3222 -0.5405 -0.0162
  110MOL   H16328721   5.143   2.989   2.043  0.1935  0.5006 -1.2702
  110MOL   H16428722   5.239   2.837   2.006  0.1429 -2.0532  2.4377
  110MOL   H16528723   5.329   3.058   2.197  0.0715 -1.0765  1.2486
  110MOL   H16628724   5.481   2.759   2.031 -1.6844  0.5045  0.0365
  110MOL   H16728725   5.588   2.850   1.939 -0.6570  0.4027 -2.9873
  110MOL   H16828726   5.406   2.849   1.900 -0.1377 -0.2452 -0.4086
  110MOL   H16928727   5.553   3.113   2.191 -0.3045 -0.0784 -0.6161
  110MOL   H17028728   5.640   3.075   2.043  1.2781 -0.7090  0.8152
  110MOL   C17128729   5.669   2.927   2.217 -0.5568 -0.2182  0.0455
  110MOL   C17228730   5.756   2.996   2.318  0.0353  0.6781  0.1244
  110MOL   C17328731   5.883   2.974   2.339 -0.4136  0.2370 -1.3299
  110MOL   C17428732   5.975   2.880   2.269 -0.5930 -0.1808  0.3193
  110MOL   C17528733   5.960   3.043   2.442  0.2051  0.2477 -0.5863
  110MOL   H17628734   5.725   2.857   2.154  1.1455  0.7589  0.4470
  110MOL   H17728735   5.594   2.873   2.275 -3.2638  1.1755 -2.0300
  110MOL   H17828736   5.708   3.068   2.382  1.5315 -1.0967  3.3469
  110MOL   H17928737   5.964   2.896   2.162 -1.0192  0.2074  0.4195
  110MOL   H18028738   5.930   2.785   2.299 -0.8108 -0.3835 -0.6297
  110MOL   H18128739   6.076   2.882   2.309 -1.3736 -0.1278  2.3359
  110MOL   H18228740   5.907   3.136   2.464 -1.0188 -0.2530 -1.3296
  110MOL   H18328741   6.061   3.077   2.421  0.0422  1.5819  0.6810
  110MOL   C18428742   5.967   2.947   2.563 -0.2007  0.1905 -0.5200
  110MOL   C18528743   6.069   2.993   2.669 -0.1290 -0.4949 -0.1179
  110MOL   C18628744   6.057   3.103   2.748  0.0689 -0.2843 -0.2998
  110MOL   C18728745   5.928   3.192   2.751 -0.0031  0.0476  0.0974
  110MOL   C18828746   6.169   3.149   2.839 -0.5144 -0.1387  0.4365
  110MOL   H18928747   5.963   2.841   2.541  0.7278 -0.2610  1.3740
  110MOL   H19028748   5.872   2.954   2.616  0.3914  1.5690  0.4029
  110MOL   H19128749   6.167   2.948   2.671  0.8131  1.5410 -0.0752
  110MOL   H19228750   5.877   3.178   2.846  0.4415 -1.3143  0.1625
  110MOL   H19328751   5.858   3.171   2.670 -0.8489  0.4639  0.7315
  110MOL   H19428752   5.955   3.297   2.744 -0.1665  0.2497  2.3399
  110MOL   H19528753   6.176   3.257   2.842  1.1721 -0.2389  0.1666
  110MOL   H19628754   6.263   3.106   2.804 -1.2586 -0.4157 -1.2731
  110MOL   C19728755   6.145   3.096   2.975 -0.5287  0.1917  0.2022
  110MOL   C19828756   6.263   3.144   3.063 -0.5203 -0.3720  0.4313
  110MOL   C19928757   6.337   3.071   3.143 -0.1291 -0.6866  0.1855
  110MOL   C20028758   6.304   2.924   3.164 -0.4459  0.1754 -0.8873
  110MOL   C20128759   6.438   3.130   3.232 -0.3793  0.6800 -0.3881
  110MOL   H20228760   6.158   2.988   2.969  1.7370  0.4719 -0.5803
  110MOL   H20328761   6.049   3.118   3.021  0.0174 -1.7346  2.3770
  110MOL   H20428762   6.273   3.250   3.046 -3.2772 -0.2332 -0.6671
  110MOL   H20528763   6.285   2.905   3.270 -0.5015 -1.6834 -1.2121
  110MOL   H20628764   6.404   2.886   3.140 -1.0127 -1.3163 -0.9741
  110MOL   H20728765   6.234   2.869   3.101 -2.0493  1.9201 -0.6524
  110MOL   H20828766   6.531   3.085   3.196 -2.5860 -3.5760 -1.0687
  110MOL   H20928767   6.417   3.087   3.330 -1.2374  0.7442 -0.5435
  110MOL   C21028768   6.448   3.282   3.253 -0.2505 -0.0207  0.5117
  110MOL   C21128769   6.565   3.326   3.343 -0.4219 -0.2390  1.1718
  110MOL   C21228770   6.692   3.356   3.303  0.3992 -0.0586  0.3536
  110MOL   C21328771   6.746   3.344   3.165  0.0347 -0.1025 -0.5069
  110MOL   C21428772   6.794   3.411   3.408 -0.5876 -0.0014  0.2853
  110MOL   H21528773   6.362   3.331   3.297 -2.3782 -3.1712  0.0727
  110MOL   H21628774   6.471   3.334   3.160 -2.5154  2.7387  1.4273
  110MOL   H21728775   6.542   3.335   3.448  0.2833  0.3670  1.2780
  110MOL   H21828776   6.676   3.308   3.090  2.2548 -2.7365 -1.4040
  110MOL   H21928777   6.820   3.264   3.159  0.3435  0.1259  0.2525
  110MOL   H22028778   6.797   3.438   3.140 -0.2329 -0.1761 -1.3308
  110MOL   H22128779   6.753   3.427   3.508  0.6442 -0.4391  0.8780
  110MOL   H22228780   6.818   3.514   3.382  1.2359 -0.3202  0.6209
  110MOL   C22328781   6.918   3.328   3.413 -0.4578 -0.8948 -0.3857
  110MOL   C22428782   6.993   3.338   3.549 -0.4349  0.1757 -0.3953
  110MOL   C22528783   7.026   3.237   3.629 -0.6698  0.3187 -0.0156
  110MOL   C22628784   6.980   3.100   3.613 -0.0917  0.3222  0.0196
  110MOL   C22728785   7.107   3.265   3.755  0.2927 -0.5675  0.7019
  110MOL   H22828786   6.982   3.346   3.327 -1.1526  1.5205 -0.4289
  110MOL   H22928787   6.885   3.224   3.403 -1.8755 -0.7161  1.9181
  110MOL   H23028788   7.018   3.438   3.582 -0.0077 -0.9304  2.8230
  110MOL   H23128789   7.000   3.042   3.703 -0.0287 -0.6548 -0.6171
  110MOL   H23228790   7.022   3.057   3.522  1.2320  1.2600  0.1791
  110MOL   H23328791   6.871   3.106   3.603 -0.1877  0.8149  1.3016
  110MOL   H23428792   7.045   3.265   3.846 -1.8533  0.3470 -0.7140
  110MOL   H23528793   7.134   3.370   3.764  0.0109 -0.1766 -2.6797
  110MOL   C23628794   7.233   3.179   3.778  0.0294  0.4255 -0.5143
  110MOL   C23728795   7.294   3.201   3.911 -0.1088  0.0385  0.0037
  110MOL   C23828796   7.375   3.114   3.976  0.4143 -0.1914 -0.4135
  110MOL   C23928797   7.430   2.984   3.919  0.2272  0.0981  0.1672
  110MOL   C24028798   7.423   3.130   4.123  0.2064 -0.1983 -0.0138
  110MOL   H24128799   7.313   3.202   3.708  1.2596 -0.3166  0.6168
  110MOL   H24228800   7.219   3.073   3.757 -1.3203  0.8758 -1.9491
  110MOL   H24328801   7.271   3.294   3.962  0.5349  0.9076 -1.2527
  110MOL   H24428802   7.398   2.903   3.985 -0.4186  1.0623  1.0568
  110MOL   H24528803   7.539   2.989   3.913  0.4958 -2.7372  1.7735
  110MOL   H24628804   7.393   2.965   3.819 -0.2486 -1.9488  0.6978
  110MOL   H24728805   7.528   3.105   4.136  0.6213  1.7894  0.6860
  110MOL   H24828806   7.378   3.059   4.192  0.2756 -0.6089 -0.3850
  110MOL   C24928807   7.408   3.275   4.172 -0.0347  0.1403  0.0641
  110MOL   C25028808   7.467   3.304   4.308 -0.3496 -0.2377  0.0876
  110MOL   C25128809   7.541   3.411   4.339 -0.2579 -0.7344 -0.9129
  110MOL   C25228810   7.601   3.509   4.243  0.1429 -0.2121 -0.1909
  110MOL   C25328811   7.587   3.434   4.481  0.1771  0.3581 -0.9453
  110MOL   H25428812   7.301   3.298   4.182 -0.6408 -2.3227 -0.4181
  110MOL   H25528813   7.447   3.347   4.100 -3.1879  1.8565 -0.0567
  110MOL   H25628814   7.435   3.243   4.392 -0.5139  2.1526  1.8014
  110MOL   H25728815   7.566   3.604   4.281  3.2264  2.0822 -2.8058
  110MOL   H25828816   7.566   3.512   4.140 -0.8771  1.1862  0.1906
  110MOL   H25928817   7.709   3.522   4.252 -0.0986 -0.1245  3.4004
  110MOL   H26028818   7.694   3.415   4.495 -0.1185  0.8623  2.4350
  110MOL   H26128819   7.534   3.367   4.548 -0.3155  2.0727  0.4332
  110MOL   H26228820   7.567   3.541   4.495 -0.2315  0.2569 -0.7552
  111MOL     C128821   6.763   0.572   7.854  0.5317  0.1578 -0.0699
  111MOL     C228822   6.623   0.527   7.883  0.1485 -0.1339  0.7403
  111MOL     C328823   6.588   0.449   0.110  0.8091 -0.4330 -0.9005
  111MOL     C428824   6.694   0.403   0.206 -0.4929  0.0480 -0.7537
  111MOL     C528825   6.451   0.427   0.145  0.8996  0.4542 -0.7539
  111MOL     H628826   6.830   0.487   7.867  0.3378  0.0357  0.1383
  111MOL     H728827   6.788   0.608   7.754  0.8707 -0.0072 -0.0454
  111MOL     H828828   6.540   0.567   7.827  0.1262 -0.2461  0.6925
  111MOL     H928829   6.704   0.294   0.201  1.3768  0.1796 -0.5545
  111MOL    H1028830   6.661   0.421   0.309  2.4741  1.3474  0.0260
  111MOL    H1128831   6.795   0.444   0.198 -1.1638  1.5456 -1.8205
  111MOL    H1228832   6.455   0.318   0.152 -0.4629  0.3730 -1.0024
  111MOL    H1328833   6.380   0.451   0.066  0.9406  0.3336 -0.8272
  111MOL    H1428834   6.793   0.649   0.042  0.6950  1.0570 -1.0996
  111MOL    C1528835   6.407   0.504   0.272  0.3798  0.4854  0.1996
  111MOL    C1628836   6.295   0.446   0.357  0.2955 -0.1223  0.4510
  111MOL    C1728837   6.309   0.395   0.481  0.3578 -0.6172  0.4617
  111MOL    C1828838   6.444   0.357   0.547 -0.1281  0.1637 -0.4307
  111MOL    C1928839   6.195   0.358   0.573  0.1246  1.0226 -0.1033
  111MOL    H2028840   6.376   0.605   0.248 -0.8861  0.0566 -0.0533
  111MOL    H2128841   6.494   0.510   0.337  0.2178  1.4621  0.3345
  111MOL    H2228842   6.192   0.455   0.326  0.7382  0.1644 -0.9773
  111MOL    H2328843   6.530   0.403   0.498 -0.0993 -1.9629 -2.4657
  111MOL    H2428844   6.446   0.248   0.538 -0.3586  0.0955  0.3188
  111MOL    H2528845   6.457   0.373   0.654 -0.2684 -2.7113  0.0620
  111MOL    H2628846   6.110   0.426   0.568  0.2554  1.1098 -1.2679
  111MOL    H2728847   6.226   0.363   0.678 -2.2764 -0.0404  0.6758
  111MOL    C2828848   6.129   0.219   0.552 -0.0475  0.2065 -0.0314
  111MOL    C2928849   6.018   0.177   0.656  0.8489  0.1415  0.6621
  111MOL    C3028850   5.917   0.092   0.635  0.0715  0.3815 -0.7183
  111MOL    C3128851   5.892   0.032   0.494  0.2656 -0.1146  0.0759
  111MOL    C3228852   5.823   0.049   0.746  0.4327 -0.3613  0.4208
  111MOL    H3328853   6.219   0.159   0.557 -0.2894 -0.1982 -0.5146
  111MOL    H3428854   6.093   0.213   0.450  2.0511  1.6773 -0.8847
  111MOL    H3528855   6.017   0.207   0.760 -3.0249  1.2056  0.3940
  111MOL    H3628856   5.987   0.022   0.442 -0.3924  1.1225 -1.4018
  111MOL    H3728857   5.823   0.088   0.431 -1.8273  0.1238  2.4696
  111MOL    H3828858   5.847   7.815   0.495  1.3897 -0.6306  1.8856
  111MOL    H3928859   5.856   0.102   0.835 -0.5210  0.4335  0.3133
  111MOL    H4028860   5.830   7.825   0.767 -1.7964 -0.0928  2.8144
  111MOL    C4128861   5.674   0.094   0.722 -0.3320  0.2253 -0.2692
  111MOL    C4228862   5.585   0.073   0.847 -0.1663  0.6855 -0.1201
  111MOL    C4328863   5.512   0.168   0.915 -0.5204  0.3143 -0.0799
  111MOL    C4428864   5.505   0.309   0.875 -0.0416 -0.7254 -0.4765
  111MOL    C4528865   5.426   0.143   1.038  0.0359 -0.2482  0.5452
  111MOL    H4628866   5.625   0.048   0.636  0.7858  1.9155 -1.8396
  111MOL    H4728867   5.680   0.199   0.694 -1.4396  0.2508 -0.4580
  111MOL    H4828868   5.579   7.851   0.875  0.2578  0.8816  0.6927
  111MOL    H4928869   5.575   0.334   0.795 -1.9719  0.0621 -1.9827
  111MOL    H5028870   5.517   0.376   0.960 -0.5459 -1.7312  0.4009
  111MOL    H5128871   5.408   0.323   0.827 -0.3941 -1.8595 -0.1053
  111MOL    H5228872   5.324   0.164   1.008 -0.2283 -1.4805  0.5469
  111MOL    H5328873   5.465   0.209   1.116 -0.5952  1.8885 -0.9320
  111MOL    C5428874   5.429   7.879   1.092 -0.1972 -0.2539  0.0777
  111MOL    C5528875   5.336   7.864   1.209  0.2416  0.9351 -1.0758
  111MOL    C5628876   5.241   7.768   1.230  0.5233 -0.5589 -0.5273
  111MOL    C5728877   5.194   7.678   1.120  0.0416  0.2529 -0.0541
  111MOL    C5828878   5.176   7.748   1.368  0.0477 -0.3080 -0.1449
  111MOL    H5928879   5.528   7.849   1.127  0.0227  0.6150  0.1923
  111MOL    H6028880   5.415   7.809   1.009  1.9017 -0.5763 -0.0342
  111MOL    H6128881   5.357   0.049   1.291 -2.6615 -1.5511  1.8325
  111MOL    H6228882   5.207   7.737   1.029 -0.5129  0.3100 -0.1033
  111MOL    H6328883   5.086   7.661   1.127  0.0958  0.0310  0.2652
  111MOL    H6428884   5.235   7.578   1.109 -0.5882  0.2722 -3.0139
  111MOL    H6528885   5.069   7.762   1.357  0.0273 -1.4016 -1.5404
  111MOL    H6628886   5.210   7.826   1.436 -0.2514 -0.7281  0.4928
  111MOL    C6728887   5.220   7.616   1.432 -0.6133  0.8749  0.2966
  111MOL    C6828888   5.208   7.631   1.581 -0.1462 -0.1786 -0.4253
  111MOL    C6928889   5.125   7.566   1.659  0.7477 -0.4158  0.0450
  111MOL    C7028890   5.027   7.459   1.609 -0.0607  0.6030  0.0054
  111MOL    C7128891   5.115   7.583   1.804  0.1706 -0.2949  0.2066
  111MOL    H7228892   5.321   7.593   1.400  0.0391  1.9585  1.5297
  111MOL    H7328893   5.171   7.530   1.387  2.0234 -0.6614  0.2990
  111MOL    H7428894   5.267   7.711   1.624  1.4677 -1.9942  0.8478
  111MOL    H7528895   5.033   7.370   1.671 -0.7792 -0.3277 -1.2320
  111MOL    H7628896   5.063   7.408   1.520 -1.4068  1.0989 -0.8374
  111MOL    H7728897   4.924   7.496   1.607 -0.4072 -0.3811 -1.5725
  111MOL    H7828898   5.203   7.632   1.846  0.4417 -0.2722 -0.3880
  111MOL    H7928899   5.120   7.486   1.852 -0.9533 -0.7005 -0.4739
  111MOL    C8028900   5.002   7.660   1.857 -0.6684  0.2198  0.0800
  111MOL    C8128901   5.027   7.809   1.834 -0.0182  0.6392 -0.1832
  111MOL    C8228902   4.967   0.002   1.743  0.2015  0.0459  0.1228
  111MOL    C8328903   4.855   7.846   1.646  0.0823 -1.2712  0.3097
  111MOL    C8428904   5.020   0.141   1.724  0.6181 -0.6595  0.2898
  111MOL    H8528905   4.996   7.639   1.964  0.8813  0.0313  0.1414
  111MOL    H8628906   4.910   7.633   1.805 -1.1760 -0.0751  1.1257
  111MOL    H8728907   5.104   7.851   1.896 -1.0760 -0.5814  2.0466
  111MOL    H8828908   4.783   0.045   1.632  1.1287 -0.3119  0.4354
  111MOL    H8928909   4.787   7.763   1.667 -0.7676 -0.8045 -0.5407
  111MOL    H9028910   4.897   7.827   1.547 -1.4964  0.7360 -0.7943
  111MOL    H9128911   5.030   0.163   1.618  4.9112 -0.4611  0.6693
  111MOL    H9228912   5.125   0.136   1.754  0.7517 -2.2941 -0.3769
  111MOL    C9328913   4.936   0.255   1.794  0.1859  0.0502  0.4119
  111MOL    C9428914   4.992   0.393   1.738  0.0897  0.3800  0.3307
  111MOL    C9528915   5.013   0.507   1.805  0.6125 -0.0408  0.2613
  111MOL    C9628916   4.980   0.527   1.952 -0.3031  0.2383 -1.0778
  111MOL    C9728917   5.064   0.624   1.737  0.2170 -0.2786  0.2114
  111MOL    H9828918   4.969   0.247   1.897  1.0956 -1.9966 -0.0145
  111MOL    H9928919   4.828   0.242   1.789  0.1366  0.8379 -1.0205
  111MOL   H10028920   5.013   0.383   1.633  0.0492  3.2150  0.0211
  111MOL   H10128921   4.911   0.612   1.953 -0.8065 -0.1630  0.3420
  111MOL   H10228922   5.075   0.557   1.994 -0.1202 -0.9099 -0.6478
  111MOL   H10328923   4.939   0.435   1.993 -0.6640  0.7201 -0.3467
  111MOL   H10428924   5.108   0.594   1.642  2.2805  0.4870  0.8895
  111MOL   H10528925   5.144   0.665   1.799  0.6358 -0.1293 -0.4204
  111MOL   C10628926   4.966   0.736   1.706  0.5113 -0.3757 -0.5091
  111MOL   C10728927   5.039   0.848   1.639  0.2356  0.3322  0.6931
  111MOL   C10828928   5.001   0.975   1.626 -0.3211 -0.1295  0.0132
  111MOL   C10928929   4.862   1.019   1.675  0.0126 -0.5745 -0.3380
  111MOL   C11028930   5.080   1.084   1.558 -0.7331  0.2229  1.0840
  111MOL   H11128931   4.923   0.765   1.802  0.9380 -1.0739 -0.1042
  111MOL   H11228932   4.888   0.696   1.642 -0.2515  1.6824 -0.8887
  111MOL   H11328933   5.134   0.820   1.597  0.2256  1.5902 -0.1610
  111MOL   H11428934   4.846   0.972   1.771 -3.2074  1.3156  0.1102
  111MOL   H11528935   4.783   0.989   1.606 -1.9509  1.7322  0.8839
  111MOL   H11628936   4.869   1.126   1.696 -1.7261 -0.9053  2.0963
  111MOL   H11728937   5.094   1.163   1.632 -0.0421 -0.2715  1.4914
  111MOL   H11828938   5.013   1.122   1.481 -0.8808 -0.2217  0.9902
  111MOL   C11928939   5.211   1.050   1.487  0.2613 -0.2526 -0.2344
  111MOL   C12028940   5.266   1.165   1.403  0.2794 -0.9741  0.1151
  111MOL   C12128941   5.379   1.156   1.329 -0.1608 -0.2802  0.4523
  111MOL   C12228942   5.462   1.023   1.316  0.2779 -0.6680  0.4351
  111MOL   C12328943   5.440   1.277   1.268  0.4195  0.1839 -0.3730
  111MOL   H12428944   5.215   0.962   1.423  1.8098 -0.3449 -0.0112
  111MOL   H12528945   5.289   1.035   1.562 -1.5784  0.1319  1.8351
  111MOL   H12628946   5.221   1.262   1.419  0.8871 -0.5770 -0.5728
  111MOL   H12728947   5.559   1.025   1.365 -0.5489 -0.0566  2.0937
  111MOL   H12828948   5.475   0.999   1.211  2.1752 -1.1828  0.7729
  111MOL   H12928949   5.413   0.937   1.361 -1.5468 -0.6357 -1.4132
  111MOL   H13028950   5.548   1.274   1.282  0.3105 -2.0544  0.1152
  111MOL   H13128951   5.402   1.365   1.320  2.5200  0.6071  0.5177
  111MOL   C13228952   5.412   1.284   1.122  0.6044  0.3393  0.3883
  111MOL   C13328953   5.434   1.420   1.066 -0.9351  0.1192  0.3104
  111MOL   C13428954   5.348   1.523   1.063  0.3538 -1.3115  0.0334
  111MOL   C13528955   5.195   1.514   1.086 -0.3380 -0.1422  0.0388
  111MOL   C13628956   5.392   1.664   1.012  0.0550  0.1303 -0.5783
  111MOL   H13728957   5.307   1.261   1.107  0.0909  1.6672  1.8590
  111MOL   H13828958   5.462   1.205   1.066  1.5036  0.6172  0.7861
  111MOL   H13928959   5.537   1.443   1.046 -0.6264 -3.5893 -2.9445
  111MOL   H14028960   5.166   1.421   1.135  0.9469 -0.5515  0.0302
  111MOL   H14128961   5.140   1.524   0.993  0.5813  0.8905 -0.3972
  111MOL   H14228962   5.181   1.592   1.161 -1.2291  0.7117 -1.0081
  111MOL   H14328963   5.500   1.657   1.003 -0.1289 -1.0330 -2.0511
  111MOL   H14428964   5.366   1.739   1.086  0.7214  0.9509 -1.1615
  111MOL   C14528965   5.343   1.699   0.873 -0.3404  0.2869  0.0352
  111MOL   C14628966   5.369   1.849   0.839  0.2291 -0.2414  0.1705
  111MOL   C14728967   5.464   1.903   0.761  0.1069  1.1927  0.8386
  111MOL   C14828968   5.567   1.807   0.687 -0.6309 -0.2081 -0.0328
  111MOL   C14928969   5.477   2.054   0.738 -0.1818  0.5398  0.4020
  111MOL   H15028970   5.236   1.681   0.880 -0.3381  0.2703  0.0162
  111MOL   H15128971   5.385   1.637   0.794 -2.4032 -1.5947  0.3509
  111MOL   H15228972   5.309   1.919   0.896 -0.4346  0.7770 -1.7060
  111MOL   H15328973   5.666   1.853   0.688 -0.7523  0.0600  0.2164
  111MOL   H15428974   5.528   1.779   0.589  1.7600 -0.4187 -0.9531
  111MOL   H15528975   5.578   1.716   0.745 -2.6822 -1.0670 -0.9500
  111MOL   H15628976   5.378   2.100   0.734 -0.5195 -0.2373 -0.2806
  111MOL   H15728977   5.520   2.082   0.642  0.3144 -0.0112  0.4569
  111MOL   C15828978   5.557   2.125   0.853 -0.8155  0.0213  0.2896
  111MOL   C15928979   5.706   2.094   0.839 -0.6926  0.0441  0.5153
  111MOL   C16028980   5.780   2.028   0.932  0.1923  0.0566  0.0036
  111MOL   C16128981   5.738   1.968   1.063  0.3760 -0.4881  0.0506
  111MOL   C16228982   5.935   2.027   0.911 -0.5863 -0.6084  0.0829
  111MOL   H16328983   5.516   2.108   0.953  1.7433 -1.8140  1.0842
  111MOL   H16428984   5.565   2.234   0.849  0.2370 -0.1216 -2.2144
  111MOL   H16528985   5.754   2.138   0.752  0.8107 -1.2890  0.6452
  111MOL   H16628986   5.808   1.889   1.089  0.5776  0.1842  1.5804
  111MOL   H16728987   5.634   1.936   1.051  0.1261 -0.1370  1.2447
  111MOL   H16828988   5.737   2.043   1.141  2.3713  1.0061 -1.3062
  111MOL   H16928989   5.989   2.056   1.001 -1.9821  1.0096  0.4208
  111MOL   H17028990   5.964   2.107   0.843  0.1391 -2.4805 -1.8580
  111MOL   C17128991   6.000   1.893   0.866 -0.1713 -0.4527  0.3892
  111MOL   C17228992   6.145   1.892   0.903 -0.6866  0.0262  0.9513
  111MOL   C17328993   6.250   1.888   0.814  0.0306  0.2380 -0.1983
  111MOL   C17428994   6.230   1.891   0.668 -0.3665  0.4479 -0.0415
  111MOL   C17528995   6.393   1.905   0.870 -0.5946  0.0420 -0.0762
  111MOL   H17628996   5.977   1.871   0.762  0.7414 -0.7946  0.2545
  111MOL   H17728997   5.961   1.808   0.922 -2.0363 -0.0565 -0.2648
  111MOL   H17828998   6.157   1.891   1.010 -0.9293 -2.7255  0.9742
  111MOL   H17928999   6.268   1.799   0.624 -0.2048  0.8651 -0.7856
  111MOL   H18029000   6.282   1.979   0.629  0.3275 -0.2895 -0.7889
  111MOL   H18129001   6.126   1.892   0.635 -0.5765  1.9068  0.5937
  111MOL   H18229002   6.390   1.917   0.978  1.5917  0.0884 -0.0008
  111MOL   H18329003   6.426   2.002   0.832 -0.4201 -0.1582 -0.4410
  111MOL   C18429004   6.488   1.795   0.835  0.2382  0.8201  0.2509
  111MOL   C18529005   6.625   1.802   0.906  0.9454  0.0459  0.8558
  111MOL   C18629006   6.736   1.729   0.877  0.5346  0.0404 -0.2648
  111MOL   C18729007   6.741   1.643   0.755 -0.0901  0.0701 -0.2633
  111MOL   C18829008   6.857   1.755   0.968  0.0240 -0.1849 -0.7000
  111MOL   H18929009   6.495   1.783   0.727  0.4117 -1.7790  0.5125
  111MOL   H19029010   6.452   1.697   0.867  0.3863  1.0665  1.2027
  111MOL   H19129011   6.618   1.871   0.989  4.2040  0.7492  0.6289
  111MOL   H19229012   6.651   1.649   0.695 -0.8208 -1.3257  0.6546
  111MOL   H19329013   6.775   1.539   0.762 -0.3248 -0.0038 -0.2376
  111MOL   H19429014   6.817   1.678   0.685 -0.1112  0.2377 -0.2020
  111MOL   H19529015   6.947   1.720   0.916 -0.4159 -0.6547 -1.1474
  111MOL   H19629016   6.857   1.700   1.062 -1.4827  0.8183 -0.1030
  111MOL   C19729017   6.882   1.900   0.998  0.2312  0.5586  0.1567
  111MOL   C19829018   7.021   1.922   1.048 -0.0826  0.0317 -0.1142
  111MOL   C19929019   7.084   2.039   1.032  0.2099 -0.4516  0.4186
  111MOL   C20029020   7.041   2.159   0.946  0.5393  0.0766  0.2070
  111MOL   C20129021   7.221   2.062   1.098  0.3189 -0.9055 -0.4154
  111MOL   H20229022   6.816   1.952   1.067 -1.3762 -0.8068 -0.3207
  111MOL   H20329023   6.861   1.945   0.900  0.6038 -1.3941 -0.8478
  111MOL   H20429024   7.057   1.846   1.115  1.0422  1.2158  0.6315
  111MOL   H20529025   7.047   2.247   1.009  3.6619  0.4199 -0.5140
  111MOL   H20629026   6.934   2.155   0.926  0.7937 -1.2619 -0.9702
  111MOL   H20729027   7.092   2.160   0.850 -2.0888 -2.1777 -1.2704
  111MOL   H20829028   7.284   2.102   1.018  1.1499 -0.3543  0.4964
  111MOL   H20929029   7.259   1.972   1.146  1.1053  0.4036  1.4860
  111MOL   C21029030   7.218   2.165   1.216 -0.0960 -0.2918 -0.1124
  111MOL   C21129031   7.348   2.171   1.281  0.8849 -0.0225  0.2291
  111MOL   C21229032   7.374   2.176   1.413  0.0067  0.0613  0.0214
  111MOL   C21329033   7.266   2.173   1.521  0.6479  0.2220 -0.5418
  111MOL   C21429034   7.516   2.176   1.458  0.7136 -0.0893  0.1045
  111MOL   H21529035   7.145   2.136   1.292 -1.2632  1.8309 -0.3785
  111MOL   H21629036   7.194   2.261   1.170 -0.9894  1.0491  2.9928
  111MOL   H21729037   7.427   2.159   1.209  0.1783  1.1281 -0.7571
  111MOL   H21829038   7.175   2.120   1.494 -0.3437  1.5983  0.0496
  111MOL   H21929039   7.228   2.273   1.540  0.5708  0.0139  0.4218
  111MOL   H22029040   7.308   2.135   1.615  0.0775  1.5827  0.2752
  111MOL   H22129041   7.580   2.139   1.378  1.6400 -0.8705  1.1966
  111MOL   H22229042   7.526   2.107   1.542  2.9440  1.2467  0.9803
  111MOL   C22329043   7.559   2.323   1.491 -0.1375  0.8442 -0.1849
  111MOL   C22429044   7.677   2.333   1.587  0.3339  0.0261  0.2392
  111MOL   C22529045   7.788   2.408   1.580 -0.0530 -0.1996  0.5339
  111MOL   C22629046   7.833   2.506   1.476  0.2345 -0.0943  0.2760
  111MOL   C22729047   7.878   2.406   1.705 -0.0210  0.0266  0.2420
  111MOL   H22829048   7.478   2.380   1.538 -0.8841 -1.0808  0.8984
  111MOL   H22929049   7.581   2.375   1.397 -0.8185  0.9396 -0.2974
  111MOL   H23029050   7.655   2.271   1.673 -1.3160  0.4107  0.1168
  111MOL   H23129051   0.043   2.554   1.507 -0.4185  0.8346  0.8372
  111MOL   H23229052   7.755   2.583   1.476  0.3555  0.0301 -0.0990
  111MOL   H23329053   7.844   2.466   1.375  1.1174 -0.5741  0.5613
  111MOL   H23429054   0.096   2.442   1.687  0.0632 -0.8078 -0.9948
  111MOL   H23529055   0.012   2.302   1.732  1.0348  0.0684 -0.2478
  111MOL   C23629056   7.821   2.473   1.827 -0.4692 -0.3418  0.2647
  111MOL   C23729057   0.061   2.463   1.934 -0.5644  0.0762  0.2808
  111MOL   C23829058   0.114   2.564   2.010 -0.8183  0.8483 -0.4941
  111MOL   C23929059   0.061   2.710   2.019  0.2243  0.1929 -0.5440
  111MOL   C24029060   0.240   2.539   2.095  0.0767 -0.0362 -0.1183
  111MOL   H24129061   7.734   2.425   1.871 -1.6148 -0.8357 -2.4273
  111MOL   H24229062   7.800   2.579   1.816  1.6999  0.1581  0.6442
  111MOL   H24329063   0.112   2.369   1.941 -0.6707 -0.1430 -1.7882
  111MOL   H24429064   0.130   2.778   1.968  1.8558 -1.7282 -0.9644
  111MOL   H24529065   0.051   2.753   2.119 -2.0131 -0.0456 -0.6362
  111MOL   H24629066   7.847   2.726   1.972 -0.3124 -2.8521 -0.5706
  111MOL   H24729067   0.312   2.617   2.070  0.7048 -0.7419 -0.5252
  111MOL   H24829068   0.290   2.446   2.068  0.5368  0.2305 -0.1814
  111MOL   C24929069   0.202   2.529   2.240  0.3025  0.0705  0.2492
  111MOL   C25029070   0.328   2.488   2.314  0.2243 -0.5257 -0.7561
  111MOL   C25129071   0.342   2.396   2.416 -0.4719 -0.2618 -0.4642
  111MOL   C25229072   0.233   2.317   2.472  0.0470  0.1069  0.1791
  111MOL   C25329073   0.467   2.372   2.494 -0.5046  0.4051 -0.4122
  111MOL   H25429074   0.130   2.448   2.248  0.9077 -0.4913  0.0788
  111MOL   H25529075   0.166   2.625   2.278  1.3219  0.6288 -0.1829
  111MOL   H25629076   0.418   2.545   2.295 -0.2811 -0.5884 -3.4462
  111MOL   H25729077   0.273   2.217   2.489 -1.3535 -0.8993 -2.1335
  111MOL   H25829078   0.145   2.309   2.408  0.0185 -0.3480  0.2694
  111MOL   H25929079   0.198   2.351   2.569 -0.7423  1.8135 -0.6950
  111MOL   H26029080   0.495   2.268   2.473 -0.0617 -0.0336  2.1988
  111MOL   H26129081   0.456   2.375   2.603  1.4726 -0.2219 -0.1619
  111MOL   H26229082   0.549   2.437   2.464 -0.4650  0.2303 -0.6864
  112MOL     C129083   5.845   7.620   4.908 -0.6018  0.4951 -0.0444
  112MOL     C229084   5.919   7.651   5.035 -0.0072 -0.2794  0.3347
  112MOL     C329085   5.945   7.775   5.074  1.1209 -0.1943 -0.1606
  112MOL     C429086   5.889   0.014   5.006 -0.3571 -0.0694 -0.0014
  112MOL     C529087   6.034   7.798   5.192  0.1118  0.1712 -0.2290
  112MOL     H629088   5.830   7.514   4.888  0.8337 -0.2438  2.5901
  112MOL     H729089   5.761   7.688   4.895 -2.8474 -1.9070  1.2591
  112MOL     H829090   5.971   7.566   5.079  0.0832 -0.5774 -0.3405
  112MOL     H929091   5.852   0.090   5.075  0.3520 -0.5157  0.8810
  112MOL    H1029092   5.817   0.005   4.925 -1.9140  3.2362  0.9186
  112MOL    H1129093   5.971   0.063   4.953  0.2122  0.8230  1.6744
  112MOL    H1229094   6.038   0.020   5.224 -2.0788  0.5131 -1.0069
  112MOL    H1329095   6.139   7.779   5.170  0.2688 -1.2906  1.6351
  112MOL    H1429096   5.900   7.637   4.816 -0.9816 -2.5880 -0.8922
  112MOL    C1529097   5.997   7.715   5.318  0.3447 -0.8382  0.3671
  112MOL    C1629098   6.098   7.732   5.426  0.0247 -0.8575  0.1888
  112MOL    C1729099   6.074   7.759   5.558 -0.6773  0.0948  0.1403
  112MOL    C1829100   5.932   7.762   5.611  0.3825  0.4761  0.2374
  112MOL    C1929101   6.190   7.775   5.657  0.1599 -0.1567  0.2727
  112MOL    H2029102   5.969   7.612   5.297  1.4032 -0.8953 -0.8280
  112MOL    H2129103   5.908   7.764   5.357  1.7868  1.2099  1.1536
  112MOL    H2229104   6.200   7.717   5.396 -0.8554 -4.3144 -1.3425
  112MOL    H2329105   5.860   7.697   5.561  1.4127 -1.5215  1.2771
  112MOL    H2429106   5.875   7.854   5.596 -0.6383 -0.3545 -1.1383
  112MOL    H2529107   5.943   7.737   5.717 -0.0524  2.2356  0.7061
  112MOL    H2629108   6.285   7.745   5.612  0.4607 -0.4063  1.0655
  112MOL    H2729109   6.176   7.701   5.735  1.0270 -2.3166 -1.5483
  112MOL    C2829110   6.213   0.037   5.699 -0.3547  0.6410 -0.3686
  112MOL    C2929111   6.334   0.050   5.791  0.0594 -0.0489  0.2551
  112MOL    C3029112   6.442   0.138   5.784  0.4581  0.1695 -0.1937
  112MOL    C3129113   6.461   0.250   5.676 -0.0835  0.0109  0.1778
  112MOL    C3229114   6.547   0.147   5.894 -0.6470  0.0265  0.1350
  112MOL    H3329115   6.120   0.075   5.742 -0.8068 -2.7664  1.8601
  112MOL    H3429116   6.230   0.096   5.609 -2.2749  0.0438 -1.1506
  112MOL    H3529117   6.329   7.864   5.875  0.9382  2.8618  2.7704
  112MOL    H3629118   6.441   0.346   5.723 -0.6082 -0.6561  1.3294
  112MOL    H3729119   6.384   0.239   5.599  2.1205  0.9544 -2.2387
  112MOL    H3829120   6.556   0.261   5.623 -1.0504  1.5100 -1.3128
  112MOL    H3929121   6.511   0.091   5.980 -0.5476  0.2342  0.3101
  112MOL    H4029122   6.550   0.253   5.917 -1.4117  0.1577 -0.3913
  112MOL    C4129123   6.690   0.099   5.862 -0.1185  0.7232  0.4362
  112MOL    C4229124   6.788   0.140   5.970 -0.1946  0.2301 -0.4134
  112MOL    C4329125   6.867   0.250   5.962  0.1899  0.1114  1.0905
  112MOL    C4429126   6.869   0.338   5.839  0.3326 -0.2305  0.4799
  112MOL    C4529127   6.984   0.285   6.056 -0.2256  0.5468 -0.2162
  112MOL    H4629128   6.719   0.138   5.764  0.9101  0.6382  0.6960
  112MOL    H4729129   6.701   7.873   5.854  1.5056  0.9669 -0.9934
  112MOL    H4829130   6.784   0.062   6.044 -0.2441  0.5137 -0.1159
  112MOL    H4929131   6.870   0.439   5.878 -0.5870 -0.4753  1.1660
  112MOL    H5029132   6.775   0.337   5.784 -0.2950  1.4786  1.4704
  112MOL    H5129133   6.940   0.314   5.760  0.2226  0.9916  0.0049
  112MOL    H5229134   6.984   0.391   6.080  0.0059  0.7204 -0.9842
  112MOL    H5329135   7.077   0.268   6.001 -0.3648  0.5840 -0.4638
  112MOL    C5429136   6.989   0.192   6.183  0.1022 -0.0003  0.9544
  112MOL    C5529137   7.086   0.246   6.287 -0.3979  0.2353  0.2818
  112MOL    C5629138   7.060   0.332   6.391  0.5818  0.7057 -0.1521
  112MOL    C5729139   6.915   0.397   6.418 -0.1912  0.2530  0.4369
  112MOL    C5829140   7.172   0.382   6.483 -0.2697  0.2134 -0.8771
  112MOL    H5929141   7.020   0.091   6.156  2.6307  0.4190  2.1543
  112MOL    H6029142   6.891   0.192   6.231 -1.3046 -0.0658 -1.7895
  112MOL    H6129143   7.190   0.229   6.265  0.2239  2.4968  1.3119
  112MOL    H6229144   6.882   0.483   6.360 -0.3228  1.4091  2.2171
  112MOL    H6329145   6.909   0.434   6.520 -0.2977 -0.2639  0.6195
  112MOL    H6429146   6.830   0.330   6.430 -0.4862  0.3683 -0.8738
  112MOL    H6529147   7.242   0.299   6.482  1.5386  1.6820 -0.6116
  112MOL    H6629148   7.144   0.390   6.588 -0.4921  0.4218 -0.9524
  112MOL    C6729149   7.237   0.512   6.440 -0.8253  0.1905 -0.0821
  112MOL    C6829150   7.356   0.540   6.520  0.1614  0.0698 -0.0084
  112MOL    C6929151   7.482   0.505   6.492 -0.1004  1.3882 -0.7851
  112MOL    C7029152   7.525   0.424   6.380  0.0900 -0.7407  0.0675
  112MOL    C7129153   7.589   0.544   6.595 -0.3994 -0.5020 -0.1549
  112MOL    H7229154   7.163   0.593   6.441 -1.1702 -0.1182 -0.4284
  112MOL    H7329155   7.247   0.518   6.332 -3.0521  3.7924 -0.1546
  112MOL    H7429156   7.328   0.585   6.614  2.5067  0.6137  0.4788
  112MOL    H7529157   7.612   0.466   6.329  0.3451 -2.7496 -1.2005
  112MOL    H7629158   7.443   0.428   6.309 -0.5568  0.6544  0.8713
  112MOL    H7729159   7.543   0.324   6.420  2.3250  0.5509  2.4973
  112MOL    H7829160   7.544   0.593   6.682 -0.4721 -1.4163  0.3352
  112MOL    H7929161   7.648   0.621   6.545 -1.8495  0.7863  0.0774
  112MOL    C8029162   7.682   0.429   6.639  0.0541  0.4582 -0.1730
  112MOL    C8129163   7.806   0.488   6.716 -0.0142 -0.3660  0.8093
  112MOL    C8229164   0.022   0.415   6.770  0.2806  0.6753  0.1182
  112MOL    C8329165   0.026   0.271   6.770  0.9755 -0.3085  0.1119
  112MOL    C8429166   0.136   0.489   6.845  0.8088 -0.7123  0.3056
  112MOL    H8529167   7.708   0.354   6.564 -3.8070 -1.1490 -0.0082
  112MOL    H8629168   7.635   0.373   6.720 -0.1480  1.5685  0.4878
  112MOL    H8729169   7.802   0.595   6.726  0.5820 -0.4331  1.8752
  112MOL    H8829170   7.822   0.218   6.730 -0.3670  1.6767  0.3315
  112MOL    H8929171   0.049   0.226   6.866 -0.5293 -0.1365  0.5609
  112MOL    H9029172   0.098   0.244   6.693 -1.7140 -2.0032 -1.8945
  112MOL    H9129173   0.109   0.477   6.950  0.0312 -1.3563  0.0393
  112MOL    H9229174   0.114   0.591   6.815  0.8032 -0.7170  0.2944
  112MOL    C9329175   0.285   0.451   6.817  0.4718 -0.1487 -0.3373
  112MOL    C9429176   0.330   0.317   6.882 -0.8407  0.0807 -0.2217
  112MOL    C9529177   0.391   0.215   6.825 -0.3604  0.1027 -0.1832
  112MOL    C9629178   0.437   0.209   6.681 -0.2805  0.0982 -0.4995
  112MOL    C9729179   0.402   0.086   6.903 -0.0820 -0.3486  0.2171
  112MOL    H9829180   0.345   0.530   6.862 -1.7575  0.7854  1.0772
  112MOL    H9929181   0.298   0.454   6.709  2.1972  0.9446 -0.1126
  112MOL   H10029182   0.297   0.314   6.985 -1.9499 -0.9591 -0.5928
  112MOL   H10129183   0.360   0.160   6.622 -0.1902  0.0715 -0.5934
  112MOL   H10229184   0.530   0.154   6.673 -0.7370 -0.9181  0.8921
  112MOL   H10329185   0.472   0.307   6.650  1.5387 -0.6423 -0.8444
  112MOL   H10429186   0.432   0.106   7.006  0.3587 -0.9017  0.2042
  112MOL   H10529187   0.486   0.025   6.867  0.5242  0.5704  0.0472
  112MOL   C10629188   0.278   7.879   6.887 -0.8575  0.3283  0.4747
  112MOL   C10729189   0.295   7.748   6.967 -0.3824 -0.6550  0.1351
  112MOL   C10829190   0.196   7.655   6.979 -0.4626  0.6186 -0.1139
  112MOL   C10929191   0.054   7.699   6.945 -0.0782 -0.0745  0.2149
  112MOL   C11029192   0.222   7.516   7.028 -0.2876  0.2557  1.3646
  112MOL   H11129193   0.272   7.844   6.784  0.7157 -2.0176  1.1240
  112MOL   H11229194   0.182   0.047   6.900 -1.0770 -0.1695  0.8000
  112MOL   H11329195   0.399   7.724   6.977 -0.7690 -2.2558  0.4021
  112MOL   H11429196   7.866   7.635   6.998  0.4142  0.0038  0.9640
  112MOL   H11529197   0.029   7.676   6.841  1.3379 -0.1972 -0.1075
  112MOL   H11629198   0.035   7.802   6.975  0.8647 -0.2405  1.3999
  112MOL   H11729199   0.327   7.489   7.015 -0.9047 -1.2489 -0.5157
  112MOL   H11829200   0.160   7.444   6.975  1.0186  1.7619 -2.3178
  112MOL   C11929201   0.205   7.507   7.178  0.7757 -0.6584 -0.0324
  112MOL   C12029202   0.224   7.374   7.245  0.3630 -0.0444  0.3937
  112MOL   C12129203   0.335   7.305   7.283  0.5354 -0.1607 -0.0473
  112MOL   C12229204   0.483   7.343   7.257 -0.5856 -0.2586  0.2068
  112MOL   C12329205   0.337   7.167   7.346  0.3696 -0.2768  0.1853
  112MOL   H12429206   0.101   7.534   7.199  1.3918  0.8754  1.0930
  112MOL   H12529207   0.269   7.581   7.226  0.3919  0.3434 -1.0480
  112MOL   H12629208   0.130   7.320   7.249  0.6791 -0.9622 -3.0946
  112MOL   H12729209   0.535   7.361   7.351 -3.3150  0.0360  1.7161
  112MOL   H12829210   0.496   7.435   7.199 -0.7207  1.3316  2.6498
  112MOL   H12929211   0.547   7.276   7.200  0.5029  0.7301  0.2592
  112MOL   H13029212   0.406   7.167   7.430 -1.3021  3.7805  1.6674
  112MOL   H13129213   0.393   7.104   7.277  1.4699 -0.3248  1.1267
  112MOL   C13229214   0.199   7.099   7.380 -0.1161  0.3172  0.2983
  112MOL   C13329215   0.218   6.969   7.456  0.2042  0.0084  0.0015
  112MOL   C13429216   0.151   6.854   7.452  0.0136 -0.0963 -0.2365
  112MOL   C13529217   0.023   6.833   7.370  0.5070  0.8259  0.6743
  112MOL   C13629218   0.190   6.722   7.528 -0.5032 -0.7806 -0.2398
  112MOL   H13729219   0.148   7.082   7.285  1.6404 -1.9426 -0.2879
  112MOL   H13829220   0.147   7.173   7.441  0.0826  1.5889 -1.0513
  112MOL   H13929221   0.302   6.978   7.524 -0.0408  1.7679  0.0838
  112MOL   H14029222   7.854   6.924   7.342 -1.3142 -0.2307  0.5130
  112MOL   H14129223   7.829   6.784   7.430 -0.4768 -0.0775 -1.2591
  112MOL   H14229224   0.034   6.769   7.282 -1.2979  2.5624 -0.8524
  112MOL   H14329225   0.203   6.650   7.447 -1.8598 -1.4920  0.1605
  112MOL   H14429226   0.113   6.683   7.594  1.1048 -0.9362  1.5976
  112MOL   C14529227   0.322   6.728   7.607 -0.7418 -0.2791  0.4566
  112MOL   C14629228   0.351   6.590   7.666 -0.4066 -0.5745 -0.3937
  112MOL   C14729229   0.364   6.561   7.797  0.1510  0.2569 -1.0472
  112MOL   C14829230   0.324   6.653   0.031  0.3314 -0.1750 -0.2572
  112MOL   C14929231   0.398   6.417   7.838 -0.3345 -0.1569 -0.1705
  112MOL   H15029232   0.308   6.806   7.682  1.1120 -0.1152  0.6529
  112MOL   H15129233   0.403   6.762   7.542 -1.7032 -2.2814 -1.8582
  112MOL   H15229234   0.383   6.519   7.591 -0.7136 -0.3894 -0.7065
  112MOL   H15329235   0.292   6.755   0.009  3.0144  0.4725 -1.3395
  112MOL   H15429236   0.404   6.653   0.105  0.1538  0.3645 -0.0581
  112MOL   H15529237   0.231   6.619   0.076  0.0902 -0.2686 -0.8175
  112MOL   H15629238   0.483   6.424   0.024 -1.0513 -0.0719  0.7138
  112MOL   H15729239   0.423   6.364   7.746  1.6043  0.6237 -0.1330
  112MOL   C15829240   0.290   6.359   0.048  0.3158 -0.3698  0.3052
  112MOL   C15929241   0.334   6.230   0.102 -0.3884  0.2867 -0.6831
  112MOL   C16029242   0.276   6.106   0.079  0.5760  0.5149 -0.7233
  112MOL   C16129243   0.170   6.091   7.853 -0.1798 -0.3513  0.5173
  112MOL   C16229244   0.329   5.979   0.149 -0.6277 -0.4064  0.2408
  112MOL   H16329245   0.209   6.337   7.861 -0.6740  2.0493  0.6140
  112MOL   H16429246   0.250   6.416   0.132  1.2456  0.9068 -0.1023
  112MOL   H16529247   0.416   6.248   0.170 -2.0391 -0.2200  1.4781
  112MOL   H16629248   0.203   6.139   7.761 -1.2875 -3.5604 -1.6364
  112MOL   H16729249   0.074   6.128   0.007 -0.6808 -0.1144 -1.0048
  112MOL   H16829250   0.151   5.990   7.819 -0.0771  0.2946 -1.5698
  112MOL   H16929251   0.345   5.905   0.071  0.1430  0.6017 -0.5819
  112MOL   H17029252   0.245   5.942   0.208 -1.7146  0.5172 -0.7072
  112MOL   C17129253   0.461   5.992   0.225 -0.4145  0.9052 -0.2743
  112MOL   C17229254   0.480   5.878   0.321  0.0375  0.0547 -0.2703
  112MOL   C17329255   0.593   5.806   0.341 -0.1378  0.1585 -0.5085
  112MOL   C17429256   0.725   5.829   0.267  0.6987 -0.3597  0.9322
  112MOL   C17529257   0.606   5.686   0.428  0.2480  0.6238 -0.2191
  112MOL   H17629258   0.476   6.084   0.281 -0.6119  0.2415  0.9013
  112MOL   H17729259   0.532   5.992   0.143  1.4767  0.0241  1.3160
  112MOL   H17829260   0.388   5.849   0.368 -0.6435  1.2300 -0.8505
  112MOL   H17929261   0.726   5.917   0.202 -0.3287 -0.8186  0.2782
  112MOL   H18029262   0.729   5.750   0.192 -0.0590 -0.3934  0.9318
  112MOL   H18129263   0.813   5.827   0.332  1.3800  0.1655  0.0500
  112MOL   H18229264   0.644   5.610   0.361  3.4241  0.3218  1.8201
  112MOL   H18329265   0.510   5.643   0.460 -0.9451  1.6090 -2.3902
  112MOL   C18429266   0.683   5.706   0.561  0.6781  0.4758 -0.7826
  112MOL   C18529267   0.619   5.821   0.625  0.1087 -0.0142 -0.2765
  112MOL   C18629268   0.682   5.934   0.664 -0.2150  0.2869  0.4800
  112MOL   C18729269   0.827   5.959   0.660 -0.4076 -0.2389 -0.2832
  112MOL   C18829270   0.608   6.049   0.713  0.2801  0.3266  0.2491
  112MOL   H18929271   0.784   5.726   0.524  0.7689  0.0901 -0.7366
  112MOL   H19029272   0.689   5.616   0.621  0.2942 -0.1007 -1.5855
  112MOL   H19129273   0.515   5.813   0.651 -0.3887  0.9841 -1.9584
  112MOL   H19229274   0.888   5.870   0.676 -2.0616 -1.3068  0.1973
  112MOL   H19329275   0.860   6.019   0.745  0.6190 -1.6159  0.3027
  112MOL   H19429276   0.846   6.004   0.563 -2.4267 -1.4321 -1.2777
  112MOL   H19529277   0.644   6.066   0.815 -1.7964  0.2093  1.0370
  112MOL   H19629278   0.502   6.026   0.715  0.1144  0.8683 -1.4948
  112MOL   C19729279   0.601   6.169   0.617  0.1715 -0.4310  0.1329
  112MOL   C19829280   0.524   6.277   0.681 -0.4723  0.3444 -0.9070
  112MOL   C19929281   0.451   6.370   0.622 -0.4085 -0.4761  0.1929
  112MOL   C20029282   0.444   6.389   0.475 -0.0219 -0.3486 -0.0143
  112MOL   C20129283   0.400   6.490   0.698  0.4345 -0.8750 -0.6265
  112MOL   H20229284   0.566   6.126   0.523 -0.7160  1.5328 -0.4771
  112MOL   H20329285   0.699   6.212   0.597  0.4280 -0.6658  0.8701
  112MOL   H20429286   0.527   6.281   0.788  0.6034  0.5128 -0.9426
  112MOL   H20529287   0.468   6.292   0.432  3.4140  0.8421 -0.9325
  112MOL   H20629288   0.524   6.457   0.445  0.5715 -0.1961  1.8405
  112MOL   H20729289   0.346   6.421   0.440 -0.2161  2.2436  2.7014
  112MOL   H20829290   0.441   6.582   0.657 -2.9089  1.5396  1.2332
  112MOL   H20929291   0.455   6.483   0.792  0.6041 -0.5689 -0.7026
  112MOL   C21029292   0.252   6.506   0.682 -0.2549 -0.5981  0.4706
  112MOL   C21129293   0.205   6.607   0.780 -0.0322 -0.8308 -0.3957
  112MOL   C21229294   0.134   6.578   0.892  0.2338  0.4939 -0.4878
  112MOL   C21329295   0.109   6.436   0.927  0.1252 -0.0146 -0.7788
  112MOL   C21429296   0.106   6.683   1.003 -0.3790  0.5285  0.4714
  112MOL   H21529297   0.203   6.410   0.696 -1.0293 -0.4785 -1.2581
  112MOL   H21629298   0.226   6.536   0.580  1.4904  0.6935  0.3774
  112MOL   H21729299   0.223   6.713   0.766  3.0024 -1.2896 -0.1889
  112MOL   H21829300   0.200   6.390   0.964  0.2643  0.2843 -0.7452
  112MOL   H21929301   0.060   6.377   0.850 -1.6438 -2.1196  1.8714
  112MOL   H22029302   0.037   6.426   1.009  1.2170 -0.2036  0.1607
  112MOL   H22129303   0.186   6.758   0.997  1.0337 -0.9813 -0.1357
  112MOL   H22229304   0.104   6.642   1.104 -0.0838 -0.2756  0.1598
  112MOL   C22329305   7.844   6.752   0.988 -0.0983 -0.1382 -0.2138
  112MOL   C22429306   7.731   6.646   1.015 -0.7301 -0.0164  0.0234
  112MOL   C22529307   7.660   6.621   1.127  0.3742  0.8939 -0.2093
  112MOL   C22629308   7.672   6.710   1.243  0.2623  0.2704  0.3501
  112MOL   C22729309   7.564   6.496   1.144 -0.8145  0.4384  0.4289
  112MOL   H22829310   7.840   6.806   0.893 -0.7777  0.6447  0.2482
  112MOL   H22929311   7.835   6.839   1.053  1.3661  0.1946 -0.4376
  112MOL   H23029312   7.723   6.574   0.934 -0.9250  0.1136 -0.0716
  112MOL   H23129313   7.596   6.788   1.254 -1.6143 -1.2973 -1.0036
  112MOL   H23229314   7.769   6.753   1.267 -0.3905  2.8673 -1.3608
  112MOL   H23329315   7.665   6.647   1.332 -1.8908  0.9027  0.6678
  112MOL   H23429316   7.569   6.453   1.044  0.5191 -1.4288  1.2706
  112MOL   H23529317   7.461   6.517   1.171 -1.1314 -1.0800  0.4155
  112MOL   C23629318   7.611   6.388   1.251  0.4255 -0.0147 -0.0752
  112MOL   C23729319   7.530   6.263   1.232  0.7138  0.7950  0.5585
  112MOL   C23829320   7.452   6.204   1.322  0.3933  0.1714 -0.3851
  112MOL   C23929321   7.430   6.268   1.461 -0.2992 -0.4368  0.7324
  112MOL   C24029322   7.378   6.079   1.297  0.3898  0.2051 -0.2849
  112MOL   H24129323   7.603   6.431   1.351  1.4650  1.2068 -0.5044
  112MOL   H24229324   7.714   6.359   1.230  0.0569 -0.7802 -0.8856
  112MOL   H24329325   7.538   6.215   1.135  1.4768  2.7192 -0.3510
  112MOL   H24429326   7.345   6.234   1.520 -0.7804 -0.1731  0.1984
  112MOL   H24529327   7.412   6.373   1.443 -0.2368 -0.4649  0.4967
  112MOL   H24629328   7.523   6.255   1.517  0.4777  0.0743 -0.4076
  112MOL   H24729329   7.342   6.079   1.195 -0.4573 -0.8869  0.0010
  112MOL   H24829330   7.289   6.070   1.359  0.4539  2.2377  0.1196
  112MOL   C24929331   7.456   5.950   1.339  0.4794  0.2392  0.3571
  112MOL   C25029332   7.379   5.818   1.323  0.4446  0.4061  0.2925
  112MOL   C25129333   7.360   5.731   1.424  0.5819 -0.1555 -0.3633
  112MOL   C25229334   7.393   5.757   1.573 -0.3658 -0.0441  0.8560
  112MOL   C25329335   7.286   5.611   1.399  0.5628  0.4436 -0.3375
  112MOL   H25429336   7.478   5.969   1.445  1.1098  0.2524  0.2288
  112MOL   H25529337   7.552   5.943   1.288 -0.1370 -0.7184 -0.6682
  112MOL   H25629338   7.342   5.798   1.224 -0.1875  0.6691  0.4779
  112MOL   H25729339   7.373   5.685   1.653  0.4310 -1.5203 -0.2545
  112MOL   H25829340   7.352   5.854   1.602  0.3358  0.8532 -1.0743
  112MOL   H25929341   7.501   5.771   1.579 -0.6226  1.9409  1.2227
  112MOL   H26029342   7.345   5.526   1.433 -0.7921 -0.8250 -1.1144
  112MOL   H26129343   7.267   5.611   1.292 -1.6052 -1.2694  0.0015
  112MOL   H26229344   7.194   5.631   1.453  0.8160 -0.1737  0.3311
  113MOL     C129345   1.528   1.633   4.875  0.3643 -0.0705  0.2766
  113MOL     C229346   1.650   1.580   4.949  0.7758  0.2176 -0.2709
  113MOL     C329347   1.694   1.448   4.955  0.3569 -0.0105 -0.2148
  113MOL     C429348   1.627   1.334   4.882 -0.4388  0.5109  0.3015
  113MOL     C529349   1.817   1.423   5.043  0.0972  0.2401  0.9801
  113MOL     H629350   1.497   1.723   4.928 -0.1449  1.2027 -2.0876
  113MOL     H729351   1.549   1.649   4.769 -1.5289  0.5884 -0.0134
  113MOL     H829352   1.709   1.656   4.999  3.0165 -0.9536 -1.0728
  113MOL     H929353   1.544   1.361   4.817  0.8408 -1.3643 -2.2191
  113MOL    H1029354   1.607   1.251   4.950 -1.2044  0.9840  0.6584
  113MOL    H1129355   1.692   1.287   4.809 -0.0635 -0.8680  1.4966
  113MOL    H1229356   1.864   1.519   5.065  2.1920 -0.6852  0.6798
  113MOL    H1329357   1.889   1.376   4.976 -0.3183  0.4053  0.4160
  113MOL    H1429358   1.441   1.568   4.878  1.3487 -1.3815  1.1538
  113MOL    C1529359   1.790   1.345   5.180  0.0653 -0.1419  0.0484
  113MOL    C1629360   1.719   1.432   5.283 -0.4060  0.0445  0.2991
  113MOL    C1729361   1.599   1.414   5.339 -0.2412  0.9894 -0.1011
  113MOL    C1829362   1.513   1.297   5.299  0.4268  0.1869  0.1794
  113MOL    C1929363   1.535   1.498   5.455  0.0044  0.6167  0.6468
  113MOL    H2029364   1.883   1.320   5.231  0.4433  0.9250 -0.0867
  113MOL    H2129365   1.737   1.252   5.165 -0.5196  0.2482 -0.3221
  113MOL    H2229366   1.767   1.520   5.322 -1.4129  1.2908 -1.2366
  113MOL    H2329367   1.555   1.210   5.348  0.9601 -1.0006 -2.3043
  113MOL    H2429368   1.525   1.270   5.194 -0.2259  1.4203 -0.2282
  113MOL    H2529369   1.406   1.306   5.318  0.9489  0.8953  2.9519
  113MOL    H2629370   1.466   1.559   5.396 -1.2470 -2.1471 -0.8417
  113MOL    H2729371   1.613   1.561   5.498 -1.3549 -0.2549  4.5743
  113MOL    C2829372   1.467   1.410   5.558 -0.1200 -1.1175  0.2548
  113MOL    C2929373   1.420   1.490   5.674 -0.6969 -0.1839  0.2681
  113MOL    C3029374   1.289   1.485   5.714 -0.9421 -0.3240 -0.3913
  113MOL    C3129375   1.182   1.389   5.669 -0.1101 -0.0376 -0.3664
  113MOL    C3229376   1.237   1.587   5.811  0.6582  0.8211  0.2712
  113MOL    H3329377   1.529   1.332   5.602  2.6390  1.2707  0.7699
  113MOL    H3429378   1.376   1.379   5.506  0.2134  1.3061 -1.8655
  113MOL    H3529379   1.498   1.555   5.710 -0.7056  0.7567 -1.3747
  113MOL    H3629380   1.114   1.442   5.602 -1.6234 -0.5909  0.6721
  113MOL    H3729381   1.127   1.342   5.751  0.3170  0.8615  0.4572
  113MOL    H3829382   1.224   1.301   5.623  2.9825  1.3565 -0.3000
  113MOL    H3929383   1.191   1.531   5.892  0.7891  0.3372  0.0120
  113MOL    H4029384   1.154   1.635   5.759  0.9694  1.4335  0.3329
  113MOL    C4129385   1.332   1.697   5.865  0.3228  0.0760  0.0843
  113MOL    C4229386   1.263   1.807   5.942  0.1520 -0.0514  0.0635
  113MOL    C4329387   1.272   1.939   5.937  0.3153 -0.6892 -0.7834
  113MOL    C4429388   1.351   2.014   5.825 -0.2223  0.8253 -0.2774
  113MOL    C4529389   1.197   2.031   6.038  0.8365 -0.5274 -0.2171
  113MOL    H4629390   1.381   1.749   5.782  0.1335 -0.6572 -0.4913
  113MOL    H4729391   1.421   1.667   5.921  0.9088  0.5030 -0.6131
  113MOL    H4829392   1.229   1.769   6.038 -1.4843  0.9410 -0.1073
  113MOL    H4929393   1.438   1.956   5.792  0.7389  2.1839 -0.1459
  113MOL    H5029394   1.383   2.110   5.865 -1.7705  0.4122  2.0499
  113MOL    H5129395   1.287   2.017   5.736 -0.0240 -1.9552 -0.5810
  113MOL    H5229396   1.113   1.983   6.089  0.7694  0.7325  0.8608
  113MOL    H5329397   1.143   2.102   5.977  2.0198  0.9686  0.4554
  113MOL    C5429398   1.284   2.099   6.144 -0.8203 -0.2115  0.0702
  113MOL    C5529399   1.209   2.174   6.249  0.4556  0.4593  1.1117
  113MOL    C5629400   1.188   2.137   6.375  0.4942  0.6130 -0.9143
  113MOL    C5729401   1.265   2.019   6.440 -0.1092  0.2573  0.6501
  113MOL    C5829402   1.089   2.207   6.460  0.5204 -0.4286  0.2760
  113MOL    H5929403   1.352   2.165   6.091 -1.7411  1.6446  1.1684
  113MOL    H6029404   1.345   2.022   6.191 -0.4578  1.2006  1.9710
  113MOL    H6129405   1.152   2.251   6.199  1.8406  1.2545  0.7196
  113MOL    H6229406   1.372   2.032   6.424 -0.0285  1.6954  2.2057
  113MOL    H6329407   1.230   1.924   6.398  0.6752 -0.7998  2.3458
  113MOL    H6429408   1.237   2.014   6.545 -2.1674 -0.1414  0.1000
  113MOL    H6529409   1.046   2.292   6.408 -0.3582 -0.8790  0.2592
  113MOL    H6629410   1.152   2.250   6.538  1.8070  0.8279 -1.4210
  113MOL    C6729411   0.975   2.119   6.506  0.8187 -1.0156 -0.3544
  113MOL    C6829412   0.864   2.199   6.558  0.1768  0.4829 -0.0359
  113MOL    C6929413   0.829   2.232   6.683  0.0282 -0.9505 -0.2539
  113MOL    C7029414   0.901   2.179   6.806 -0.3779  0.7817  1.2584
  113MOL    C7129415   0.724   2.343   6.704  0.1029  0.2210 -0.0912
  113MOL    H7229416   1.016   2.055   6.584  0.7457 -0.0346  0.5058
  113MOL    H7329417   0.937   2.059   6.424  0.1982  2.0433 -2.3896
  113MOL    H7429418   0.806   2.248   6.480 -1.9150  1.3957  2.0338
  113MOL    H7529419   0.894   2.070   6.815 -1.2869  0.9333  2.6185
  113MOL    H7629420   0.866   2.241   6.889 -1.8315  1.3372  0.2458
  113MOL    H7729421   1.006   2.205   6.799  0.0859 -1.7056 -2.4795
  113MOL    H7829422   0.682   2.373   6.608 -0.5724 -1.1249 -0.2292
  113MOL    H7929423   0.768   2.439   6.732 -1.2631  1.0089 -0.5893
  113MOL    C8029424   0.619   2.297   6.810  0.1025 -0.2745 -0.2989
  113MOL    C8129425   0.503   2.394   6.806  0.0278 -0.1156  0.1080
  113MOL    C8229426   0.394   2.389   6.733  0.8157 -0.6782  0.8922
  113MOL    C8329427   0.373   2.290   6.614 -0.5489 -0.4070 -0.2054
  113MOL    C8429428   0.285   2.500   6.730  0.0269  0.1310 -0.7999
  113MOL    H8529429   0.653   2.272   6.911 -1.7510  0.6926  0.5872
  113MOL    H8629430   0.584   2.203   6.768 -1.5856 -1.0243  2.6576
  113MOL    H8729431   0.517   2.472   6.879 -0.3291 -0.5860  0.6912
  113MOL    H8829432   0.314   2.212   6.662  1.5735 -1.8513  0.1325
  113MOL    H8929433   0.472   2.264   6.578  0.7185 -0.9601  3.5216
  113MOL    H9029434   0.314   2.331   6.532 -1.1071  1.1210  0.9427
  113MOL    H9129435   0.266   2.522   6.836 -0.4439 -0.8703 -0.6721
  113MOL    H9229436   0.192   2.451   6.699 -0.9259  1.0514  0.5327
  113MOL    C9329437   0.314   2.626   6.653 -0.2420  0.0322 -0.1314
  113MOL    C9429438   0.359   2.593   6.513 -0.2377  0.3399  0.1699
  113MOL    C9529439   0.482   2.611   6.464 -0.1537  0.3424 -0.3469
  113MOL    C9629440   0.596   2.668   6.543  0.1464  0.0706  0.9647
  113MOL    C9729441   0.521   2.572   6.316 -0.1060 -0.4488 -0.3209
  113MOL    H9829442   0.383   2.688   6.711 -1.0732 -0.1840  1.1164
  113MOL    H9929443   0.229   2.695   6.651 -1.0126 -0.8743  0.8456
  113MOL   H10029444   0.287   2.557   6.441  0.0642  2.0619 -1.0402
  113MOL   H10129445   0.616   2.602   6.628  0.7660 -1.8356 -0.6456
  113MOL   H10229446   0.576   2.770   6.578 -2.4848  0.4472 -1.4505
  113MOL   H10329447   0.685   2.680   6.481 -0.0189  0.2489  0.7622
  113MOL   H10429448   0.578   2.661   6.286  0.7935 -0.3436  1.6297
  113MOL   H10529449   0.435   2.558   6.251  0.8493 -0.0034 -1.7247
  113MOL   C10629450   0.615   2.452   6.306  0.3843  0.0695 -0.5934
  113MOL   C10729451   0.706   2.457   6.179 -0.0283  0.3657  1.0571
  113MOL   C10829452   0.709   2.379   6.069  0.2185 -0.0118 -0.3718
  113MOL   C10929453   0.637   2.249   6.053 -0.0965  0.0340 -0.4388
  113MOL   C11029454   0.810   2.411   5.958  0.2410 -0.2155  0.5257
  113MOL   H11129455   0.558   2.359   6.315  2.2156 -1.1002 -0.7916
  113MOL   H11229456   0.686   2.463   6.388 -0.5482  0.2762  0.1861
  113MOL   H11329457   0.773   2.542   6.182 -1.5913  1.9096 -3.3420
  113MOL   H11429458   0.564   2.244   6.133 -1.0404  3.9321 -0.9453
  113MOL   H11529459   0.706   2.165   6.060 -1.2540 -0.7435  2.0689
  113MOL   H11629460   0.582   2.256   5.959 -1.3644 -0.2285  0.2795
  113MOL   H11729461   0.859   2.504   5.987 -1.1000  1.3459 -1.9172
  113MOL   H11829462   0.766   2.442   5.862  2.0714 -0.7027 -0.4814
  113MOL   C11929463   0.917   2.302   5.938 -0.0130 -0.3527 -0.6696
  113MOL   C12029464   1.015   2.351   5.833  0.4022  0.2455  0.2310
  113MOL   C12129465   1.122   2.429   5.861 -0.0768  0.3762 -0.7784
  113MOL   C12229466   1.160   2.471   6.007  0.0748 -0.4743  0.1681
  113MOL   C12329467   1.221   2.481   5.755  0.4122  0.0053  0.6837
  113MOL   H12429468   0.859   2.221   5.894 -0.8874 -1.5604  2.5131
  113MOL   H12529469   0.968   2.270   6.029  2.6471 -0.8190 -2.2674
  113MOL   H12629470   0.996   2.318   5.732  0.0245 -0.2677  0.4695
  113MOL   H12729471   1.253   2.425   6.040  0.9954  0.4050 -1.1406
  113MOL   H12829472   1.083   2.444   6.079  0.5414  1.3515  1.3816
  113MOL   H12929473   1.171   2.578   6.021 -0.8837 -0.2526 -0.6597
  113MOL   H13029474   1.313   2.425   5.736  0.3113 -0.4248  1.4708
  113MOL   H13129475   1.260   2.580   5.777 -1.6275  0.4467  2.4860
  113MOL   C13229476   1.162   2.501   5.615 -0.6348 -0.1218 -0.1094
  113MOL   C13329477   1.257   2.577   5.529  0.1478  0.5093  0.4287
  113MOL   C13429478   1.267   2.711   5.519 -0.3485 -0.0582  0.7829
  113MOL   C13529479   1.168   2.809   5.572 -0.0985 -0.3938  0.0741
  113MOL   C13629480   1.372   2.774   5.429  0.0510 -0.0309  0.0588
  113MOL   H13729481   1.066   2.552   5.622  0.7524  2.8019 -1.5722
  113MOL   H13829482   1.146   2.404   5.568 -0.7765 -0.2129  0.1251
  113MOL   H13929483   1.328   2.509   5.484  0.0667  0.6923  0.0235
  113MOL   H14029484   1.130   2.770   5.667 -0.3020  0.9265  0.5498
  113MOL   H14129485   1.077   2.814   5.511  0.0901  1.2619 -0.0962
  113MOL   H14229486   1.214   2.907   5.585  0.2741 -0.6253  0.4673
  113MOL   H14329487   1.331   2.851   5.363  0.0519 -1.1318 -1.2397
  113MOL   H14429488   1.414   2.688   5.376  2.1198 -0.6260  2.5967
  113MOL   C14529489   1.479   2.840   5.524  0.0646 -0.3689 -0.1433
  113MOL   C14629490   1.620   2.869   5.470  0.3499  0.2809 -0.2509
  113MOL   C14729491   1.698   2.968   5.506 -0.1705 -0.1594 -0.4873
  113MOL   C14829492   1.662   3.075   5.610  0.4774 -0.1566  0.0513
  113MOL   C14929493   1.827   2.993   5.426  0.4660 -0.8404  0.1342
  113MOL   H15029494   1.476   2.787   5.618 -2.1301 -0.3292 -0.1768
  113MOL   H15129495   1.438   2.938   5.549 -0.9089 -1.1395  1.2959
  113MOL   H15229496   1.657   2.805   5.391  1.8346  0.0792  0.5983
  113MOL   H15329497   1.659   3.177   5.571 -1.5552 -0.6655 -1.1924
  113MOL   H15429498   1.742   3.083   5.684 -0.4949  1.7580  0.9505
  113MOL   H15529499   1.573   3.056   5.670 -0.4519  1.6115 -0.7177
  113MOL   H15629500   1.833   3.097   5.393 -0.5739  0.0916  2.7411
  113MOL   H15729501   1.812   2.943   5.330  0.7698 -2.1413  0.7489
  113MOL   C15829502   1.948   2.946   5.495  0.5363  0.3032  0.3594
  113MOL   C15929503   2.050   2.895   5.389 -0.3001 -0.2779  0.4827
  113MOL   C16029504   2.124   2.972   5.305  0.1369 -0.3433 -0.2511
  113MOL   C16129505   2.117   3.122   5.276  0.0269 -0.2427 -0.0105
  113MOL   C16229506   2.222   2.894   5.219 -0.1285 -0.4886 -0.0615
  113MOL   H16329507   1.920   2.862   5.560  0.9773 -0.7199 -0.7582
  113MOL   H16429508   1.983   3.021   5.565  0.3580  2.0855 -1.4304
  113MOL   H16529509   2.065   2.788   5.386 -1.3131 -0.5103  2.3789
  113MOL   H16629510   2.021   3.164   5.307  0.0237 -1.0536  1.1185
  113MOL   H16729511   2.133   3.126   5.169  3.7912 -1.1934  0.4424
  113MOL   H16829512   2.190   3.191   5.317  1.4702 -1.8505  0.1719
  113MOL   H16929513   2.212   2.910   5.111  1.4296 -0.9540 -0.2985
  113MOL   H17029514   2.200   2.787   5.219 -2.2172 -0.0921 -1.3699
  113MOL   C17129515   2.374   2.913   5.271 -0.7890 -0.1105  0.2980
  113MOL   C17229516   2.439   3.039   5.214 -0.3888  0.1409 -0.0795
  113MOL   C17329517   2.570   3.067   5.184  0.8479  0.7280 -0.6779
  113MOL   C17429518   2.682   2.972   5.192  0.7370  0.7655 -0.0276
  113MOL   C17529519   2.605   3.211   5.126  0.4313  0.1667 -0.4605
  113MOL   H17629520   2.426   2.827   5.227  0.0741  0.1998  0.7071
  113MOL   H17729521   2.382   2.914   5.379  0.3941 -1.1160  0.2320
  113MOL   H17829522   2.372   3.124   5.204  0.5043  0.5885 -2.5356
  113MOL   H17929523   2.740   2.964   5.100 -0.1931 -0.5008 -0.5164
  113MOL   H18029524   2.648   2.875   5.228 -1.5344  0.1392 -3.6237
  113MOL   H18129525   2.757   3.011   5.261 -1.7046 -0.2483  3.2821
  113MOL   H18229526   2.517   3.233   5.065 -1.5933  0.2777  2.4026
  113MOL   H18329527   2.693   3.208   5.062  0.7409 -2.5085  0.0214
  113MOL   C18429528   2.595   3.327   5.237  0.3229  0.0275  0.4548
  113MOL   C18529529   2.603   3.468   5.182  0.1452  0.4744  0.3598
  113MOL   C18629530   2.511   3.561   5.145 -0.6845  0.0432  0.4975
  113MOL   C18729531   2.365   3.530   5.147 -0.8369  0.2287 -0.1044
  113MOL   C18829532   2.550   3.706   5.101  0.1883 -0.6385  0.1847
  113MOL   H18929533   2.658   3.311   5.325 -1.8010  0.7884  2.1786
  113MOL   H19029534   2.496   3.308   5.278  0.3327  1.9891  1.4786
  113MOL   H19129535   2.708   3.491   5.175  0.2782 -0.4147 -0.6745
  113MOL   H19229536   2.341   3.517   5.042  0.8175  2.2590 -0.7679
  113MOL   H19329537   2.306   3.613   5.185  0.1219 -0.3992  2.9519
  113MOL   H19429538   2.341   3.445   5.211  1.7634  0.4715  1.2776
  113MOL   H19529539   2.657   3.717   5.113 -0.1960  1.4283  2.1285
  113MOL   H19629540   2.511   3.776   5.176  0.5469 -2.0543  1.7041
  113MOL   C19729541   2.508   3.750   4.961 -0.1106  0.5869  0.0341
  113MOL   C19829542   2.555   3.891   4.932 -0.5345  0.4917  0.2559
  113MOL   C19929543   2.660   3.923   4.855  0.5486  0.0618  0.2897
  113MOL   C20029544   2.759   3.824   4.792 -0.5057  0.0864  0.3042
  113MOL   C20129545   2.679   4.073   4.822 -0.4556  0.1327  0.0688
  113MOL   H20229546   2.401   3.750   4.941  0.0431 -2.8572 -1.0842
  113MOL   H20329547   2.551   3.681   4.889 -0.1064  0.5877  0.0366
  113MOL   H20429548   2.499   3.973   4.976 -0.5355  0.7607 -0.2398
  113MOL   H20529549   2.861   3.842   4.823  0.9511 -4.3335 -1.5948
  113MOL   H20629550   2.762   3.839   4.684 -0.6648  0.6395  0.3715
  113MOL   H20729551   2.731   3.721   4.815 -0.4032 -0.2149 -0.8931
  113MOL   H20829552   2.607   4.132   4.878 -0.4692  1.3232 -1.1757
  113MOL   H20929553   2.658   4.093   4.717 -1.2634  2.4525  0.6629
  113MOL   C21029554   2.827   4.115   4.858 -0.4047  0.4050 -0.0015
  113MOL   C21129555   2.856   4.262   4.831 -0.5734  0.4676  0.2926
  113MOL   C21229556   2.963   4.335   4.869 -0.0553 -0.2997  0.5111
  113MOL   C21329557   3.064   4.278   4.971 -0.5030 -0.2861  0.6363
  113MOL   C21429558   2.999   4.475   4.829 -0.2820  0.1311 -0.1023
  113MOL   H21529559   2.896   4.059   4.794  0.0537 -1.3496  1.9512
  113MOL   H21629560   2.863   4.084   4.957  1.0306  1.7099 -0.0953
  113MOL   H21729561   2.779   4.306   4.769  0.9502  0.0520 -1.9796
  113MOL   H21829562   3.164   4.260   4.931 -1.0425  0.8755 -1.2982
  113MOL   H21929563   3.019   4.188   5.013 -0.2273 -1.4106 -1.3659
  113MOL   H22029564   3.082   4.342   5.057  1.1136  0.1020  0.0207
  113MOL   H22129565   3.045   4.530   4.910 -1.0557  3.1544 -1.6358
  113MOL   H22229566   2.915   4.526   4.781  0.3809 -0.5453 -2.0530
  113MOL   C22329567   3.101   4.475   4.716  0.1784 -0.5021  1.0774
  113MOL   C22429568   3.126   4.611   4.664 -0.6729 -0.2990  0.7676
  113MOL   C22529569   3.242   4.682   4.667  0.1332  0.2859 -0.0920
  113MOL   C22629570   3.381   4.629   4.712  0.8862 -0.3869 -0.1298
  113MOL   C22729571   3.241   4.824   4.618 -0.1346 -0.4731 -0.3263
  113MOL   H22829572   3.058   4.408   4.641  0.5343  0.3285  0.1196
  113MOL   H22929573   3.194   4.429   4.752  1.0378  0.6441  0.3734
  113MOL   H23029574   3.036   4.664   4.636 -0.2617  0.3068  0.5654
  113MOL   H23129575   3.459   4.658   4.642 -0.6307 -0.6087 -1.9707
  113MOL   H23229576   3.370   4.525   4.742  2.2938 -0.5526 -0.1660
  113MOL   H23329577   3.409   4.676   4.806 -0.8585  1.3640 -0.4272
  113MOL   H23429578   3.308   4.885   4.678  1.0762 -2.2291  0.1572
  113MOL   H23529579   3.146   4.877   4.625  0.5821  0.8647 -0.5386
  113MOL   C23629580   3.287   4.838   4.472  0.2233  0.3415  0.7596
  113MOL   C23729581   3.174   4.894   4.386  0.1824  0.0180  0.9199
  113MOL   C23829582   3.111   4.823   4.293  0.2143  0.0632  0.7887
  113MOL   C23929583   3.135   4.673   4.267  0.2869 -0.0409  0.0124
  113MOL   C24029584   3.000   4.883   4.202 -0.4978 -0.0609 -0.0535
  113MOL   H24129585   3.340   4.749   4.437 -0.9435  0.0729 -0.3603
  113MOL   H24229586   3.365   4.914   4.465 -1.4317  1.9089 -1.2923
  113MOL   H24329587   3.155   4.999   4.397 -0.8770  0.0863 -1.2816
  113MOL   H24429588   3.181   4.658   4.170  1.5306  0.1738  0.5546
  113MOL   H24529589   3.041   4.618   4.261  0.8709 -0.8013 -2.7323
  113MOL   H24629590   3.190   4.617   4.343 -1.9529 -1.0658  0.9285
  113MOL   H24729591   2.997   4.992   4.193  1.9360 -0.0355 -0.9215
  113MOL   H24829592   2.899   4.861   4.237 -0.0219  0.3102  1.6064
  113MOL   C24929593   3.042   4.854   4.051 -0.5894 -0.1745 -0.7166
  113MOL   C25029594   2.949   4.915   3.951  0.2758 -0.4094 -0.3112
  113MOL   C25129595   2.982   4.996   3.845 -0.0525 -0.1498  0.0418
  113MOL   C25229596   3.123   5.030   3.809  0.0156 -0.6142  0.0391
  113MOL   C25329597   2.878   5.061   3.754  0.0276  0.4764  0.4235
  113MOL   H25429598   3.031   4.750   4.021  0.8515  0.2532 -2.8903
  113MOL   H25529599   3.147   4.874   4.027 -0.5798 -2.2014 -2.5361
  113MOL   H25629600   2.846   4.892   3.974 -0.0209 -0.9314 -2.1146
  113MOL   H25729601   3.142   5.123   3.862 -0.7233  0.4433 -1.4957
  113MOL   H25829602   3.134   5.062   3.706 -0.5363 -1.1740 -0.2009
  113MOL   H25929603   3.205   4.966   3.841  1.8177  1.4663 -0.3569
  113MOL   H26029604   2.907   5.020   3.657  0.2094  0.5826  0.4320
  113MOL   H26129605   2.881   5.168   3.736 -2.0582  0.2811 -1.2664
  113MOL   H26229606   2.777   5.028   3.777 -0.2837 -0.1446 -1.7005
  114MOL     C129607   2.062   1.005   0.776 -0.0864  0.2153 -0.3230
  114MOL     C229608   2.179   0.968   0.674 -0.5410 -0.0014  0.7032
  114MOL     C329609   2.185   0.855   0.604 -0.2606 -0.1995 -0.2722
  114MOL     C429610   2.082   0.749   0.606  0.9068  0.1187  0.0421
  114MOL     C529611   2.309   0.827   0.517 -0.0225  0.6524 -0.0283
  114MOL     H629612   2.010   1.096   0.745 -1.7474 -0.3394  0.8015
  114MOL     H729613   1.981   0.934   0.789 -0.8422  1.3461  1.2051
  114MOL     H829614   2.264   1.035   0.668  0.8519 -1.4590  3.3557
  114MOL     H929615   2.098   0.657   0.550 -0.3955 -0.4080  0.4970
  114MOL    H1029616   1.984   0.787   0.578  1.4590  0.7563 -1.0373
  114MOL    H1129617   2.068   0.709   0.707 -0.8947  1.9388  0.5584
  114MOL    H1229618   2.293   0.725   0.481 -2.9538  0.7999  0.6778
  114MOL    H1329619   2.396   0.827   0.582  0.4095  0.5630 -0.5983
  114MOL    H1429620   2.107   1.007   0.875  0.8816 -1.8721 -0.7033
  114MOL    C1529621   2.320   0.928   0.403 -0.7443  0.2907 -0.3694
  114MOL    C1629622   2.444   0.908   0.310 -0.0500  0.5542 -0.0508
  114MOL    C1729623   2.550   0.987   0.292  0.2354 -0.2272  0.1052
  114MOL    C1829624   2.574   1.121   0.352  0.2896 -0.0607 -0.2757
  114MOL    C1929625   2.664   0.932   0.202  0.3799  0.4426  0.4435
  114MOL    H2029626   2.329   1.027   0.449  2.0711 -0.4305  0.7689
  114MOL    H2129627   2.227   0.919   0.347 -1.0597  2.1556 -0.1878
  114MOL    H2229628   2.439   0.812   0.260 -1.4679  0.3753  0.4269
  114MOL    H2329629   2.683   1.120   0.357  0.3248 -2.1644 -1.0101
  114MOL    H2429630   2.544   1.112   0.457 -0.0963  0.8134 -0.3040
  114MOL    H2529631   2.542   1.211   0.300  1.2195  0.0800 -0.6068
  114MOL    H2629632   2.689   1.017   0.139 -0.0792  1.0718  1.0975
  114MOL    H2729633   2.622   0.850   0.145  0.3769  1.1188 -0.5440
  114MOL    C2829634   2.789   0.879   0.272 -0.6503  0.0785  0.5371
  114MOL    C2929635   2.868   0.791   0.176 -0.5898  0.5825  0.2787
  114MOL    C3029636   2.871   0.653   0.180  0.2039  0.5015 -0.6876
  114MOL    C3129637   2.791   0.570   0.278 -0.4990 -0.1019 -0.5863
  114MOL    C3229638   2.947   0.575   0.071 -0.4284  0.0830  0.7058
  114MOL    H3329639   2.771   0.823   0.364  1.9822 -0.7380  0.5817
  114MOL    H3429640   2.861   0.955   0.303  1.5242 -0.9897 -1.7399
  114MOL    H3529641   2.921   0.862   0.114 -1.1065 -0.4435 -1.3578
  114MOL    H3629642   2.697   0.620   0.301 -1.9547 -2.2817 -1.5792
  114MOL    H3729643   2.862   0.553   0.358  0.4439  0.5972 -1.2576
  114MOL    H3829644   2.762   0.471   0.241  1.1671 -1.1487  0.8536
  114MOL    H3929645   2.951   0.631   7.859  1.5399 -1.0127  0.1179
  114MOL    H4029646   2.890   0.487   0.041  3.0022 -1.3020 -2.0424
  114MOL    C4129647   3.085   0.536   0.112  0.8886 -0.2328  0.6352
  114MOL    C4229648   3.158   0.474   7.878 -0.5853 -0.0342  0.0968
  114MOL    C4329649   3.188   0.344   7.861 -0.2542 -0.4932  0.7682
  114MOL    C4429650   3.157   0.231   0.082 -0.1187  0.1522  0.9727
  114MOL    C4529651   3.246   0.290   7.732 -0.3194 -0.1212  0.3746
  114MOL    H4629652   3.085   0.471   0.199 -0.1753 -1.7610 -0.4741
  114MOL    H4729653   3.147   0.621   0.141  0.4041  1.0697 -1.9979
  114MOL    H4829654   3.187   0.539   7.798 -1.1856  2.9636  2.2268
  114MOL    H4929655   3.097   0.149   0.043  1.9979  0.1089 -2.3333
  114MOL    H5029656   3.122   0.267   0.179  1.5964  2.6220  0.7170
  114MOL    H5129657   3.248   0.183   0.120  0.5758  1.8161  1.4467
  114MOL    H5229658   3.344   0.242   7.742 -1.0074 -1.5577  0.2440
  114MOL    H5329659   3.276   0.376   7.672 -2.7740  0.6199  0.1709
  114MOL    C5429660   3.168   0.189   7.648  0.1665 -0.5119  0.4971
  114MOL    C5529661   3.253   0.145   7.531  0.0895  0.5228  0.3096
  114MOL    C5629662   3.282   0.020   7.482 -0.4961  0.0828  0.3635
  114MOL    C5729663   3.212   7.785   7.526  0.5741  0.3050 -0.5342
  114MOL    C5829664   3.381   7.868   7.367  0.0749 -0.1594  0.2949
  114MOL    H5929665   3.074   0.231   7.611  0.2586  1.8783  2.9140
  114MOL    H6029666   3.155   0.100   7.710  1.1277  0.7766  2.5774
  114MOL    H6129667   3.302   0.227   7.480  1.9278 -1.1053 -0.6111
  114MOL    H6229668   3.275   7.718   7.584  0.0944 -0.4913 -0.9214
  114MOL    H6329669   3.165   7.722   7.451  0.7646 -0.0254 -0.3777
  114MOL    H6429670   3.128   7.821   7.585  0.2246 -0.3116 -0.6516
  114MOL    H6529671   3.417   7.767   7.387 -0.9038 -0.6088 -0.1933
  114MOL    H6629672   3.464   0.049   7.398  0.3521 -1.4302  2.2431
  114MOL    C6729673   3.334   0.017   7.222 -0.2514 -0.5877  0.4327
  114MOL    C6829674   3.438   7.857   7.119 -0.2577  0.0812 -0.2466
  114MOL    C6929675   3.476   7.735   7.087 -0.4379 -0.0288  0.4435
  114MOL    C7029676   3.413   7.607   7.144 -0.5031  0.3269 -0.4413
  114MOL    C7129677   3.590   7.710   6.991 -0.8448  0.3983 -0.0401
  114MOL    H7229678   3.297   0.115   7.192  0.0474 -0.3403  0.8669
  114MOL    H7329679   3.250   7.830   7.219 -2.5059  2.0457  0.5673
  114MOL    H7429680   3.494   0.060   7.084  0.1144 -0.5858 -1.3061
  114MOL    H7529681   3.334   7.633   7.214  1.6456  1.9074  1.4629
  114MOL    H7629682   3.496   7.549   7.184 -1.1203 -1.1999 -1.3162
  114MOL    H7729683   3.379   7.545   7.061 -0.1807 -2.4657  1.4430
  114MOL    H7829684   3.645   7.618   7.007  1.8463  1.9268 -0.2174
  114MOL    H7929685   3.666   7.787   7.002 -0.8956  0.3484  0.6749
  114MOL    C8029686   3.540   7.706   6.848  0.1013  0.0807 -0.0067
  114MOL    C8129687   3.648   7.668   6.749 -0.9316 -0.1091  0.2076
  114MOL    C8229688   3.648   7.698   6.616 -0.1208  0.4199 -0.3546
  114MOL    C8329689   3.542   7.779   6.549  0.1556  0.4979 -0.1051
  114MOL    C8429690   3.751   7.654   6.517  0.0115  0.7552 -0.7314
  114MOL    H8529691   3.505   7.806   6.821 -0.8518 -0.1161  0.4498
  114MOL    H8629692   3.454   7.644   6.824  0.2520 -1.6407  3.6956
  114MOL    H8729693   3.729   7.611   6.793 -0.6166  0.8940  0.9246
  114MOL    H8829694   3.440   7.775   6.587  0.7829  1.4262  1.7795
  114MOL    H8929695   3.539   7.746   6.445 -0.3168  0.6995 -0.1557
  114MOL    H9029696   3.574   0.000   6.539 -0.0709  0.6835  1.0235
  114MOL    H9129697   3.707   7.583   6.447 -2.3284  2.2911 -0.8593
  114MOL    H9229698   3.823   7.593   6.571 -0.1260  1.3606  0.1333
  114MOL    C9329699   3.820   7.756   6.429 -0.0688 -0.2902 -0.4923
  114MOL    C9429700   3.923   7.687   6.338 -0.4422 -0.0069 -0.7344
  114MOL    C9529701   3.956   7.727   6.217 -0.3080 -0.1141  0.6005
  114MOL    C9629702   3.898   7.843   6.143  0.7258  0.0156  0.4021
  114MOL    C9729703   4.070   7.658   6.139 -0.4373  0.7322 -0.0846
  114MOL    H9829704   3.887   7.816   6.491 -0.9061  0.1390  0.0030
  114MOL    H9929705   3.760   7.826   6.371 -1.3790 -2.1626 -1.4157
  114MOL   H10029706   3.972   7.599   6.378 -3.0163 -1.9360 -1.6957
  114MOL   H10129707   3.977   0.029   6.113 -0.1724 -0.1161 -2.4008
  114MOL   H10229708   3.828   0.024   6.197  0.2578 -0.5807  0.5028
  114MOL   H10329709   3.831   7.806   6.065 -1.9523  0.1432  2.5865
  114MOL   H10429710   4.140   7.738   6.115  1.1896 -1.2791 -2.3431
  114MOL   H10529711   4.029   7.617   6.046  0.0984 -2.8585  1.1901
  114MOL   C10629712   4.153   7.548   6.211 -0.7429  0.0558 -0.2351
  114MOL   C10729713   4.276   7.517   6.127 -0.1252 -0.2999  0.2742
  114MOL   C10829714   4.323   7.393   6.098 -0.0768 -0.4582 -0.1459
  114MOL   C10929715   4.256   7.263   6.139  0.0755  0.1148  0.3316
  114MOL   C11029716   4.451   7.372   6.018 -0.2547  0.6739 -0.7677
  114MOL   H11129717   4.089   7.461   6.229  0.7859 -0.7677  1.3913
  114MOL   H11229718   4.183   7.566   6.314  2.4309 -2.7552 -0.5602
  114MOL   H11329719   4.321   7.602   6.077  0.0957 -1.0116 -0.7495
  114MOL   H11429720   4.265   7.193   6.056 -1.3268  0.3637 -0.0445
  114MOL   H11529721   4.153   7.272   6.173  0.5623  2.5768  1.2522
  114MOL   H11629722   4.308   7.228   6.229 -1.4272 -0.7219  0.9027
  114MOL   H11729723   4.481   7.471   5.984  0.6489  0.2301 -1.2676
  114MOL   H11829724   4.434   7.310   5.930 -1.6556  2.8048 -2.0446
  114MOL   C11929725   4.560   7.308   6.104 -0.4177  0.0937  0.0475
  114MOL   C12029726   4.693   7.278   6.028  0.0834 -0.3361 -0.4419
  114MOL   C12129727   4.793   7.199   6.078  0.0616  0.3223 -0.0201
  114MOL   C12229728   4.777   7.122   6.212 -0.3433 -0.1498  0.3644
  114MOL   C12329729   4.931   7.176   6.011 -0.1892  0.1932 -0.5287
  114MOL   H12429730   4.517   7.214   6.139 -2.0309  1.0288  0.6730
  114MOL   H12529731   4.578   7.365   6.195  2.6376  0.1252 -0.5514
  114MOL   H12629732   4.710   7.337   5.939 -0.9847 -0.0472 -0.4547
  114MOL   H12729733   4.678   7.131   6.256  0.6591  2.6003  2.1942
  114MOL   H12829734   4.858   7.141   6.282  0.3359 -1.1605 -0.1348
  114MOL   H12929735   4.781   7.015   6.195  1.0848  0.2945 -2.5803
  114MOL   H13029736   4.938   7.070   5.988 -0.4795  0.3806 -1.5110
  114MOL   H13129737   5.004   7.202   6.088 -0.5261 -2.8304  0.8765
  114MOL   C13229738   4.957   7.262   5.889 -0.6584 -0.4532  0.0794
  114MOL   C13329739   5.093   7.222   5.829 -0.1801 -0.0317  0.5996
  114MOL   C13429740   5.126   7.235   5.699 -0.2302  0.0217 -0.0400
  114MOL   C13529741   5.023   7.283   5.593  0.5816  0.0648  0.2351
  114MOL   C13629742   5.264   7.197   5.647  0.1169 -0.3687  0.8418
  114MOL   H13729743   4.965   7.366   5.917  1.6071 -1.1071  2.0177
  114MOL   H13829744   4.875   7.249   5.817 -1.0527  0.3846  0.3730
  114MOL   H13929745   5.168   7.180   5.895  0.9088 -3.3030 -2.5519
  114MOL   H14029746   5.002   7.198   5.527 -3.1826 -0.2625  1.7062
  114MOL   H14129747   5.061   7.361   5.527 -2.0517  0.1220 -1.3117
  114MOL   H14229748   4.921   7.313   5.619 -0.4363 -0.1864 -3.1212
  114MOL   H14329749   5.268   7.158   5.545 -1.9717  0.6392  0.3624
  114MOL   H14429750   5.290   7.115   5.713 -1.9707 -0.0765  2.0467
  114MOL   C14529751   5.370   7.300   5.681 -0.4976 -0.3426  0.3137
  114MOL   C14629752   5.372   7.421   5.588 -0.4229  0.2891  0.2947
  114MOL   C14729753   5.469   7.518   5.593 -0.2804  0.6052  0.2823
  114MOL   C14829754   5.591   7.504   5.679  0.5598  0.4731  0.1531
  114MOL   C14929755   5.469   7.626   5.495 -0.0419 -0.5102 -0.0031
  114MOL   H15029756   5.466   7.248   5.678 -0.3021 -0.1783  2.6321
  114MOL   H15129757   5.363   7.327   5.786  1.4735 -1.8284  0.8612
  114MOL   H15229758   5.292   7.430   5.516  0.1013 -1.7141 -0.5646
  114MOL   H15329759   5.683   7.526   5.624  1.8252  0.5094  2.2281
  114MOL   H15429760   5.596   7.409   5.733 -3.6705  1.2505  2.0741
  114MOL   H15529761   5.584   7.580   5.757  0.9729  2.0101 -1.2809
  114MOL   H15629762   5.500   7.716   5.549  1.4215 -0.3133 -1.1321
  114MOL   H15729763   5.365   7.637   5.464  0.2474 -0.6690 -1.0397
  114MOL   C15829764   5.553   7.596   5.370 -0.2108  0.9128 -1.2850
  114MOL   C15929765   5.519   7.685   5.254 -1.0210  0.0100  0.2145
  114MOL   C16029766   5.469   7.656   5.137 -0.1402  0.7460  0.2357
  114MOL   C16129767   5.407   7.518   5.104 -0.1586  0.4488 -0.0138
  114MOL   C16229768   5.466   7.770   5.024 -0.0755 -0.3531 -0.7148
  114MOL   H16329769   5.553   7.490   5.344  1.2281  0.3993  0.7151
  114MOL   H16429770   5.659   7.622   5.382  0.2981 -0.5435 -2.4773
  114MOL   H16529771   5.561   7.784   5.264  0.1720 -0.6835  2.2127
  114MOL   H16629772   5.444   7.470   5.013  0.4525  0.8622  0.0134
  114MOL   H16729773   5.299   7.536   5.106 -0.1200  0.5346  1.8569
  114MOL   H16829774   5.433   7.442   5.177 -1.3433  0.7869  0.7807
  114MOL   H16929775   5.535   7.735   4.948  0.2562  0.4571 -0.7925
  114MOL   H17029776   5.511   7.860   5.065  1.6327 -0.9736 -1.2161
  114MOL   C17129777   5.325   7.790   4.955 -0.2270  0.0453  0.1536
  114MOL   C17229778   5.321   0.009   4.853 -1.0802 -0.7556 -1.1265
  114MOL   C17329779   5.284   0.140   4.868  0.2487  0.2415 -0.6484
  114MOL   C17429780   5.246   0.190   5.001 -1.5595 -0.0422  0.1129
  114MOL   C17529781   5.293   0.241   4.751  0.7150  0.2302  0.0664
  114MOL   H17629782   5.249   7.812   5.030 -0.8529 -0.9039 -0.1811
  114MOL   H17729783   5.301   7.690   4.918  1.9699 -0.8998  1.1657
  114MOL   H17829784   5.360   7.875   4.754  1.5521 -1.0302 -0.0870
  114MOL   H17929785   5.321   0.164   5.076 -0.2477 -0.4604 -1.3143
  114MOL   H18029786   5.148   0.169   5.044 -0.7649 -0.6565  1.6527
  114MOL   H18129787   5.254   0.298   4.994 -0.7709 -0.2210 -2.4153
  114MOL   H18229788   5.338   0.194   4.664  0.7924  2.4935 -1.1581
  114MOL   H18329789   5.363   0.316   4.786 -1.0159  1.2896  1.3465
  114MOL   C18429790   5.146   0.280   4.723 -0.3579  0.9309  0.4769
  114MOL   C18529791   5.136   0.406   4.638  0.7203  0.0183  0.0743
  114MOL   C18629792   5.026   0.484   4.621  0.2785  0.2629  0.4140
  114MOL   C18729793   4.888   0.442   4.682  0.3450 -0.0227  0.6244
  114MOL   C18829794   5.021   0.623   4.556  0.9924  0.0257 -0.2524
  114MOL   H18929795   5.082   0.294   4.810 -1.5147  0.2216 -0.2327
  114MOL   H19029796   5.091   0.212   4.658 -0.1149  0.9668  0.2351
  114MOL   H19129797   5.231   0.429   4.592  0.9122  2.0779  1.4508
  114MOL   H19229798   4.808   0.474   4.615 -1.3713  1.1633  3.1417
  114MOL   H19329799   4.859   0.501   4.769 -2.6246 -0.6719  0.1393
  114MOL   H19429800   4.875   0.337   4.707  0.7134 -0.3300 -0.4415
  114MOL   H19529801   5.024   0.707   4.626  0.0574  1.0509 -1.4118
  114MOL   H19629802   4.928   0.633   4.500  0.3387 -1.1864  0.6061
  114MOL   C19729803   5.146   0.645   4.464 -0.2528 -0.6672  0.1764
  114MOL   C19829804   5.129   0.762   4.359 -0.4671  1.0406  0.0555
  114MOL   C19929805   5.153   0.895   4.371 -0.3123  0.6873  0.2235
  114MOL   C20029806   5.217   0.962   4.497 -0.3902  0.3684 -0.6833
  114MOL   C20129807   5.110   0.988   4.262  0.6057  0.4532  1.1339
  114MOL   H20229808   5.153   0.549   4.413 -1.3599  0.2964 -1.8806
  114MOL   H20329809   5.236   0.664   4.522  0.6620 -0.8611 -1.1571
  114MOL   H20429810   5.075   0.731   4.271 -1.7834 -0.0996  1.2395
  114MOL   H20529811   5.144   1.032   4.538 -1.1640 -0.4779 -0.6026
  114MOL   H20629812   5.311   1.011   4.472 -0.0567  0.2429  0.3112
  114MOL   H20729813   5.236   0.889   4.575  3.3031 -0.6616 -2.4212
  114MOL   H20829814   5.118   0.944   4.163 -0.8861  0.7901  0.8465
  114MOL   H20929815   5.169   1.080   4.260  2.6445 -0.8426 -0.0751
  114MOL   C21029816   4.961   1.024   4.272  0.0661  0.6764 -0.5151
  114MOL   C21129817   4.858   0.916   4.277  0.0548 -0.3353  0.1131
  114MOL   C21229818   4.775   0.887   4.376  0.2001 -0.8358  0.4946
  114MOL   C21329819   4.774   0.975   4.498 -1.1106  0.7080  0.1866
  114MOL   C21429820   4.683   0.766   4.385  0.5951  0.2815  0.0789
  114MOL   H21529821   4.934   1.068   4.176 -1.4930  1.9168  0.4557
  114MOL   H21629822   4.941   1.101   4.347 -1.3532  0.9329 -1.1266
  114MOL   H21729823   4.861   0.848   4.193  0.3164 -1.9250  1.4013
  114MOL   H21829824   4.874   0.969   4.540 -1.9777 -0.1073  2.2043
  114MOL   H21929825   4.703   0.936   4.572 -1.1574 -0.1950 -0.3265
  114MOL   H22029826   4.741   1.079   4.493 -2.9490  0.1361 -0.0917
  114MOL   H22129827   4.590   0.809   4.421  1.0117  1.6688 -0.4751
  114MOL   H22229828   4.717   0.697   4.462 -1.0793  0.0712  0.6417
  114MOL   C22329829   4.667   0.674   4.262  0.0320  0.0313  0.9876
  114MOL   C22429830   4.775   0.566   4.241 -0.6504 -0.2212  0.2650
  114MOL   C22529831   4.853   0.552   4.132  0.3362  0.3366  0.1194
  114MOL   C22629832   4.847   0.647   4.011 -0.2010 -0.0972 -0.6034
  114MOL   C22729833   4.949   0.440   4.110 -0.2176 -0.6651  0.0004
  114MOL   H22829834   4.639   0.731   4.173  0.8634 -0.9761  0.0601
  114MOL   H22929835   4.573   0.618   4.260  0.3630 -0.5034 -0.5500
  114MOL   H23029836   4.793   0.500   4.325 -1.0818  1.2675  1.5595
  114MOL   H23129837   4.844   0.594   3.916 -2.3948 -1.1265  0.0202
  114MOL   H23229838   4.948   0.684   3.994  0.3468 -0.3952  1.7450
  114MOL   H23329839   4.787   0.737   4.002 -0.7555 -0.5325 -1.3430
  114MOL   H23429840   4.961   0.392   4.208  0.4988  0.8601  0.6695
  114MOL   H23529841   5.042   0.475   4.067 -1.5493  3.0699  0.0190
  114MOL   C23629842   4.916   0.321   4.022  0.4529 -0.1068 -0.4523
  114MOL   C23729843   5.005   0.204   4.048 -0.0295  0.7231 -0.0239
  114MOL   C23829844   5.089   0.145   3.958 -0.1397 -0.2465 -0.4354
  114MOL   C23929845   5.101   0.178   3.806 -0.6113  0.3252 -0.1384
  114MOL   C24029846   5.163   0.019   3.996 -0.3185 -0.4939 -0.3568
  114MOL   H24129847   4.914   0.355   3.919 -0.6127  2.7010  0.4342
  114MOL   H24229848   4.814   0.290   4.044  0.7621  0.1418  1.4634
  114MOL   H24329849   4.999   0.165   4.148 -0.8506 -0.6041 -0.5879
  114MOL   H24429850   5.207   0.203   3.796  0.0207 -0.8303  3.2694
  114MOL   H24529851   5.047   0.263   3.763 -0.6405 -0.8657 -2.5753
  114MOL   H24629852   5.080   0.092   3.742  1.3102  0.6673 -1.2789
  114MOL   H24729853   5.112   7.817   3.949 -0.1426 -0.2992 -0.9014
  114MOL   H24829854   5.150   7.876   4.101  0.2678 -0.0296 -0.1735
  114MOL   C24929855   5.317   0.014   3.963  0.4001 -0.4345 -0.4144
  114MOL   C25029856   5.386   7.780   4.024 -0.1365  0.5018 -0.5092
  114MOL   C25129857   5.402   7.651   3.979 -0.4256  0.3460  0.2122
  114MOL   C25229858   5.359   7.621   3.835 -0.1506  1.1926 -0.3992
  114MOL   C25329859   5.478   7.539   4.046 -0.2343 -0.1049  0.5649
  114MOL   H25429860   5.359   0.110   3.992  0.8653 -0.8583  0.3459
  114MOL   H25529861   5.339   0.013   3.856  2.6484 -0.6790  0.0218
  114MOL   H25629862   5.423   7.790   4.126 -1.9558 -4.7363  0.8308
  114MOL   H25729863   5.447   7.585   3.781 -2.4992 -2.1762 -2.1685
  114MOL   H25829864   5.317   7.700   3.773 -0.3934  1.1256 -0.3171
  114MOL   H25929865   5.296   7.532   3.835  2.2187 -0.5601  1.2827
  114MOL   H26029866   5.433   7.443   4.024  1.2929 -1.0481  1.4993
  114MOL   H26129867   5.484   7.547   4.154 -1.5035  0.4903  0.5983
  114MOL   H26229868   5.585   7.544   4.025  0.3239  0.0496  3.3149
  115MOL     C129869   7.758   2.151   3.483 -0.5016 -0.1546 -0.5326
  115MOL     C229870   7.696   2.016   3.505 -0.1331  0.5539 -0.1529
  115MOL     C329871   7.737   1.916   3.590  0.1132 -0.2115  0.1983
  115MOL     C429872   7.841   1.930   3.693  0.6486  0.1403  0.5128
  115MOL     C529873   7.673   1.775   3.578 -0.3007  0.0767 -0.4792
  115MOL     H629874   7.846   2.168   3.545 -1.2581 -0.1375  0.5506
  115MOL     H729875   7.791   2.165   3.381 -1.6732  0.5516 -0.8254
  115MOL     H829876   7.620   2.001   3.430 -0.3536  0.9182 -0.0030
  115MOL     H929877   0.040   1.858   3.686  1.4777  0.9975  1.1052
  115MOL    H1029878   7.787   1.905   3.784  0.7249 -2.0800 -0.0364
  115MOL    H1129879   7.870   2.034   3.711 -3.1941  0.9319  2.5943
  115MOL    H1229880   7.655   1.742   3.681  0.1324 -0.4561 -0.5714
  115MOL    H1329881   7.754   1.710   3.545  1.8948  3.5643 -2.2499
  115MOL    H1429882   7.679   2.225   3.497 -2.1608 -2.1326  0.8886
  115MOL    C1529883   7.544   1.757   3.503 -0.2519 -0.2682  0.3332
  115MOL    C1629884   7.492   1.617   3.519 -0.8057  0.6852  0.2586
  115MOL    C1729885   7.471   1.520   3.424  0.1470 -0.0991  0.3249
  115MOL    C1829886   7.496   1.552   3.283 -0.5537 -0.5253  0.2124
  115MOL    C1929887   7.424   1.383   3.454  0.6530  0.1167 -0.0297
  115MOL    H2029888   7.564   1.776   3.398 -1.1198 -0.9675  0.0378
  115MOL    H2129889   7.474   1.826   3.551  1.3638  0.8221  1.1964
  115MOL    H2229890   7.486   1.589   3.623  0.3821 -2.5401 -0.5037
  115MOL    H2329891   7.595   1.588   3.255  0.5980 -1.8326  2.4561
  115MOL    H2429892   7.427   1.629   3.250  1.0067  2.4303  3.5542
  115MOL    H2529893   7.482   1.460   3.226 -0.5049 -0.6628  0.4193
  115MOL    H2629894   7.479   1.313   3.391  0.7562  0.4894 -0.3543
  115MOL    H2729895   7.321   1.387   3.419  0.4543  0.7731  0.6366
  115MOL    C2829896   7.434   1.338   3.609  0.3422 -0.4766 -0.1887
  115MOL    C2929897   7.405   1.195   3.652 -0.2844  0.2559 -0.2513
  115MOL    C3029898   7.504   1.102   3.654 -0.2008 -0.1755 -0.0057
  115MOL    C3129899   7.648   1.121   3.610 -0.7202 -0.8052 -0.3697
  115MOL    C3229900   7.480   0.968   3.708 -0.1089  0.7540  0.0800
  115MOL    H3329901   7.357   1.396   3.660  0.1175 -2.3178  1.6495
  115MOL    H3429902   7.533   1.355   3.652  0.4916  0.0274 -0.7282
  115MOL    H3529903   7.306   1.187   3.693  0.4185 -1.3190  1.1719
  115MOL    H3629904   7.679   1.041   3.542  0.2854 -0.3868 -0.4037
  115MOL    H3729905   7.695   1.111   3.708 -1.2737  0.5207  0.0398
  115MOL    H3829906   7.667   1.214   3.556  0.3329 -0.1496  1.1131
  115MOL    H3929907   7.546   0.957   3.794  0.2559  4.2859  0.3315
  115MOL    H4029908   7.514   0.894   3.636 -2.2282  0.5338 -0.7511
  115MOL    C4129909   7.339   0.932   3.757 -0.5344 -0.5260 -0.0059
  115MOL    C4229910   7.335   0.796   3.823 -0.1539 -0.1027  0.0259
  115MOL    C4329911   7.279   0.779   3.948 -0.9009  0.5642 -0.1631
  115MOL    C4429912   7.229   0.899   4.040  0.2311 -0.0579  0.6690
  115MOL    C4529913   7.251   0.640   4.016 -0.0041 -0.1627  0.6294
  115MOL    H4629914   7.268   0.932   3.675  2.6051  0.4089 -2.8665
  115MOL    H4729915   7.312   1.015   3.822 -0.2245 -1.5573  1.4468
  115MOL    H4829916   7.362   0.710   3.763 -1.7341  0.2430 -1.2392
  115MOL    H4929917   7.313   0.948   4.089  1.2516 -0.3076 -0.8089
  115MOL    H5029918   7.158   0.862   4.115  0.0826  1.4507  1.3028
  115MOL    H5129919   7.168   0.970   3.984  0.7998 -1.1726 -1.3881
  115MOL    H5229920   7.276   0.559   3.948  0.7767  1.6561 -1.3208
  115MOL    H5329921   7.144   0.642   4.036  0.4798  1.4416  3.3714
  115MOL    C5429922   7.334   0.611   4.142  0.3530  0.2260  0.1096
  115MOL    C5529923   7.269   0.484   4.193 -1.0815  0.4385 -0.6480
  115MOL    C5629924   7.313   0.356   4.194 -1.0929 -0.4549  0.4263
  115MOL    C5729925   7.452   0.327   4.142 -0.2434  0.3145  0.5071
  115MOL    C5829926   7.241   0.242   4.250 -0.7493 -0.7450  0.8079
  115MOL    H5929927   7.324   0.699   4.206  0.8624  0.9625 -0.8135
  115MOL    H6029928   7.441   0.601   4.122  0.2071 -1.1613 -0.0526
  115MOL    H6129929   7.168   0.484   4.231 -1.1652 -0.9585 -0.8652
  115MOL    H6229930   7.448   0.224   4.106  0.1085  0.0783  1.1174
  115MOL    H6329931   7.529   0.330   4.220  0.8041  0.0080 -0.5026
  115MOL    H6429932   7.488   0.405   4.076  2.9215  2.0131  4.0500
  115MOL    H6529933   7.227   0.173   4.167 -0.0565  1.2989 -1.0557
  115MOL    H6629934   7.147   0.288   4.282 -0.3652  1.5205 -1.1808
  115MOL    C6729935   7.305   0.175   4.365  0.2502 -0.4254  0.1864
  115MOL    C6829936   7.221   0.067   4.430  0.0615 -0.8633  0.2464
  115MOL    C6929937   7.169   0.059   4.554 -1.1540  0.2358  0.0383
  115MOL    C7029938   7.164   0.172   4.661  0.6734  0.5729 -1.0985
  115MOL    C7129939   7.107   7.809   4.601 -0.9289 -0.1638 -0.3403
  115MOL    H7229940   7.333   0.249   4.440  2.1614 -2.6169  1.7123
  115MOL    H7329941   7.395   0.124   4.331  1.6241  2.0383  0.0197
  115MOL    H7429942   7.214   7.859   4.372  4.0771 -0.7235 -0.6015
  115MOL    H7529943   7.240   0.247   4.643 -0.0906  1.4625 -0.6257
  115MOL    H7629944   7.160   0.133   4.763 -0.6865 -1.2028 -1.7972
  115MOL    H7729945   7.065   0.215   4.651  0.5235  1.1928  2.4500
  115MOL    H7829946   7.064   7.749   4.521 -0.1779  0.9127 -1.5669
  115MOL    H7929947   7.015   7.844   4.649 -0.2013  0.3439  0.7315
  115MOL    C8029948   7.194   7.734   4.698 -0.0919  0.1737 -0.0479
  115MOL    C8129949   7.124   7.611   4.760  0.0390  0.4058 -0.6806
  115MOL    C8229950   7.157   7.482   4.743 -0.6042  0.3494 -0.0592
  115MOL    C8329951   7.276   7.430   4.668  0.9529  0.0844  0.2230
  115MOL    C8429952   7.063   7.379   4.801  1.0831  0.4757 -0.0818
  115MOL    H8529953   7.212   7.806   4.778  0.4590 -0.5922  0.5283
  115MOL    H8629954   7.288   7.706   4.650 -0.8035  0.0976 -1.4304
  115MOL    H8729955   7.034   7.636   4.813 -0.1595 -0.8461 -0.4137
  115MOL    H8829956   7.230   7.365   4.592  1.5047 -0.2991  0.2164
  115MOL    H8929957   7.342   7.377   4.736 -1.1885 -0.2502  2.1282
  115MOL    H9029958   7.332   7.510   4.621  1.3578 -0.2954  0.0548
  115MOL    H9129959   7.012   7.417   4.889 -1.4414 -1.9357 -0.4314
  115MOL    H9229960   7.138   7.315   4.848 -0.2473 -1.1774 -0.1393
  115MOL    C9329961   6.978   7.297   4.704  0.3510  0.5949  0.2031
  115MOL    C9429962   6.878   7.388   4.627 -0.4097 -0.3398 -1.0110
  115MOL    C9529963   6.744   7.393   4.645  0.0963 -0.0360  0.3193
  115MOL    C9629964   6.659   7.306   4.735  0.4150 -0.5381  0.6359
  115MOL    C9729965   6.665   7.501   4.578  0.4623 -0.6247 -0.4600
  115MOL    H9829966   6.929   7.215   4.756  2.2771 -0.6394  0.1237
  115MOL    H9929967   7.042   7.238   4.638 -0.5668 -2.2264  1.7885
  115MOL   H10029968   6.930   7.468   4.577  0.9536  0.8494  2.1488
  115MOL   H10129969   6.569   7.275   4.682  0.8823 -1.5908  0.4467
  115MOL   H10229970   6.635   7.361   4.826  0.1939 -1.3863  1.1037
  115MOL   H10329971   6.702   7.211   4.769 -0.3857 -0.2537  2.5328
  115MOL   H10429972   6.734   7.573   4.534 -0.2281 -0.3822 -1.1525
  115MOL   H10529973   6.603   7.559   4.646  0.4833 -1.3131  0.1597
  115MOL   C10629974   6.577   7.446   4.467  0.7744 -0.6901  1.2346
  115MOL   C10729975   6.497   7.566   4.412  0.1813  0.3343  0.0900
  115MOL   C10829976   6.363   7.571   4.389  0.6712 -0.3291 -0.1719
  115MOL   C10929977   6.262   7.455   4.400  0.2132  0.3840 -0.1666
  115MOL   C11029978   6.303   7.699   4.331 -0.1902 -0.0895 -0.1998
  115MOL   H11129979   6.510   7.369   4.503 -2.1809  0.3454 -1.7884
  115MOL   H11229980   6.631   7.381   4.397  2.9500 -0.3821  2.5698
  115MOL   H11329981   6.567   7.647   4.399 -0.6855  0.9606 -0.6839
  115MOL   H11429982   6.177   7.484   4.461 -0.8317 -0.2032 -1.3245
  115MOL   H11529983   6.308   7.366   4.443  2.3622  1.6656  0.3065
  115MOL   H11629984   6.217   7.436   4.303 -1.8350  0.9737  0.6524
  115MOL   H11729985   6.345   7.790   4.374 -2.7311  1.2668 -0.4932
  115MOL   H11829986   6.201   7.709   4.368  0.5174 -1.1809  2.1744
  115MOL   C11929987   6.319   7.706   4.183  0.0686 -0.0677  0.2308
  115MOL   C12029988   6.257   7.831   4.120 -0.0400 -0.1075 -0.1171
  115MOL   C12129989   6.183   7.839   4.007  0.2191  0.2023 -0.8193
  115MOL   C12229990   6.152   7.715   3.919 -0.6415 -0.8234 -0.1286
  115MOL   C12329991   6.114   0.093   3.971 -1.4437  0.0664 -0.4676
  115MOL   H12429992   6.279   7.618   4.133 -1.2418  0.4979  0.2711
  115MOL   H12529993   6.426   7.708   4.161  0.2790  2.2494  1.3745
  115MOL   H12629994   6.272   0.039   4.176  0.9805  0.5080 -1.3442
  115MOL   H12729995   6.044   7.700   3.915 -1.1668  1.6891  2.7294
  115MOL   H12829996   6.203   7.624   3.953  0.0509  0.0683  1.2480
  115MOL   H12929997   6.173   7.741   3.816 -1.5322  0.3753 -0.0205
  115MOL   H13029998   6.130   0.144   4.066  1.6127 -0.9197 -0.4027
  115MOL   H13129999   6.006   0.078   3.967 -1.3915  0.3094 -3.3204
  115MOL   C13230000   6.171   0.159   3.847  0.2590  0.6180  0.2336
  115MOL   C13330001   6.091   0.276   3.803 -0.5168 -0.1399  0.4655
  115MOL   C13430002   6.131   0.402   3.783 -0.4299 -0.4124 -0.3771
  115MOL   C13530003   6.274   0.439   3.770  0.1460 -0.8277 -0.2646
  115MOL   C13630004   6.030   0.516   3.763 -0.7355 -0.2510 -0.9699
  115MOL   H13730005   6.148   0.086   3.769 -1.1682  2.0854 -0.7655
  115MOL   H13830006   6.279   0.171   3.861  0.1911  2.3959 -0.6406
  115MOL   H13930007   5.985   0.256   3.801 -0.5618  0.1943 -3.4712
  115MOL   H14030008   6.339   0.352   3.775  2.1663  0.5671 -1.3660
  115MOL   H14130009   6.302   0.510   3.848  0.5420 -1.3376  0.0629
  115MOL   H14230010   6.292   0.484   3.672  1.5465  0.7436  0.6783
  115MOL   H14330011   5.923   0.495   3.754 -1.0336 -0.0246  1.7098
  115MOL   H14430012   6.056   0.572   3.673 -0.3969 -1.1285 -1.4301
  115MOL   C14530013   6.038   0.615   3.880 -0.5323 -0.7188  0.9764
  115MOL   C14630014   6.007   0.756   3.847  0.1584  0.0797 -0.0010
  115MOL   C14730015   5.889   0.816   3.888 -0.3601 -0.1306  0.1760
  115MOL   C14830016   5.769   0.750   3.959 -0.3111 -0.8708  0.1069
  115MOL   C14930017   5.867   0.962   3.846 -0.0675  0.6364  0.3665
  115MOL   H15030018   6.137   0.633   3.921 -0.7660  0.5846  1.0030
  115MOL   H15130019   5.981   0.592   3.970  0.7456  0.0265  1.9987
  115MOL   H15230020   6.077   0.810   3.785 -2.5826  1.4840 -1.9842
  115MOL   H15330021   5.764   0.643   3.941  1.1488 -0.6034 -2.0128
  115MOL   H15430022   5.670   0.795   3.948 -0.8053 -1.2741  2.4306
  115MOL   H15530023   5.782   0.760   4.067 -1.0896  0.3755  0.0919
  115MOL   H15630024   5.766   0.965   3.805  0.3770 -0.8455 -0.8575
  115MOL   H15730025   5.926   0.987   3.758 -1.0914 -0.3707 -0.6268
  115MOL   C15830026   5.885   1.057   3.966 -0.3930  0.0569  0.2471
  115MOL   C15930027   5.943   1.192   3.924  0.5045  0.1675  0.0124
  115MOL   C16030028   5.878   1.315   3.925 -0.3727  0.1246 -0.8714
  115MOL   C16130029   5.742   1.331   3.991 -0.3089  0.1383  0.2932
  115MOL   C16230030   5.931   1.448   3.866 -0.6725  0.1137 -0.6689
  115MOL   H16330031   5.943   1.002   4.039 -1.8122  0.6967  1.8947
  115MOL   H16430032   5.787   1.068   4.012 -0.4783  0.4420 -0.0250
  115MOL   H16530033   6.040   1.172   3.880  0.0407 -1.4957 -0.2789
  115MOL   H16630034   5.680   1.246   3.963  0.3517 -0.1811 -0.2148
  115MOL   H16730035   5.693   1.419   3.947  0.8881 -0.5944 -2.6308
  115MOL   H16830036   5.752   1.350   4.098 -1.8330  1.8041  0.1740
  115MOL   H16930037   5.895   1.537   3.918  1.9064  0.1945  1.0541
  115MOL   H17030038   5.889   1.470   3.768  0.7230  0.1807 -1.2642
  115MOL   C17130039   6.085   1.448   3.845  0.4131  0.0779 -0.2412
  115MOL   C17230040   6.130   1.592   3.829  0.3896  0.7872 -0.2745
  115MOL   C17330041   6.186   1.656   3.730 -0.0433 -0.5961  0.5554
  115MOL   C17430042   6.232   1.597   3.593 -0.1068 -0.2912 -0.3349
  115MOL   C17530043   6.222   1.800   3.748  0.6025  0.7919  0.1319
  115MOL   H17630044   6.123   1.385   3.764 -0.0060 -1.1073  0.4761
  115MOL   H17730045   6.132   1.407   3.934 -1.1042 -0.1400  0.4741
  115MOL   H17830046   6.104   1.646   3.919 -0.4641  1.8798 -1.1687
  115MOL   H17930047   6.196   1.497   3.567 -1.5202  0.0610  0.2271
  115MOL   H18030048   6.340   1.614   3.596 -0.5751  2.5678  2.5217
  115MOL   H18130049   6.197   1.665   3.515  0.4767  1.1181  0.6054
  115MOL   H18230050   6.133   1.861   3.735  0.2741 -0.1216 -2.0579
  115MOL   H18330051   6.294   1.841   3.677  0.1226  4.5610  1.6820
  115MOL   C18430052   6.282   1.834   3.889 -0.2495  0.2408 -0.8663
  115MOL   C18530053   6.349   1.976   3.895  1.0186 -0.2545 -0.4401
  115MOL   C18630054   6.297   2.092   3.932 -0.4185  0.4061  0.0564
  115MOL   C18730055   6.147   2.108   3.953  0.1426  0.2621  0.2094
  115MOL   C18830056   6.387   2.213   3.946  0.3006 -0.4772  0.2321
  115MOL   H18930057   6.353   1.759   3.923 -1.1241 -0.6083 -0.8983
  115MOL   H19030058   6.205   1.831   3.965  0.1814  2.2240 -0.3187
  115MOL   H19130059   6.454   1.973   3.871  0.6044  0.6144 -2.4555
  115MOL   H19230060   6.131   2.140   4.056 -0.4158 -0.3987  0.3320
  115MOL   H19330061   6.096   2.012   3.951  0.5306  0.0403  0.8667
  115MOL   H19430062   6.103   2.176   3.880  0.0188  0.9347  0.8930
  115MOL   H19530063   6.357   2.278   3.863  1.9957  0.2206  0.1372
  115MOL   H19630064   6.489   2.179   3.927  0.2447 -0.1848 -0.6355
  115MOL   C19730065   6.380   2.282   4.090  0.2976 -0.0801  0.8237
  115MOL   C19830066   6.452   2.412   4.102  0.1585 -0.1284  0.4907
  115MOL   C19930067   6.534   2.455   4.201 -0.1312  0.0382  0.4769
  115MOL   C20030068   6.557   2.379   4.334  0.6538  0.8108  0.5134
  115MOL   C20130069   6.604   2.592   4.193 -0.3938  0.3181  0.6472
  115MOL   H20230070   6.411   2.208   4.164  0.8847 -1.4013 -0.7099
  115MOL   H20330071   6.275   2.303   4.110 -0.7930 -3.1855 -1.1738
  115MOL   H20430072   6.437   2.474   4.015 -2.9875 -1.2194  0.1682
  115MOL   H20530073   6.657   2.417   4.353 -0.1983  3.4065 -0.0390
  115MOL   H20630074   6.543   2.271   4.333 -0.7722  0.9830 -0.5682
  115MOL   H20730075   6.490   2.418   4.411  1.3746 -0.5037  1.8278
  115MOL   H20830076   6.625   2.609   4.087 -0.1252 -2.0666  0.2901
  115MOL   H20930077   6.699   2.574   4.244 -0.5247  0.1348  0.8267
  115MOL   C21030078   6.532   2.696   4.270 -0.4445  0.0637 -0.2152
  115MOL   C21130079   6.615   2.825   4.270 -0.1366 -0.1384  0.3436
  115MOL   C21230080   6.592   2.943   4.202  0.1762 -0.5927 -0.2942
  115MOL   C21330081   6.454   2.972   4.145 -0.2784 -0.1962  0.6252
  115MOL   C21430082   6.695   3.062   4.209 -0.6802  0.0822  1.1005
  115MOL   H21530083   6.520   2.662   4.373 -0.7229  2.0950  0.4499
  115MOL   H21630084   6.431   2.723   4.239 -0.0631  0.2372 -1.3417
  115MOL   H21730085   6.714   2.813   4.313 -0.1837 -2.4106 -0.0943
  115MOL   H21830086   6.462   3.031   4.054 -2.9561  0.4334  0.7689
  115MOL   H21930087   6.387   3.019   4.217 -1.5430  0.5083 -0.9682
  115MOL   H22030088   6.405   2.884   4.103 -0.3687  0.9113 -1.6726
  115MOL   H22130089   6.722   3.119   4.120 -2.1661  0.5849  0.9604
  115MOL   H22230090   6.789   3.029   4.253 -1.1048 -3.5012 -0.4640
  115MOL   C22330091   6.660   3.169   4.313 -0.2059 -0.0439  0.4363
  115MOL   C22430092   6.774   3.272   4.319  0.1565 -0.1412 -0.5342
  115MOL   C22530093   6.758   3.404   4.320 -0.5729  0.1810  0.2894
  115MOL   C22630094   6.615   3.461   4.312  0.0670 -0.3199 -0.7588
  115MOL   C22730095   6.871   3.508   4.325 -0.0068 -0.0691  0.0051
  115MOL   H22830096   6.641   3.128   4.412 -0.3474  1.1548  0.9182
  115MOL   H22930097   6.562   3.210   4.286  0.9113  3.2762  1.1734
  115MOL   H23030098   6.873   3.231   4.329 -0.2894 -1.3496 -0.9102
  115MOL   H23130099   6.605   3.561   4.353  0.6570 -0.3614 -0.4994
  115MOL   H23230100   6.534   3.395   4.343  0.5392 -0.9816 -0.9199
  115MOL   H23330101   6.612   3.474   4.204 -2.1234 -1.8561 -0.9218
  115MOL   H23430102   6.959   3.444   4.329  0.7914  1.1127  1.9476
  115MOL   H23530103   6.884   3.573   4.412 -0.6152  0.8991 -0.6141
  115MOL   C23630104   6.879   3.584   4.194  0.1964  0.4144 -0.0888
  115MOL   C23730105   6.988   3.695   4.203 -0.3669  0.2740  0.1671
  115MOL   C23830106   7.116   3.692   4.165  0.2508  0.6715  0.6618
  115MOL   C23930107   7.174   3.569   4.091 -0.5581  0.4359 -0.1565
  115MOL   C24030108   7.197   3.821   4.172  0.5679  0.3046 -0.2159
  115MOL   H24130109   6.785   3.629   4.162  1.0700  2.3481  0.0096
  115MOL   H24230110   6.902   3.516   4.112 -1.2885  1.1937 -1.1789
  115MOL   H24330111   6.945   3.788   4.238 -0.9484  0.0293  0.1019
  115MOL   H24430112   7.131   3.477   4.129 -0.4156  0.3636 -0.1685
  115MOL   H24530113   7.280   3.557   4.113 -1.3101  0.4932  3.8124
  115MOL   H24630114   7.156   3.573   3.983 -0.4359 -1.5962 -0.2691
  115MOL   H24730115   7.138   3.902   4.216  0.4109  0.8152 -1.3432
  115MOL   H24830116   7.229   3.837   4.069  0.2664  0.7834 -0.2379
  115MOL   C24930117   7.326   3.813   4.259 -0.0120  0.2991  0.5780
  115MOL   C25030118   7.386   3.961   4.258  0.1426  0.3316  0.8933
  115MOL   C25130119   7.436   4.023   4.364 -0.1789  0.8236  0.4510
  115MOL   C25230120   7.442   3.956   4.504 -0.1742 -0.0419  0.6533
  115MOL   C25330121   7.510   4.154   4.352  0.8464 -0.2863  1.0075
  115MOL   H25430122   7.394   3.741   4.212 -2.5093 -2.3307  0.8416
  115MOL   H25530123   7.307   3.777   4.360 -3.5250  0.4861  0.0409
  115MOL   H25630124   7.396   4.004   4.159  0.7537 -3.7094 -0.9281
  115MOL   H25730125   7.430   3.848   4.504 -0.7366  0.0128  1.2713
  115MOL   H25830126   7.350   3.984   4.555  1.9360  3.3723  2.7742
  115MOL   H25930127   7.525   3.985   4.568 -1.6292  2.7190  1.3758
  115MOL   H26030128   7.462   4.224   4.421  0.6841  0.1634  0.4400
  115MOL   H26130129   7.502   4.189   4.249  0.5607 -0.5405  0.9391
  115MOL   H26230130   7.618   4.156   4.361  0.9581 -1.5527  0.0766
  116MOL     C130131   4.258   0.890   3.157 -0.0049  0.1840 -0.1917
  116MOL     C230132   4.164   0.863   3.039  0.7969  0.3618 -0.0836
  116MOL     C330133   4.050   0.805   3.050 -0.4953 -0.4240  0.5315
  116MOL     C430134   3.986   0.747   3.176 -0.1327 -0.9723  0.3436
  116MOL     C530135   3.967   0.779   2.922  0.2197  0.0387 -0.9915
  116MOL     H630136   4.314   0.800   3.180 -1.1235 -0.1005  1.5503
  116MOL     H730137   4.328   0.967   3.123 -0.7032  0.8688 -0.1088
  116MOL     H830138   4.197   0.920   2.954  2.0562 -0.2436 -0.0050
  116MOL     H930139   3.989   0.640   3.155  1.6877 -0.2701 -3.4949
  116MOL    H1030140   3.883   0.776   3.196 -0.0540 -0.5585  0.1663
  116MOL    H1130141   4.039   0.759   3.270 -0.2589 -0.5243  0.3633
  116MOL    H1230142   4.028   0.814   2.839 -0.2496 -0.5179 -1.5688
  116MOL    H1330143   3.879   0.842   2.910 -0.4397 -0.9597 -1.4308
  116MOL    H1430144   4.211   0.923   3.250 -0.9272  1.9948 -1.2606
  116MOL    C1530145   3.915   0.635   2.904  0.4771 -0.9862 -0.3628
  116MOL    C1630146   3.841   0.618   2.777  0.6148 -0.4874 -0.3888
  116MOL    C1730147   3.841   0.510   2.703 -0.1660 -0.0503  0.0710
  116MOL    C1830148   3.911   0.374   2.737  0.2962  0.0908  0.4493
  116MOL    C1930149   3.752   0.499   2.575 -0.5160 -0.5187 -0.0875
  116MOL    H2030150   3.853   0.614   2.991  0.9558 -0.4045  0.1167
  116MOL    H2130151   4.003   0.571   2.906 -0.2887 -2.0540 -0.4782
  116MOL    H2230152   3.777   0.700   2.747  2.2545  1.1384  0.4618
  116MOL    H2330153   3.854   0.294   2.784  2.0204 -1.3404  0.1841
  116MOL    H2430154   3.996   0.398   2.801 -0.5922 -2.0298  2.5010
  116MOL    H2530155   3.946   0.324   2.647 -0.2327  0.7994 -0.1510
  116MOL    H2630156   3.801   0.432   2.504 -0.8529  0.1566 -0.9656
  116MOL    H2730157   3.754   0.596   2.526 -1.8289 -0.6811 -0.4772
  116MOL    C2830158   3.604   0.460   2.590  0.2079  0.0694  0.4760
  116MOL    C2930159   3.592   0.341   2.674 -0.5529  0.2814  0.5179
  116MOL    C3030160   3.558   0.218   2.639 -0.1597  0.0916  0.6329
  116MOL    C3130161   3.548   0.163   2.494 -0.3255  0.1350 -0.6523
  116MOL    C3230162   3.562   0.115   2.739  0.3264 -0.2044  0.2175
  116MOL    H3330163   3.551   0.451   2.495 -1.0018  0.0421  1.1451
  116MOL    H3430164   3.570   0.550   2.641 -1.1832 -0.2233  0.1063
  116MOL    H3530165   3.613   0.361   2.778 -3.7705 -0.9066  1.4550
  116MOL    H3630166   3.644   0.120   2.467  0.5164  0.1393  2.1767
  116MOL    H3730167   3.522   0.237   2.418  1.4117  2.9023  1.3571
  116MOL    H3830168   3.471   0.085   2.497  0.7270 -0.9067 -0.6546
  116MOL    H3930169   3.618   0.149   2.827 -2.1872 -0.8998  2.1328
  116MOL    H4030170   3.622   0.031   2.705  2.9783  0.9564  1.7914
  116MOL    C4130171   3.419   0.069   2.770 -0.2687  0.2092  0.5763
  116MOL    C4230172   3.414   7.831   2.856 -0.1793  0.1522 -0.2936
  116MOL    C4330173   3.302   7.750   2.870 -0.5574  0.1796 -0.8587
  116MOL    C4430174   3.186   7.764   2.779  0.4839  0.3598 -0.1997
  116MOL    C4530175   3.309   7.625   2.966  0.0913 -0.0956 -0.1831
  116MOL    H4630176   3.360   0.060   2.679  0.5783  1.2063 -0.0767
  116MOL    H4730177   3.355   0.146   2.812 -0.1923  0.8346 -0.4234
  116MOL    H4830178   3.502   7.812   2.914 -0.3627 -1.5646 -0.5504
  116MOL    H4930179   3.088   7.775   2.826  0.7503  1.9919  0.0115
  116MOL    H5030180   3.181   7.683   2.707 -0.8161  0.3598 -0.1133
  116MOL    H5130181   3.179   7.856   2.721  1.5588  0.9486  0.5825
  116MOL    H5230182   3.381   7.647   3.045 -0.8315 -2.6794  1.4316
  116MOL    H5330183   3.344   7.536   2.913 -1.1116 -0.7855  0.1664
  116MOL    C5430184   3.176   7.585   3.028 -0.2751  0.4938  0.2855
  116MOL    C5530185   3.188   7.477   3.143  0.5114  0.1457  0.6318
  116MOL    C5630186   3.144   7.350   3.137  0.0884 -0.8387  0.0786
  116MOL    C5730187   3.084   7.296   3.010  0.4216 -0.1065 -0.0255
  116MOL    C5830188   3.165   7.240   3.234  0.0871 -0.3428  0.1163
  116MOL    H5930189   3.102   7.552   2.955  0.4698 -2.1122  0.6480
  116MOL    H6030190   3.133   7.668   3.083 -0.8239  0.6440 -0.3563
  116MOL    H6130191   3.247   7.518   3.224 -0.0476  0.9880  0.6192
  116MOL    H6230192   3.011   7.368   2.972  2.0278  1.2965 -0.5377
  116MOL    H6330193   3.025   7.207   3.031 -0.0990  0.0606 -0.7190
  116MOL    H6430194   3.167   7.269   2.945  0.8633  0.9905  0.0729
  116MOL    H6530195   3.235   7.280   3.307  2.4889 -0.9202 -1.8236
  116MOL    H6630196   3.199   7.150   3.183  1.3493 -0.3434  0.9355
  116MOL    C6730197   3.031   7.207   3.298  0.4904  0.1447 -0.3720
  116MOL    C6830198   3.036   7.073   3.367  0.7453 -0.6222 -0.4214
  116MOL    C6930199   2.973   6.958   3.328  0.2036  0.1117 -0.1867
  116MOL    C7030200   2.868   6.949   3.212  0.2808  0.9038 -0.2641
  116MOL    C7130201   2.985   6.829   3.409  1.0158  0.8122 -0.5534
  116MOL    H7230202   2.944   7.201   3.233 -0.3524 -2.0126  0.9207
  116MOL    H7330203   2.995   7.281   3.370  1.6671  1.6914 -1.3612
  116MOL    H7430204   3.097   7.065   3.457 -0.1563 -0.6083  0.1969
  116MOL    H7530205   2.919   6.973   3.119  1.2430  0.5679  0.1689
  116MOL    H7630206   2.781   7.013   3.226 -0.0512  0.7899 -1.7391
  116MOL    H7730207   2.825   6.851   3.191 -3.0355  2.3016 -0.2010
  116MOL    H7830208   2.883   6.815   3.444  0.6009  0.7333 -1.7524
  116MOL    H7930209   3.066   6.846   3.480  0.9447  0.7947 -0.4689
  116MOL    C8030210   3.029   6.716   3.311 -0.2642  0.8678 -0.0463
  116MOL    C8130211   3.170   6.733   3.252  0.3644 -0.4651 -0.2989
  116MOL    C8230212   3.211   6.740   3.122 -0.3215  0.0237  0.9019
  116MOL    C8330213   3.114   6.753   3.000  0.3087  0.1526 -0.0719
  116MOL    C8430214   3.356   6.782   3.095 -0.7110 -0.4063  0.5187
  116MOL    H8530215   2.949   6.687   3.244 -0.5477  0.0955  0.6231
  116MOL    H8630216   3.033   6.619   3.359  1.3837  1.0734  0.2789
  116MOL    H8730217   3.256   6.746   3.316 -0.0794 -1.1307  0.4418
  116MOL    H8830218   3.121   6.848   2.947 -1.5968 -0.2437 -1.1101
  116MOL    H8930219   3.006   6.745   3.013 -0.1681  0.8114 -3.0874
  116MOL    H9030220   3.137   6.683   2.919  1.6496 -0.1196  0.5434
  116MOL    H9130221   3.395   6.734   3.006  2.9180  3.9979 -0.4629
  116MOL    H9230222   3.410   6.738   3.179 -1.2942 -1.1008  0.5333
  116MOL    C9330223   3.378   6.932   3.095 -0.2694  0.1593  0.1157
  116MOL    C9430224   3.526   6.969   3.063 -0.1248 -0.2243  0.3239
  116MOL    C9530225   3.560   7.058   2.963  0.4916 -0.4107 -0.1029
  116MOL    C9630226   3.455   7.114   2.868  0.1615  0.0036 -0.2909
  116MOL    C9730227   3.702   7.095   2.933 -0.1623 -0.0311  0.1242
  116MOL    H9830228   3.359   6.968   3.196  2.6773 -0.6611  1.0229
  116MOL    H9930229   3.300   6.974   3.032  0.1395 -0.3207 -0.7169
  116MOL   H10030230   3.602   6.922   3.122  0.7121  0.8480  0.1160
  116MOL   H10130231   3.399   7.198   2.910  0.3672  0.6191 -1.2371
  116MOL   H10230232   3.376   7.044   2.840 -1.2462  1.9065 -1.1863
  116MOL   H10330233   3.501   7.151   2.777  0.3205  2.1352  0.6140
  116MOL   H10430234   3.717   7.115   2.827  0.6231 -1.5920 -0.0700
  116MOL   H10530235   3.774   7.020   2.966 -0.1777 -0.6112 -1.1209
  116MOL   C10630236   3.733   7.226   3.001  0.3430 -0.3558  0.1237
  116MOL   C10730237   3.724   7.213   3.150 -0.1181 -0.6614 -0.1349
  116MOL   C10830238   3.634   7.249   3.239  0.5566 -0.4462  0.7006
  116MOL   C10930239   3.512   7.332   3.199 -0.0871  0.2701 -0.4022
  116MOL   C11030240   3.646   7.206   3.383  0.9572 -0.1669 -0.2215
  116MOL   H11130241   3.678   7.316   2.973 -1.2339 -0.4216  2.7771
  116MOL   H11230242   3.833   7.261   2.973  0.1697  0.5579  0.5987
  116MOL   H11330243   3.802   7.164   3.205  0.6259  1.7168  1.0005
  116MOL   H11430244   3.512   7.378   3.100  1.7915  2.6390  0.6347
  116MOL   H11530245   3.484   7.404   3.276  1.6469  0.5233  0.0291
  116MOL   H11630246   3.430   7.261   3.193  0.1406 -0.0253 -0.0794
  116MOL   H11730247   3.625   7.290   3.450 -0.6901 -1.1243  0.4831
  116MOL   H11830248   3.750   7.180   3.404  1.6053  2.7302  0.4311
  116MOL   C11930249   3.560   7.079   3.410  0.4492  0.4830 -0.4139
  116MOL   C12030250   3.563   7.036   3.557  0.4063 -0.3959  0.4290
  116MOL   C12130251   3.458   7.017   3.643 -0.2506 -0.0470 -0.1673
  116MOL   C12230252   3.309   7.023   3.615  0.1176 -0.7329 -0.0172
  116MOL   C12330253   3.493   7.032   3.794 -0.0342 -0.0284  0.1799
  116MOL   H12430254   3.589   6.994   3.347  0.4996  0.0769  0.1520
  116MOL   H12530255   3.459   7.114   3.393  0.8086  0.8735 -1.8374
  116MOL   H12630256   3.663   7.040   3.599  1.4557 -0.6946 -1.9075
  116MOL   H12730257   3.282   7.045   3.511 -0.2015 -3.1303 -0.4668
  116MOL   H12830258   3.249   7.088   3.679  0.9964 -0.9322  1.0257
  116MOL   H12930259   3.275   6.920   3.620 -1.6618 -0.2666 -1.5887
  116MOL   H13030260   3.596   6.995   3.799  0.3375  1.2252  2.2796
  116MOL   H13130261   3.432   6.962   3.851 -0.4654  0.9219  0.8843
  116MOL   C13230262   3.504   7.172   3.853 -0.0520 -0.6139 -0.0933
  116MOL   C13330263   3.539   7.159   4.007 -0.3230  0.8231  0.4646
  116MOL   C13430264   3.633   7.227   4.070 -0.0730 -0.0042  0.6081
  116MOL   C13530265   3.719   7.331   4.001  0.1734  0.3310 -0.7104
  116MOL   C13630266   3.653   7.214   4.218 -0.4918  0.2541  0.3524
  116MOL   H13730267   3.409   7.226   3.844  0.0304 -0.4995 -0.2680
  116MOL   H13830268   3.569   7.239   3.798  1.5154 -1.2756  0.9337
  116MOL   H13930269   3.476   7.102   4.074 -0.4654 -0.4622 -0.7485
  116MOL   H14030270   3.663   7.425   3.999 -0.1274  0.1826  0.3766
  116MOL   H14130271   3.741   7.308   3.897  1.5594  2.3697 -0.8937
  116MOL   H14230272   3.819   7.347   4.042 -0.0520 -1.6321  0.6723
  116MOL   H14330273   3.584   7.141   4.261 -0.3258 -0.5683 -0.7556
  116MOL   H14430274   3.636   7.312   4.262 -1.9848  0.1742 -0.0048
  116MOL   C14530275   3.792   7.163   4.246  0.5149  0.0106  0.7839
  116MOL   C14630276   3.822   7.141   4.389 -0.5396  0.4534  0.6899
  116MOL   C14730277   3.854   7.237   4.472 -0.1134 -0.3716  0.0717
  116MOL   C14830278   3.857   7.386   4.437  0.7027  0.0947 -0.9335
  116MOL   C14930279   3.883   7.199   4.610  0.2458  0.2325 -0.0450
  116MOL   H15030280   3.869   7.226   4.199  0.1041 -1.4182 -1.9241
  116MOL   H15130281   3.814   7.071   4.192  0.1062  0.1301  0.4130
  116MOL   H15230282   3.835   7.037   4.416  0.9587  0.5375  0.3628
  116MOL   H15330283   3.816   7.420   4.341 -1.2016  1.8210  0.4529
  116MOL   H15430284   3.956   7.428   4.450  1.1284 -1.3557  0.7652
  116MOL   H15530285   3.784   7.420   4.510  2.1790  2.0663 -0.3596
  116MOL   H15630286   3.828   7.106   4.626 -0.5071  0.3511 -1.8202
  116MOL   H15730287   3.850   7.270   4.685  0.3830  0.1655  0.0771
  116MOL   C15830288   4.025   7.153   4.628 -0.0813 -0.6161  0.3977
  116MOL   C15930289   4.069   7.132   4.767  0.0743  1.2639 -0.4905
  116MOL   C16030290   4.116   7.217   4.865  0.6192  0.2227 -0.6366
  116MOL   C16130291   4.131   7.359   4.848  0.1195 -0.1582 -0.7115
  116MOL   C16230292   4.138   7.167   5.004  0.7514  0.2757 -0.1586
  116MOL   H16330293   4.091   7.233   4.593  2.6633 -3.4480 -1.1697
  116MOL   H16430294   4.060   7.077   4.558  2.6159  0.3084  0.6633
  116MOL   H16530295   4.063   7.027   4.792 -2.5271  1.2208 -1.1485
  116MOL   H16630296   4.238   7.380   4.853 -0.0127  0.1456  1.4085
  116MOL   H16730297   4.072   7.423   4.913 -1.1954  0.4797 -2.4894
  116MOL   H16830298   4.100   7.396   4.750  0.6815  1.6794 -0.2175
  116MOL   H16930299   4.097   7.068   5.025  0.0951 -0.0663 -2.8169
  116MOL   H17030300   4.086   7.240   5.065  0.2552 -0.2423  0.0446
  116MOL   C17130301   4.279   7.158   5.038  0.0962 -0.8286 -0.2633
  116MOL   C17230302   4.298   7.128   5.185 -0.6620  0.3659 -0.3484
  116MOL   C17330303   4.346   7.010   5.235 -0.0953  0.2793 -0.3201
  116MOL   C17430304   4.371   6.875   5.161  0.7754 -0.4687 -0.1751
  116MOL   C17530305   4.388   7.006   5.383 -0.2045  0.2759 -0.4258
  116MOL   H17630306   4.331   7.253   5.024  0.6642 -1.0127  0.5920
  116MOL   H17730307   4.339   7.094   4.974 -1.0005 -1.4875 -0.6408
  116MOL   H17830308   4.277   7.215   5.245 -0.0913  0.0664  0.2949
  116MOL   H17930309   4.426   6.882   5.067  0.4237  3.6296 -0.1557
  116MOL   H18030310   4.274   6.833   5.135  0.2877 -0.9530  2.3348
  116MOL   H18130311   4.414   6.791   5.215  2.3915  1.1288  1.0906
  116MOL   H18230312   4.350   6.922   5.442  1.1224 -0.3810 -0.4822
  116MOL   H18330313   4.352   7.098   5.427 -1.1748  0.4394 -1.5381
  116MOL   C18430314   4.538   6.995   5.397  0.1115  0.2959 -0.4234
  116MOL   C18530315   4.574   6.963   5.540  0.3685 -0.6321 -0.0136
  116MOL   C18630316   4.623   6.848   5.591 -0.1397 -0.3020  0.2330
  116MOL   C18730317   4.655   6.727   5.509  0.3728  0.7029  0.2905
  116MOL   C18830318   4.652   6.838   5.738  0.8376 -0.2603  0.6605
  116MOL   H18930319   4.595   7.086   5.376  0.8547  0.2710  1.3814
  116MOL   H19030320   4.585   6.925   5.328 -0.9806 -0.6139 -0.2466
  116MOL   H19130321   4.553   7.042   5.610  0.0613  0.5094 -1.3867
  116MOL   H19230322   4.629   6.645   5.575  0.6007  1.5559  1.4502
  116MOL   H19330323   4.761   6.712   5.488  0.6359  0.3255  1.8743
  116MOL   H19430324   4.604   6.717   5.413  1.0970 -2.1016  0.1726
  116MOL   H19530325   4.702   6.928   5.774  0.8192 -0.9266  2.3782
  116MOL   H19630326   4.736   6.769   5.742  0.1629 -1.1977 -0.7659
  116MOL   C19730327   4.533   6.787   5.822  0.3725 -0.5118  0.7036
  116MOL   C19830328   4.582   6.724   5.948  0.0663 -0.5562 -0.2817
  116MOL   C19930329   4.541   6.755   6.078 -0.4349 -0.8437  0.4976
  116MOL   C20030330   4.445   6.871   6.108  1.3168 -0.5016 -0.7279
  116MOL   C20130331   4.582   6.674   6.197  0.1774  1.0592 -0.3085
  116MOL   H20230332   4.485   6.712   5.759 -0.3122  0.7619 -0.3013
  116MOL   H20330333   4.467   6.869   5.847 -1.4434 -1.8349  0.3593
  116MOL   H20430334   4.666   6.656   5.944  0.3820 -0.1107 -1.4837
  116MOL   H20530335   4.498   6.946   6.168 -2.5040  0.4699  1.6355
  116MOL   H20630336   4.365   6.835   6.173  3.3257 -0.5318  1.7997
  116MOL   H20730337   4.388   6.917   6.028  0.9487 -0.3934 -0.4058
  116MOL   H20830338   4.612   6.573   6.169  4.0052  2.4950 -1.8035
  116MOL   H20930339   4.504   6.649   6.269  2.2814 -0.8497  1.3837
  116MOL   C21030340   4.713   6.726   6.272  0.4766  0.0180  1.0164
  116MOL   C21130341   4.768   6.624   6.369  0.5026  0.5106 -0.1725
  116MOL   C21230342   4.866   6.538   6.345 -0.3525 -0.5580  0.3682
  116MOL   C21330343   4.937   6.529   6.214  0.2455  0.0270  1.2006
  116MOL   C21430344   4.927   6.469   6.464  0.1436  0.4049 -0.0835
  116MOL   H21530345   4.681   6.815   6.327  2.3203  1.3051  0.0470
  116MOL   H21630346   4.793   6.750   6.202 -1.4827 -2.3061 -2.1830
  116MOL   H21730347   4.736   6.629   6.472 -0.2464 -1.4078 -0.3020
  116MOL   H21830348   4.995   6.438   6.201 -2.7510 -1.7421 -0.2556
  116MOL   H21930349   4.987   6.623   6.192 -3.0945  1.2724 -1.4439
  116MOL   H22030350   4.857   6.518   6.141  1.0055  1.0770  0.1976
  116MOL   H22130351   4.877   6.490   6.559  1.1633  1.1966  0.2764
  116MOL   H22230352   5.024   6.505   6.497 -0.0609  1.4165 -0.5748
  116MOL   C22330353   4.916   6.319   6.449 -0.3951 -0.2949 -0.2895
  116MOL   C22430354   5.004   6.237   6.540  0.4778  0.4613 -0.2487
  116MOL   C22530355   5.000   6.101   6.544 -0.7044 -0.4664  0.1830
  116MOL   C22630356   4.908   6.017   6.459 -1.0404  0.2748  0.2075
  116MOL   C22730357   5.103   6.016   6.616  0.0910 -0.6326  0.0845
  116MOL   H22830358   4.959   6.291   6.352 -2.9884 -0.6203 -1.3896
  116MOL   H22930359   4.813   6.282   6.449  0.0930 -1.7107 -0.0179
  116MOL   H23030360   5.080   6.296   6.591  0.3310  1.1490 -0.8202
  116MOL   H23130361   4.945   5.998   6.358  0.5465  0.7509  0.6756
  116MOL   H23230362   4.803   6.044   6.452 -1.1810 -0.4909 -0.7581
  116MOL   H23330363   4.909   5.919   6.505  1.6447  0.7736  1.2836
  116MOL   H23430364   5.168   5.972   6.541  0.5909  0.4606 -0.1476
  116MOL   H23530365   5.045   5.940   6.668  0.7461 -1.4856 -0.4134
  116MOL   C23630366   5.186   6.087   6.721 -0.0069 -0.1634 -0.0902
  116MOL   C23730367   5.306   6.002   6.776  0.4420  0.1830  0.0848
  116MOL   C23830368   5.382   6.023   6.886  0.1546  0.4125  0.7105
  116MOL   C23930369   5.366   6.151   6.970 -0.5100 -0.2770  0.1571
  116MOL   C24030370   5.496   5.931   6.916  0.2029 -0.2601 -1.2393
  116MOL   H24130371   5.121   6.119   6.802 -0.8954 -0.3438 -0.7226
  116MOL   H24230372   5.232   6.174   6.675  1.5039 -1.1727 -0.5226
  116MOL   H24330373   5.327   5.922   6.706 -1.5407 -1.6295  1.4928
  116MOL   H24430374   5.337   6.126   7.072 -0.4444  1.5952  0.6632
  116MOL   H24530375   5.303   6.226   6.922  0.5342  0.3409 -0.2687
  116MOL   H24630376   5.459   6.205   6.987 -0.5537  0.0576 -0.6599
  116MOL   H24730377   5.592   5.979   6.897  0.2748  0.3226  0.4990
  116MOL   H24830378   5.486   5.844   6.851  0.8517 -1.7387  0.5881
  116MOL   C24930379   5.488   5.891   7.065  0.4771  0.1785  0.3582
  116MOL   C25030380   5.589   5.786   7.110  0.3862 -0.4487 -0.5704
  116MOL   C25130381   5.625   5.758   7.240 -0.3489  0.3888  0.3763
  116MOL   C25230382   5.559   5.817   7.362  0.8608 -0.3089  0.0222
  116MOL   C25330383   5.727   5.650   7.272 -0.2050 -0.2841 -0.1833
  116MOL   H25430384   5.384   5.874   7.092  0.3657 -1.0941 -0.8025
  116MOL   H25530385   5.517   5.984   7.113 -0.8140  0.1759  1.1649
  116MOL   H25630386   5.655   5.751   7.032  1.7122  1.6340 -0.4404
  116MOL   H25730387   5.529   5.749   7.442  2.0567  0.4188  1.1057
  116MOL   H25830388   5.477   5.885   7.340  1.8743  0.7158 -0.6493
  116MOL   H25930389   5.633   5.884   7.405 -0.3352 -0.7163  2.7905
  116MOL   H26030390   5.670   5.576   7.330 -0.5793  2.0972  2.6119
  116MOL   H26130391   5.802   5.685   7.343  1.0603  1.6984 -2.4734
  116MOL   H26230392   5.769   5.605   7.182 -0.8557 -1.4506  0.0764
  117MOL     C130393   2.717   4.177   2.645 -0.8229 -0.1061 -0.1169
  117MOL     C230394   2.620   4.109   2.742 -0.2967 -0.0914 -0.4117
  117MOL     C330395   2.524   4.026   2.709  0.1865 -0.1334  0.1597
  117MOL     C430396   2.483   3.993   2.569 -0.1582  0.4019  0.0130
  117MOL     C530397   2.452   3.937   2.815  0.0172 -1.0411 -0.0415
  117MOL     H630398   2.716   4.281   2.679 -1.7047 -0.2361  0.2627
  117MOL     H730399   2.819   4.141   2.660  0.1495  1.5349 -2.4211
  117MOL     H830400   2.643   4.111   2.848  0.9523 -0.2159 -0.6634
  117MOL     H930401   2.568   3.951   2.516  0.6318  0.3242  1.3251
  117MOL    H1030402   2.447   4.078   2.511  0.5772  2.2168  2.1156
  117MOL    H1130403   2.410   3.912   2.564  0.6450 -0.2324 -1.5441
  117MOL    H1230404   2.499   3.935   2.913  1.3311 -2.5768 -0.6697
  117MOL    H1330405   2.469   3.840   2.766  0.1055 -0.8097 -0.4758
  117MOL    H1430406   2.696   4.171   2.539  1.6423  0.5104 -0.6823
  117MOL    C1530407   2.295   3.981   2.831  0.0088  0.4225 -0.0129
  117MOL    C1630408   2.240   3.903   2.951  0.0871  0.7454 -0.0819
  117MOL    C1730409   2.192   3.778   2.939  0.3228 -0.5340 -0.1912
  117MOL    C1830410   2.174   3.704   2.807 -0.9271 -0.7000 -0.2096
  117MOL    C1930411   2.126   3.718   3.062 -0.1017 -0.3853 -0.0086
  117MOL    H2030412   2.237   3.977   2.739  2.8969 -1.0423 -1.8735
  117MOL    H2130413   2.298   4.086   2.859 -1.0881  0.2019  0.9396
  117MOL    H2230414   2.241   3.952   3.048 -0.8651 -0.1025  0.3680
  117MOL    H2330415   2.171   3.597   2.826  1.5230 -0.3747  2.3147
  117MOL    H2430416   2.252   3.739   2.739 -0.9527 -1.5578 -0.6813
  117MOL    H2530417   2.079   3.737   2.763  0.1608  2.2573 -0.4577
  117MOL    H2630418   2.135   3.783   3.149 -1.6970 -0.4573  0.2230
  117MOL    H2730419   2.172   3.621   3.081 -1.8906 -1.2241  0.0584
  117MOL    C2830420   1.972   3.706   3.034  0.0928  0.3347 -0.2188
  117MOL    C2930421   1.904   3.840   3.004  0.1407  0.1406 -0.2471
  117MOL    C3030422   1.803   3.909   3.071 -1.0912  0.1180 -0.2978
  117MOL    C3130423   1.729   3.859   3.187  0.1512  0.3468 -0.5010
  117MOL    C3230424   1.762   4.042   3.008  0.9114  0.8326  0.0899
  117MOL    H3330425   1.921   3.671   3.124 -0.4548 -0.8433 -0.9731
  117MOL    H3430426   1.956   3.634   2.953  2.7397 -2.0028  1.2897
  117MOL    H3530427   1.938   3.887   2.914  0.9576 -2.0978 -1.1383
  117MOL    H3630428   1.762   3.910   3.277 -1.1132 -1.7977  1.2510
  117MOL    H3730429   1.719   3.754   3.214  2.5344  0.4271  0.8018
  117MOL    H3830430   1.628   3.892   3.163  0.8889  1.2717 -2.3906
  117MOL    H3930431   1.848   4.080   2.953  0.0273 -0.0301 -1.9193
  117MOL    H4030432   1.738   4.119   3.082 -2.5374 -0.7829  0.7534
  117MOL    C4130433   1.640   4.021   2.909  0.3070 -0.2384 -0.2538
  117MOL    C4230434   1.638   4.132   2.809 -0.4703 -0.2821  0.1355
  117MOL    C4330435   1.532   4.202   2.761 -0.4530  0.1852  0.4035
  117MOL    C4430436   1.387   4.199   2.808  0.3016 -0.6442  0.8451
  117MOL    C4530437   1.553   4.292   2.635 -0.2797 -0.3932  0.5646
  117MOL    H4630438   1.550   4.006   2.969  0.2587 -1.0901 -0.5340
  117MOL    H4730439   1.654   3.930   2.850 -1.8825 -0.4569 -0.4805
  117MOL    H4830440   1.732   4.142   2.756  0.1252 -0.2726  1.1638
  117MOL    H4930441   1.363   4.292   2.860 -0.3182  1.2978 -2.7854
  117MOL    H5030442   1.363   4.115   2.874 -0.4355  0.2981  1.8114
  117MOL    H5130443   1.321   4.193   2.722  0.1977  1.0921  0.7909
  117MOL    H5230444   1.486   4.255   2.557 -3.8966  2.0358  2.3798
  117MOL    H5330445   1.659   4.284   2.610 -0.7538 -1.1509 -1.2958
  117MOL    C5430446   1.516   4.439   2.652  0.0838  0.7995 -0.5894
  117MOL    C5530447   1.535   4.519   2.529 -1.0080  0.0612 -0.5720
  117MOL    C5630448   1.640   4.597   2.493 -0.2255 -0.0946  0.4758
  117MOL    C5730449   1.759   4.631   2.586 -0.5323  0.3691 -0.2031
  117MOL    C5830450   1.653   4.659   2.353 -0.4789  0.5227  0.2015
  117MOL    H5930451   1.584   4.479   2.727  1.1751 -0.6907 -0.7769
  117MOL    H6030452   1.414   4.449   2.689 -0.4942  1.6999 -2.3187
  117MOL    H6130453   1.458   4.499   2.455  1.2807 -1.4072 -2.6505
  117MOL    H6230454   1.777   4.554   2.662 -0.3093  1.0138  0.3991
  117MOL    H6330455   1.748   4.722   2.645  0.4445 -0.3877  1.2042
  117MOL    H6430456   1.848   4.630   2.524 -0.5796  0.4878 -0.2718
  117MOL    H6530457   1.679   4.764   2.359  0.4448  0.3411 -0.3135
  117MOL    H6630458   1.557   4.645   2.303 -1.5185 -1.2782  2.6174
  117MOL    C6730459   1.751   4.587   2.260 -0.1584  0.0279  0.9892
  117MOL    C6830460   1.704   4.591   2.113  0.4799 -0.1079 -0.0457
  117MOL    C6930461   1.780   4.623   2.008  0.0548  0.4049  0.3530
  117MOL    C7030462   1.932   4.634   2.023  0.3041  0.3022 -0.1353
  117MOL    C7130463   1.723   4.642   1.866 -0.1866  0.5197 -0.7813
  117MOL    H7230464   1.756   4.484   2.295  1.7274 -0.3003 -0.1739
  117MOL    H7330465   1.851   4.629   2.269 -0.3136  0.3003  1.4630
  117MOL    H7430466   1.602   4.560   2.099 -0.3204  2.5412 -0.3397
  117MOL    H7530467   1.959   4.716   2.089  1.9693  0.2963 -0.7891
  117MOL    H7630468   1.979   4.669   1.931 -0.5584  0.5403 -0.4886
  117MOL    H7730469   1.973   4.536   2.049 -0.7783 -0.6266 -1.8386
  117MOL    H7830470   1.760   4.733   1.821  1.8918 -0.7725 -1.7479
  117MOL    H7930471   1.617   4.659   1.884 -0.1770  1.1230 -1.2918
  117MOL    C8030472   1.750   4.517   1.772 -1.1572  0.3621 -0.8485
  117MOL    C8130473   1.688   4.394   1.828  0.1114  1.0660 -0.3105
  117MOL    C8230474   1.565   4.349   1.788  0.4100 -0.6070 -0.7599
  117MOL    C8330475   1.481   4.421   1.674 -0.0458 -0.5475  0.3293
  117MOL    C8430476   1.503   4.225   1.835  0.1291 -0.4291 -0.2540
  117MOL    H8530477   1.857   4.502   1.760 -1.0680 -0.4724  0.8720
  117MOL    H8630478   1.710   4.552   1.677 -2.6436 -0.4003 -0.5327
  117MOL    H8730479   1.750   4.347   1.903 -0.7035 -0.7457 -0.7459
  117MOL    H8830480   1.401   4.482   1.714  1.3118  0.8373  0.9710
  117MOL    H8930481   1.421   4.345   1.622 -1.2830  0.3270  0.4710
  117MOL    H9030482   1.529   4.478   1.594 -1.1565  1.1139  0.8290
  117MOL    H9130483   1.396   4.242   1.823  0.3499 -0.2506 -2.1175
  117MOL    H9230484   1.523   4.216   1.942 -0.0601 -1.7417 -0.3223
  117MOL    C9330485   1.547   4.100   1.763 -0.0322 -0.2155  0.5430
  117MOL    C9430486   1.462   3.981   1.814 -0.4311  0.3595  0.2718
  117MOL    C9530487   1.370   3.912   1.752 -0.1296  0.0052  0.1374
  117MOL    C9630488   1.330   3.954   1.605  0.0935  0.0346  0.3289
  117MOL    C9730489   1.296   3.795   1.819 -0.3666  0.1663  0.5264
  117MOL    H9830490   1.654   4.088   1.784  0.2983 -2.0990 -2.0297
  117MOL    H9930491   1.538   4.119   1.656  2.8099  1.4417  0.5309
  117MOL   H10030492   1.480   3.953   1.916  2.4420 -0.0389 -0.2777
  117MOL   H10130493   1.403   3.921   1.531 -0.3695 -1.1029  0.3721
  117MOL   H10230494   1.335   4.062   1.599  3.1925 -0.0408  0.7292
  117MOL   H10330495   1.230   3.926   1.574  0.3794 -0.2018 -0.3859
  117MOL   H10430496   1.204   3.775   1.765  0.3840 -2.9380  0.3070
  117MOL   H10530497   1.264   3.833   1.916 -0.8198  0.6407  0.1895
  117MOL   C10630498   1.382   3.665   1.811  0.0980 -0.0935 -0.3888
  117MOL   C10730499   1.305   3.557   1.886  0.2784  0.3403  0.1338
  117MOL   C10830500   1.303   3.422   1.867 -1.0444 -0.3605 -0.1711
  117MOL   C10930501   1.362   3.347   1.747 -0.5666 -0.4416 -0.1457
  117MOL   C11030502   1.233   3.331   1.973 -0.3823 -0.2985 -0.3435
  117MOL   H11130503   1.480   3.687   1.854 -0.0481 -0.4426  0.1211
  117MOL   H11230504   1.404   3.623   1.713  0.5926  0.0830 -0.3568
  117MOL   H11330505   1.259   3.601   1.973 -1.4418  1.8562 -1.4820
  117MOL   H11430506   1.288   3.287   1.694 -1.9995  0.8271  0.3744
  117MOL   H11530507   1.437   3.274   1.777 -0.8806 -0.7642 -0.1408
  117MOL   H11630508   1.398   3.425   1.679 -4.2029  2.6766  1.3406
  117MOL   H11730509   1.222   3.383   2.068 -0.5670 -1.3705  0.2280
  117MOL   H11830510   1.305   3.249   1.985 -0.0507 -0.0928 -0.8962
  117MOL   C11930511   1.095   3.289   1.931 -0.5009 -0.1789 -0.3784
  117MOL   C12030512   1.035   3.206   2.042 -0.3119 -0.1422  0.3659
  117MOL   C12130513   0.912   3.195   2.094 -0.4354 -0.4072 -0.4311
  117MOL   C12230514   0.797   3.276   2.056 -0.0727 -0.1408 -0.4047
  117MOL   C12330515   0.892   3.101   2.209 -0.7725  0.0251 -0.3675
  117MOL   H12430516   1.088   3.227   1.841 -1.8748 -0.4611 -0.0871
  117MOL   H12530517   1.029   3.376   1.924 -2.1714 -1.3180  0.8359
  117MOL   H12630518   1.115   3.148   2.085 -0.9565 -1.0727  0.3177
  117MOL   H12730519   0.718   3.208   2.025 -0.2861 -0.4061  0.7065
  117MOL   H12830520   0.835   3.342   1.978  3.6833 -3.3936 -1.4905
  117MOL   H12930521   0.764   3.338   2.139  0.4035  1.1400 -1.1603
  117MOL   H13030522   0.979   3.036   2.217  0.0024  1.3270  2.7243
  117MOL   H13130523   0.811   3.031   2.188 -0.4800 -0.7030  0.8252
  117MOL   C13230524   0.873   3.176   2.338  0.0523  0.1622 -0.1995
  117MOL   C13330525   0.886   3.084   2.459 -0.1301 -0.3435  0.4066
  117MOL   C13430526   0.818   3.072   2.571  0.1429 -0.0458 -0.4819
  117MOL   C13530527   0.705   3.166   2.616  0.2186  0.3160  0.2501
  117MOL   C13630528   0.860   2.966   2.681 -0.2625  0.4659 -0.3727
  117MOL   H13730529   0.780   3.232   2.338 -0.0509 -0.0064 -0.2307
  117MOL   H13830530   0.956   3.245   2.346  1.5855 -1.2974 -2.8953
  117MOL   H13930531   0.962   3.010   2.441  1.0423  0.7521  0.7620
  117MOL   H14030532   0.668   3.227   2.533  0.6474 -2.5497 -2.0953
  117MOL   H14130533   0.741   3.239   2.689  1.4174 -0.5017  0.4832
  117MOL   H14230534   0.618   3.114   2.655 -0.4457  0.8599 -0.4770
  117MOL   H14330535   0.875   2.870   2.631  0.9787 -0.1607  1.1825
  117MOL   H14430536   0.774   2.949   2.745 -1.9323  1.9895 -2.1664
  117MOL   C14530537   0.982   3.019   2.759 -0.5924  0.0376 -0.3216
  117MOL   C14630538   1.050   2.897   2.824  0.3352  0.0768  0.1775
  117MOL   C14730539   1.177   2.851   2.811 -0.1758 -0.3852  0.5157
  117MOL   C14830540   1.284   2.914   2.722  0.1848 -0.4050  0.2089
  117MOL   C14930541   1.226   2.730   2.883  1.1638  0.1032 -0.2965
  117MOL   H15030542   0.972   3.110   2.818 -2.0459 -1.2552  1.4881
  117MOL   H15130543   1.052   3.053   2.682 -1.2242 -0.5574 -1.1689
  117MOL   H15230544   0.977   2.835   2.873 -0.0688  1.1564  0.9574
  117MOL   H15330545   1.265   2.880   2.620  0.0569  3.3581 -1.0775
  117MOL   H15430546   1.384   2.888   2.755 -0.3566 -3.3559 -0.3121
  117MOL   H15530547   1.275   3.022   2.724 -1.1948 -0.4843 -0.8610
  117MOL   H15630548   1.260   2.656   2.810  0.4218  0.0115 -0.5513
  117MOL   H15730549   1.148   2.670   2.930  3.0218  0.1120  3.0118
  117MOL   C15830550   1.330   2.746   2.993  0.3901 -0.6508 -0.3298
  117MOL   C15930551   1.386   2.612   3.050  0.1910 -0.6476 -0.4401
  117MOL   C16030552   1.461   2.596   3.157  0.4259  0.6176  0.2047
  117MOL   C16130553   1.518   2.711   3.239 -0.7459 -0.4219 -0.0931
  117MOL   C16230554   1.504   2.463   3.189 -0.0173 -0.9645 -0.5880
  117MOL   H16330555   1.297   2.811   3.074  0.9831 -0.7499 -0.0111
  117MOL   H16430556   1.421   2.791   2.954  0.6206  0.8343  1.8287
  117MOL   H16530557   1.358   2.532   2.983 -2.1999 -0.8156  0.6950
  117MOL   H16630558   1.620   2.689   3.270 -0.7538  1.2106  1.1894
  117MOL   H16730559   1.454   2.729   3.325  1.1130 -0.0332  1.2372
  117MOL   H16830560   1.516   2.798   3.172  2.6077  1.4351  2.1033
  117MOL   H16930561   1.427   2.388   3.167  0.4546 -2.9378  3.9159
  117MOL   H17030562   1.509   2.455   3.297  1.5391 -2.5040 -0.7589
  117MOL   C17130563   1.650   2.427   3.128  0.2405 -0.6030 -0.6198
  117MOL   C17230564   1.652   2.399   2.978  0.7018  0.6415 -0.1306
  117MOL   C17330565   1.751   2.411   2.887 -0.0986 -0.0157  0.2007
  117MOL   C17430566   1.889   2.474   2.907  0.0679 -0.2224 -0.3863
  117MOL   C17530567   1.724   2.362   2.747  0.4636  0.8867  0.5597
  117MOL   H17630568   1.690   2.335   3.172 -0.5649 -0.4205  0.5200
  117MOL   H17730569   1.718   2.496   3.177  0.6484 -1.5377  0.1554
  117MOL   H17830570   1.559   2.355   2.946  0.8026  0.7398 -0.5533
  117MOL   H17930571   1.915   2.474   3.013  1.4576 -1.4719 -0.7070
  117MOL   H18030572   1.893   2.573   2.862 -0.2385  0.2461  0.6152
  117MOL   H18130573   1.967   2.415   2.860  0.1691  0.2324 -0.7922
  117MOL   H18230574   1.650   2.284   2.761  2.7254 -1.3274  0.4737
  117MOL   H18330575   1.809   2.316   2.698 -0.1061  1.1098 -0.6413
  117MOL   C18430576   1.655   2.469   2.652 -0.3102  0.8064  0.1410
  117MOL   C18530577   1.623   2.413   2.516 -0.8057  0.4965  0.4669
  117MOL   C18630578   1.504   2.406   2.450 -0.0487  0.5878  0.0854
  117MOL   C18730579   1.378   2.457   2.503  0.1686  0.5048  0.0047
  117MOL   C18830580   1.502   2.354   2.303 -0.2408  1.0844  0.0431
  117MOL   H18930581   1.741   2.534   2.633  0.7528 -0.6254 -0.0319
  117MOL   H19030582   1.576   2.534   2.688 -1.7232 -0.8557  0.0797
  117MOL   H19130583   1.709   2.374   2.464 -0.2456  1.5794  0.5576
  117MOL   H19230584   1.310   2.373   2.518 -1.2270  1.4255 -1.1290
  117MOL   H19330585   1.332   2.527   2.433  2.6479  0.4315 -1.7879
  117MOL   H19430586   1.378   2.509   2.598  0.2318 -0.2144  0.4020
  117MOL   H19530587   1.400   2.342   2.268 -0.6701  1.6093  1.0748
  117MOL   H19630588   1.545   2.254   2.307  1.2526  1.6915 -0.5852
  117MOL   C19730589   1.589   2.439   2.215 -0.4290 -0.3240  0.1379
  117MOL   C19830590   1.586   2.405   2.067 -0.3303 -1.0941 -0.3980
  117MOL   C19930591   1.620   2.495   1.975  0.0707  0.4687  0.0949
  117MOL   C20030592   1.657   2.633   2.004  0.0878 -0.5754  0.1411
  117MOL   C20130593   1.618   2.464   1.832  0.8120 -0.0267 -0.2487
  117MOL   H20230594   1.689   2.423   2.254  0.5668  5.0541  0.0692
  117MOL   H20330595   1.570   2.545   2.228 -1.2897 -0.4179 -0.2950
  117MOL   H20430596   1.552   2.304   2.048 -0.2407 -0.9632 -1.2904
  117MOL   H20530597   1.693   2.660   2.103  0.7343  2.5973 -0.9076
  117MOL   H20630598   1.572   2.698   1.987  1.1318  1.0279  0.9648
  117MOL   H20730599   1.729   2.672   1.931  0.9143 -1.6279  0.3724
  117MOL   H20830600   1.561   2.542   1.783  0.4719  0.8344  1.4708
  117MOL   H20930601   1.549   2.380   1.820 -1.7593  2.2754 -1.9077
  117MOL   C21030602   1.754   2.423   1.775  1.1278 -0.4211  0.2324
  117MOL   C21130603   1.744   2.381   1.630  0.0962  0.2673 -0.6213
  117MOL   C21230604   1.844   2.403   1.539  0.1108 -0.3480  0.4376
  117MOL   C21330605   1.974   2.477   1.580  0.0199 -0.4380  0.0565
  117MOL   C21430606   1.833   2.363   1.389  0.3742  0.2533 -0.0638
  117MOL   H21530607   1.795   2.338   1.828 -0.2685 -0.9321  0.5196
  117MOL   H21630608   1.813   2.514   1.784 -0.7359  1.5412 -4.9353
  117MOL   H21730609   1.660   2.321   1.597  0.4516 -0.6280  0.0980
  117MOL   H21830610   1.981   2.467   1.688  2.0850 -0.6201 -0.0753
  117MOL   H21930611   1.962   2.578   1.540 -1.4964 -1.1802 -1.4803
  117MOL   H22030612   2.056   2.426   1.530  0.3747 -0.4540  0.6535
  117MOL   H22130613   1.727   2.340   1.378  0.4343  0.6399 -1.5667
  117MOL   H22230614   1.893   2.275   1.363 -1.7274 -0.6430 -2.0347
  117MOL   C22330615   1.864   2.472   1.287  0.1841 -0.2513  0.2036
  117MOL   C22430616   1.842   2.424   1.141 -0.0175  0.3423  0.0699
  117MOL   C22530617   1.747   2.468   1.055  0.3751  0.2985  0.4297
  117MOL   C22630618   1.631   2.556   1.087 -0.1156  0.3279  0.4576
  117MOL   C22730619   1.748   2.420   0.914  0.1597 -0.4449  1.0696
  117MOL   H22830620   1.972   2.490   1.279  0.3738 -2.1566 -2.3142
  117MOL   H22930621   1.818   2.569   1.304  0.3514 -0.1816  0.2631
  117MOL   H23030622   1.907   2.351   1.094  2.5545  1.5556  1.6376
  117MOL   H23130623   1.540   2.509   1.050  0.1653  1.3500 -1.6294
  117MOL   H23230624   1.650   2.656   1.046 -0.3457  0.7053  1.2635
  117MOL   H23330625   1.618   2.565   1.195  2.7664  2.4933  0.7055
  117MOL   H23430626   1.650   2.379   0.890  1.3925 -1.5394 -2.2622
  117MOL   H23530627   1.816   2.336   0.901 -1.2240 -1.6870  1.7321
  117MOL   C23630628   1.795   2.530   0.820 -0.4416  0.3014 -0.0262
  117MOL   C23730629   1.842   2.475   0.682  0.4298  0.3533 -0.1131
  117MOL   C23830630   1.774   2.494   0.567  0.4460  0.1853  0.1099
  117MOL   C23930631   1.655   2.586   0.559  0.5299 -0.3099  0.2786
  117MOL   C24030632   1.818   2.428   0.435 -0.0694 -0.3737 -0.1152
  117MOL   H24130633   1.881   2.571   0.872  0.4913 -0.3358 -1.0497
  117MOL   H24230634   1.715   2.603   0.810 -2.1106 -1.3650  0.8751
  117MOL   H24330635   1.921   2.401   0.684  3.8407  3.8419  0.8406
  117MOL   H24430636   1.692   2.687   0.540  0.8626 -0.2366  1.2578
  117MOL   H24530637   1.595   2.598   0.650 -1.1506 -0.1997 -0.8169
  117MOL   H24630638   1.594   2.569   0.471  0.4915 -0.8003  0.3994
  117MOL   H24730639   1.927   2.434   0.441  0.0115 -1.4007 -0.5040
  117MOL   H24830640   1.784   2.485   0.348 -0.2301  0.7853  0.6932
  117MOL   C24930641   1.763   2.278   0.425 -0.0666 -0.0335 -0.4115
  117MOL   C25030642   1.818   2.182   0.533  0.0636 -0.0962 -0.9523
  117MOL   C25130643   1.906   2.077   0.519  0.1650 -0.3107  0.4075
  117MOL   C25230644   1.981   2.041   0.386  0.0562 -0.3629  0.1787
  117MOL   C25330645   1.943   1.995   0.639  0.1927 -0.4465  0.0389
  117MOL   H25430646   1.798   2.233   0.331 -0.2797 -2.2239  0.5126
  117MOL   H25530647   1.654   2.284   0.422 -0.0834  0.2798  0.6923
  117MOL   H25630648   1.776   2.187   0.632 -1.1827  1.4493 -1.5417
  117MOL   H25730649   1.945   2.095   0.298 -1.1439 -1.2364  0.1092
  117MOL   H25830650   1.967   1.935   0.364 -1.9891 -0.1348  0.2732
  117MOL   H25930651   2.088   2.056   0.401 -0.0134 -0.0496  0.3671
  117MOL   H26030652   2.044   1.956   0.640 -0.1206 -1.3089 -1.2502
  117MOL   H26130653   1.877   1.910   0.625  0.4427 -0.2863 -2.4306
  117MOL   H26230654   1.905   2.026   0.736  0.8874  0.4179  0.0406
  118MOL     C130655   5.837   4.205   5.763  0.7304 -0.0441  0.0022
  118MOL     C230656   5.826   4.095   5.867  0.0511  0.0458  0.4126
  118MOL     C330657   5.867   4.101   5.998 -0.0823 -0.9078  0.3791
  118MOL     C430658   5.936   4.228   6.051 -0.3537 -0.3390  0.1615
  118MOL     C530659   5.864   3.985   6.089  0.9891 -0.1932 -0.2936
  118MOL     H630660   5.912   4.283   5.772  1.7066 -0.8660 -0.8311
  118MOL     H730661   5.859   4.162   5.665 -1.4003  1.0868 -1.0036
  118MOL     H830662   5.771   4.016   5.818 -0.9088  1.4643 -0.8285
  118MOL     H930663   6.002   4.263   5.972  0.8049 -2.7377  0.0095
  118MOL    H1030664   6.004   4.203   6.133 -1.2619 -2.5287  0.2940
  118MOL    H1130665   5.862   4.306   6.070 -0.5814 -0.1846 -1.3273
  118MOL    H1230666   5.790   3.999   6.167 -0.3410  0.1220 -1.5714
  118MOL    H1330667   5.959   3.986   6.142 -0.3417 -1.2567  2.1531
  118MOL    H1430668   5.746   4.262   5.746  1.5420  1.4862  0.6955
  118MOL    C1530669   5.830   3.848   6.024 -0.1685  0.3684  0.4519
  118MOL    C1630670   5.816   3.729   6.122  0.0903 -0.4648  0.8203
  118MOL    C1730671   5.748   3.614   6.110 -0.0212  0.0561 -0.2874
  118MOL    C1830672   5.699   3.565   5.984 -0.2720  0.4163  0.1185
  118MOL    C1930673   5.729   3.513   6.227 -0.0559 -0.6868 -0.1247
  118MOL    H2030674   5.912   3.825   5.956  1.0002 -0.2392  2.0312
  118MOL    H2130675   5.736   3.851   5.969  0.1994  0.0007 -0.2037
  118MOL    H2230676   5.859   3.752   6.218 -2.8909  0.3901  2.0192
  118MOL    H2330677   5.743   3.467   5.966  0.1805  0.5267  0.6317
  118MOL    H2430678   5.727   3.640   5.909  1.4530  1.6691  1.9539
  118MOL    H2530679   5.592   3.547   5.969  0.3686 -1.7756 -2.2245
  118MOL    H2630680   5.800   3.537   6.306  1.3504 -1.8780 -1.0022
  118MOL    H2730681   5.771   3.420   6.188 -0.9575 -1.9212  1.7405
  118MOL    C2830682   5.588   3.487   6.277 -0.4017 -0.2447 -0.0562
  118MOL    C2930683   5.596   3.391   6.400 -0.2337  0.0372  0.2396
  118MOL    C3030684   5.539   3.410   6.517 -0.3236 -0.3670 -0.4652
  118MOL    C3130685   5.462   3.531   6.565 -0.3412 -0.9574  0.3973
  118MOL    C3230686   5.544   3.298   6.628  0.6101 -0.4399  0.3315
  118MOL    H3330687   5.528   3.447   6.195  0.5856 -0.2498 -0.7981
  118MOL    H3430688   5.550   3.586   6.298 -0.0882 -0.4087  1.3510
  118MOL    H3530689   5.643   3.296   6.380  0.1800  0.0102  1.3181
  118MOL    H3630690   5.393   3.516   6.648 -0.3396 -1.7957  0.2541
  118MOL    H3730691   5.406   3.575   6.483  1.0830 -2.0378 -1.1881
  118MOL    H3830692   5.526   3.610   6.606 -3.7640  0.9590  2.2742
  118MOL    H3930693   5.581   3.362   6.708 -2.1322  0.3583  1.0396
  118MOL    H4030694   5.613   3.220   6.597 -0.3492 -0.9007 -0.7118
  118MOL    C4130695   5.409   3.233   6.660  0.1969  0.4764 -0.0656
  118MOL    C4230696   5.409   3.152   6.793 -0.4106  0.1452 -0.1875
  118MOL    C4330697   5.315   3.147   6.888 -0.1545  0.0305  0.4965
  118MOL    C4430698   5.189   3.232   6.898  0.2391 -0.2091 -0.7362
  118MOL    C4530699   5.335   3.056   7.008 -0.6908  0.4657 -0.3485
  118MOL    H4630700   5.372   3.156   6.594 -0.0178 -0.3646  1.0318
  118MOL    H4730701   5.330   3.308   6.665  1.1028  1.3239  1.9860
  118MOL    H4830702   5.485   3.075   6.797 -0.4532  0.1788  2.1090
  118MOL    H4930703   5.165   3.286   6.806  0.6673 -0.9505 -1.2781
  118MOL    H5030704   5.205   3.311   6.972 -2.9497  0.1945 -0.4009
  118MOL    H5130705   5.110   3.165   6.933  1.7433 -1.2607  0.6702
  118MOL    H5230706   5.291   3.107   7.094 -1.4517  0.2440 -0.5946
  118MOL    H5330707   5.440   3.043   7.033 -0.9792 -3.7891 -1.0270
  118MOL    C5430708   5.285   2.919   6.987  0.3265  0.1230  0.4804
  118MOL    C5530709   5.350   2.806   7.066 -0.3283  0.1049 -0.1525
  118MOL    C5630710   5.451   2.727   7.027  0.5017 -0.6281  0.5717
  118MOL    C5730711   5.520   2.753   6.893 -0.0693 -0.0445  0.0420
  118MOL    C5830712   5.520   2.623   7.119  0.0711 -0.5588  0.1421
  118MOL    H5930713   5.292   2.890   6.882 -2.0197 -0.4138  0.4454
  118MOL    H6030714   5.179   2.915   7.013 -0.2430  1.2960 -1.5393
  118MOL    H6130715   5.306   2.794   7.164 -1.6810  1.0974 -0.6350
  118MOL    H6230716   5.625   2.732   6.911 -0.2227  0.2057  1.2840
  118MOL    H6330717   5.516   2.857   6.862 -3.0860  0.0126  0.4468
  118MOL    H6430718   5.477   2.692   6.814  1.4233 -0.1186 -0.7265
  118MOL    H6530719   5.595   2.688   7.166  0.6359 -2.0279  1.3262
  118MOL    H6630720   5.582   2.550   7.067  1.0301  0.3324  0.0113
  118MOL    C6730721   5.437   2.569   7.237 -0.3208 -0.1529 -0.2433
  118MOL    C6830722   5.533   2.524   7.342  0.3805 -0.4246  0.0388
  118MOL    C6930723   5.555   2.395   7.377  0.8655  0.1638  0.3961
  118MOL    C7030724   5.477   2.277   7.317 -0.5392 -0.0061 -0.3816
  118MOL    C7130725   5.656   2.367   7.480 -0.1781  0.3227  0.4129
  118MOL    H7230726   5.364   2.493   7.209 -1.6584  0.7871  0.5920
  118MOL    H7330727   5.368   2.646   7.273 -0.2197  0.9892 -2.4417
  118MOL    H7430728   5.577   2.604   7.399  0.1933 -0.2655 -0.0365
  118MOL    H7530729   5.427   2.295   7.221  0.3965 -0.0819 -0.8851
  118MOL    H7630730   5.396   2.259   7.388 -2.8148  0.8731 -2.6591
  118MOL    H7730731   5.531   2.182   7.311  2.5100  1.6699 -0.1696
  118MOL    H7830732   5.617   2.313   7.567  0.9291 -0.9347  0.1422
  118MOL    H7930733   5.697   2.463   7.511  1.9773  0.0547 -1.4972
  118MOL    C8030734   5.769   2.278   7.420  1.3175 -0.2775 -0.2951
  118MOL    C8130735   5.887   2.265   7.521 -0.3860 -0.2360 -0.3212
  118MOL    C8230736   5.910   2.164   7.606  0.0616  0.4243 -0.5642
  118MOL    C8330737   5.843   2.033   7.607 -0.2076  0.3973 -0.4625
  118MOL    C8430738   6.008   2.177   7.723  0.5163 -0.6939  0.0500
  118MOL    H8530739   5.798   2.335   7.331  0.2835  0.3428 -0.2475
  118MOL    H8630740   5.731   2.181   7.391  0.6160 -0.3808  0.9586
  118MOL    H8730741   5.952   2.352   7.526  0.4230 -0.9021  0.9448
  118MOL    H8830742   5.782   2.022   7.517 -1.3294  0.1932  0.3187
  118MOL    H8930743   5.774   2.009   7.687  0.1317 -4.9186 -1.5579
  118MOL    H9030744   5.905   1.944   7.596  0.0512  0.5704 -0.3989
  118MOL    H9130745   6.072   2.260   7.693 -1.6511  1.2026  0.5433
  118MOL    H9230746   6.059   2.080   7.720  2.0414  0.0774  0.7028
  118MOL    C9330747   5.940   2.201   7.854  0.0204  0.2443 -0.6892
  118MOL    C9430748   6.019   2.297   0.057  0.3445 -0.9778 -0.3365
  118MOL    C9530749   5.977   2.418   0.094  0.0598  0.3186  0.0314
  118MOL    C9630750   5.852   2.490   0.039 -0.1794 -0.3087  0.0083
  118MOL    C9730751   6.054   2.499   0.201 -0.0983 -0.2242  0.3213
  118MOL    H9830752   5.926   2.112   0.033  0.3214  2.1130  2.1995
  118MOL    H9930753   5.848   2.248   7.819  0.6085 -1.5281 -4.8995
  118MOL   H10030754   6.104   2.250   0.103  1.1761 -1.0429 -1.9126
  118MOL   H10130755   5.832   2.466   7.817  0.4732  1.2576 -0.4963
  118MOL   H10230756   5.863   2.598   0.052 -0.3453 -0.5185  1.9596
  118MOL   H10330757   5.770   2.451   0.099 -1.2206  0.4283 -0.9061
  118MOL   H10430758   6.084   2.596   0.161 -0.9894 -0.6936 -1.5677
  118MOL   H10530759   6.149   2.455   0.227 -0.3616 -0.8127  0.2940
  118MOL   C10630760   5.967   2.537   0.327 -0.1572 -0.4942  0.2212
  118MOL   C10730761   6.061   2.619   0.419 -0.8275 -0.0181  0.2908
  118MOL   C10830762   6.035   2.732   0.483  0.1226  0.1165 -0.1103
  118MOL   C10930763   5.903   2.796   0.459 -0.9095  0.7106 -0.0395
  118MOL   C11030764   6.141   2.806   0.563 -0.4194  0.2056 -0.1051
  118MOL   H11130765   5.929   2.447   0.375 -1.6772 -0.1878 -0.3787
  118MOL   H11230766   5.881   2.593   0.289 -1.8020 -0.2449  4.0973
  118MOL   H11330767   6.155   2.567   0.431 -2.1472 -2.2949  1.0438
  118MOL   H11430768   5.827   2.718   0.447 -1.3688  1.2227 -0.4765
  118MOL   H11530769   5.894   2.873   0.382 -0.3231  1.0640  0.2487
  118MOL   H11630770   5.870   2.847   0.549 -1.8093 -1.6347  1.0193
  118MOL   H11730771   6.201   2.722   0.597 -0.9294 -0.7806 -1.6038
  118MOL   H11830772   6.090   2.841   0.653  0.2942 -1.1019  0.8263
  118MOL   C11930773   6.214   2.919   0.492  0.6486  0.0900  0.9770
  118MOL   C12030774   6.123   3.008   0.408  0.6868 -0.6325  0.4040
  118MOL   C12130775   6.052   3.117   0.449  0.4062 -0.2985  0.5687
  118MOL   C12230776   6.056   3.180   0.590 -0.2894  0.2971  0.8439
  118MOL   C12330777   5.969   3.190   0.341  0.6416  0.0197 -0.4676
  118MOL   H12430778   6.281   2.864   0.426  0.8974 -0.5720  1.7759
  118MOL   H12530779   6.275   2.968   0.568  1.8985  0.5846 -0.3123
  118MOL   H12630780   6.116   2.986   0.303 -1.0132  1.2903  0.0862
  118MOL   H12730781   6.161   3.184   0.620 -0.0525 -2.8053  0.5049
  118MOL   H12830782   6.008   3.115   0.663 -0.1263  0.2987  0.9537
  118MOL   H12930783   6.012   3.280   0.597  0.5592  0.9126 -1.9525
  118MOL   H13030784   5.992   3.161   0.238 -0.0738  0.2252 -0.6939
  118MOL   H13130785   5.996   3.296   0.343  2.5702 -0.4051 -2.2480
  118MOL   C13230786   5.822   3.180   0.363  0.0462 -0.1904  0.3615
  118MOL   C13330787   5.749   3.217   0.243  0.1672 -0.4057 -0.4436
  118MOL   C13430788   5.669   3.324   0.229  0.0026 -0.5242  0.2084
  118MOL   C13530789   5.644   3.418   0.346 -0.4079 -0.5076  0.9079
  118MOL   C13630790   5.597   3.360   0.103 -0.4913 -1.0457 -0.3945
  118MOL   H13730791   5.792   3.230   0.455  0.8995 -0.6186  0.8851
  118MOL   H13830792   5.807   3.072   0.368  1.5914 -0.3440  2.3515
  118MOL   H13930793   5.777   3.147   0.165  2.2178 -0.2335  0.1138
  118MOL   H14030794   5.547   3.394   0.389 -0.4173  2.5374  2.7765
  118MOL   H14130795   5.629   3.519   0.308  0.5685 -0.7615 -0.1548
  118MOL   H14230796   5.728   3.432   0.414 -0.2320 -1.2040  0.8326
  118MOL   H14330797   5.646   3.306   0.022  2.9066 -0.0739  0.9524
  118MOL   H14430798   5.606   3.466   0.082  0.6160 -1.0673 -0.0079
  118MOL   C14530799   5.447   3.329   0.110  0.1263 -0.3502  0.3667
  118MOL   C14630800   5.384   3.363   7.856 -0.9669 -0.0806  0.1323
  118MOL   C14730801   5.313   3.476   7.830 -0.1875  0.4751  0.5011
  118MOL   C14830802   5.291   3.592   0.038  0.2998 -0.8953 -0.0787
  118MOL   C14930803   5.264   3.483   7.683 -0.5801  0.3348 -0.2071
  118MOL   H15030804   5.395   3.373   0.195 -0.3979 -1.3355  0.5654
  118MOL   H15130805   5.446   3.221   0.124 -0.5719 -0.9279 -3.3999
  118MOL   H15230806   5.389   3.282   7.784 -1.9901  0.1503 -0.2003
  118MOL   H15330807   5.200   3.561   0.089  0.1201  1.3100  0.9705
  118MOL   H15430808   5.263   3.687   7.875 -1.5137 -0.7018  1.3855
  118MOL   H15530809   5.369   3.612   0.112  1.5808 -0.8321 -1.4230
  118MOL   H15630810   5.342   3.439   7.620 -1.4337  1.3448 -2.0149
  118MOL   H15730811   5.262   3.589   7.658  1.0641  0.1580 -1.1831
  118MOL   C15830812   5.126   3.403   7.663 -0.3040 -0.0859  0.1753
  118MOL   C15930813   5.103   3.370   7.515  0.6458 -0.5327  0.2694
  118MOL   C16030814   4.993   3.318   7.456 -0.2280  0.5106 -0.6827
  118MOL   C16130815   4.874   3.277   7.539  0.2773  0.1713 -0.0512
  118MOL   C16230816   4.981   3.299   7.306  0.0675  0.4559  0.0116
  118MOL   H16330817   5.046   3.461   7.710  0.0288  0.2518  0.3345
  118MOL   H16430818   5.129   3.308   7.715  0.2329 -0.5109 -0.6142
  118MOL   H16530819   5.183   3.398   7.448 -0.1352  1.1246  0.0061
  118MOL   H16630820   4.878   3.171   7.564  3.8513 -0.0411 -1.1375
  118MOL   H16730821   4.785   3.302   7.481  1.4601  1.3550 -1.3923
  118MOL   H16830822   4.853   3.335   7.628 -0.7165  0.8665 -0.7298
  118MOL   H16930823   4.950   3.197   7.285 -1.4724  1.3198 -2.0918
  118MOL   H17030824   5.082   3.292   7.266  0.1790  0.3295  0.3114
  118MOL   C17130825   4.903   3.405   7.226 -1.1837  0.7487  0.1794
  118MOL   C17230826   4.884   3.363   7.078 -0.2550  0.0969 -0.2796
  118MOL   C17330827   4.798   3.418   6.990  0.1495 -0.1936  0.4100
  118MOL   C17430828   4.691   3.517   7.027  0.6820  0.1165 -0.3478
  118MOL   C17530829   4.784   3.364   6.849  0.0806 -0.5944  0.4790
  118MOL   H17630830   4.956   3.500   7.226  1.6430 -0.7795 -0.5470
  118MOL   H17730831   4.804   3.427   7.267 -0.5277  1.4577  1.4377
  118MOL   H17830832   4.954   3.287   7.045  0.5119  0.9770 -0.6938
  118MOL   H17930833   4.705   3.555   7.128 -1.0463 -2.4484  0.9361
  118MOL   H18030834   4.591   3.473   7.034  0.5857  0.2482 -0.8762
  118MOL   H18130835   4.681   3.598   6.955  1.1247 -0.3766 -0.9678
  118MOL   H18230836   4.684   3.371   6.806  0.1273 -1.9279  0.1118
  118MOL   H18330837   4.816   3.260   6.855  0.5583 -0.6217 -2.1930
  118MOL   C18430838   4.875   3.439   6.749 -0.2093 -0.3699  0.1340
  118MOL   C18530839   4.875   3.384   6.607  0.6279  0.3622  0.3376
  118MOL   C18630840   4.961   3.405   6.505  0.2083  0.0291  0.6225
  118MOL   C18730841   5.081   3.509   6.516 -0.2625  0.2259 -0.3953
  118MOL   C18830842   4.960   3.316   6.377  0.2673 -0.0388  0.3863
  118MOL   H18930843   4.980   3.426   6.777  0.1218  1.6260 -0.0873
  118MOL   H19030844   4.872   3.548   6.756  0.8851 -0.4510  2.3796
  118MOL   H19130845   4.803   3.303   6.599  1.7731 -0.7314  0.8548
  118MOL   H19230846   5.177   3.457   6.522  0.0254  0.6649 -1.1381
  118MOL   H19330847   5.069   3.577   6.601  1.0677 -0.0803  0.0561
  118MOL   H19430848   5.076   3.567   6.424 -1.9062  0.0158 -0.4538
  118MOL   H19530849   4.878   3.245   6.380 -0.1620  0.4651  0.6732
  118MOL   H19630850   5.050   3.255   6.381 -1.0110 -1.9267  0.6815
  118MOL   C19730851   4.933   3.390   6.249 -0.0463  0.3638 -0.4123
  118MOL   C19830852   4.906   3.295   6.131 -0.8928 -0.3500  0.1745
  118MOL   C19930853   4.979   3.285   6.020 -0.7129 -0.3222  0.1833
  118MOL   C20030854   5.097   3.375   5.990 -0.0898  0.3094 -0.4965
  118MOL   C20130855   4.956   3.178   5.911 -0.0907  0.2402 -0.1163
  118MOL   H20230856   5.025   3.448   6.238 -0.8003  1.5345 -0.5764
  118MOL   H20330857   4.846   3.454   6.257  0.1639  0.6551 -0.4380
  118MOL   H20430858   4.827   3.223   6.150 -1.4764  0.1492 -0.3465
  118MOL   H20530859   5.168   3.326   5.923 -2.2723 -3.3396 -0.2877
  118MOL   H20630860   5.162   3.400   6.074  0.8432 -0.6747 -0.9143
  118MOL   H20730861   5.055   3.470   5.958 -1.3174 -0.1154 -0.1923
  118MOL   H20830862   4.875   3.115   5.947  0.0958 -0.3423 -0.7117
  118MOL   H20930863   5.044   3.116   5.926  0.1615  0.6709  0.2056
  118MOL   C21030864   4.917   3.228   5.772  0.2670 -0.5844  0.2867
  118MOL   C21130865   4.894   3.112   5.680 -0.5377  0.4482  0.5405
  118MOL   C21230866   4.973   3.065   5.588  0.2156 -0.6151 -0.9012
  118MOL   C21330867   5.117   3.108   5.572  0.8032  0.5037 -0.0972
  118MOL   C21430868   4.925   2.956   5.487 -0.1266  0.0487  0.2067
  118MOL   H21530869   4.997   3.287   5.727  0.3674 -0.4290  0.6709
  118MOL   H21630870   4.830   3.293   5.781 -0.0175 -0.9652  0.3005
  118MOL   H21730871   4.793   3.077   5.688  0.4101 -2.4887  0.2154
  118MOL   H21830872   5.164   3.013   5.546  2.1541  0.7878  1.2123
  118MOL   H21930873   5.172   3.163   5.648 -0.1847  2.1179 -0.5130
  118MOL   H22030874   5.126   3.175   5.486  1.4408  1.1603  0.4715
  118MOL   H22130875   4.823   2.916   5.489  0.7175 -2.2543 -0.7891
  118MOL   H22230876   4.989   2.868   5.487  3.1203  2.2686  2.3339
  118MOL   C22330877   4.928   3.013   5.344  0.2345  0.3182 -0.1184
  118MOL   C22430878   4.931   2.910   5.233 -0.2833 -0.2946 -1.2291
  118MOL   C22530879   5.039   2.844   5.189 -0.0203  0.1154 -0.1792
  118MOL   C22630880   5.178   2.855   5.244  1.0374 -0.7226  0.8499
  118MOL   C22730881   5.025   2.747   5.081 -0.4258 -0.1672  0.5457
  118MOL   H22830882   5.024   3.065   5.334  0.4564 -0.1240 -0.3107
  118MOL   H22930883   4.849   3.086   5.326 -1.3666 -1.2871  0.2513
  118MOL   H23030884   4.830   2.882   5.206 -0.5359 -0.1768 -0.3945
  118MOL   H23130885   5.203   2.750   5.262 -1.4310 -1.6138 -0.5918
  118MOL   H23230886   5.174   2.910   5.338  1.3688 -1.1531  1.1195
  118MOL   H23330887   5.253   2.895   5.177 -2.6492 -2.2482 -4.5510
  118MOL   H23430888   5.117   2.747   5.021  0.2800 -0.3810  1.6100
  118MOL   H23530889   4.945   2.776   5.013  0.9301  3.1872  0.2703
  118MOL   C23630890   4.991   2.607   5.112  0.7807  0.0391  0.4529
  118MOL   C23730891   5.008   2.508   4.997  0.2937 -0.5204 -0.6130
  118MOL   C23830892   4.931   2.398   4.978 -0.5511  0.9674 -0.1804
  118MOL   C23930893   4.814   2.359   5.063  0.4427 -0.2802  0.3500
  118MOL   C24030894   4.956   2.301   4.860  0.8057 -0.0584 -0.4199
  118MOL   H24130895   4.888   2.600   5.147  0.4777  0.5067 -0.3363
  118MOL   H24230896   5.060   2.576   5.190 -3.0722 -1.5487  3.4064
  118MOL   H24330897   5.092   2.533   4.934  1.1248  0.4553  0.8487
  118MOL   H24430898   4.728   2.351   4.997  0.5034  2.4489 -0.1081
  118MOL   H24530899   4.772   2.425   5.139 -0.7208 -1.8794  1.1201
  118MOL   H24630900   4.848   2.269   5.115  0.5304 -0.8816 -0.7337
  118MOL   H24730901   5.052   2.319   4.813  0.2843  1.8419 -0.8423
  118MOL   H24830902   4.885   2.313   4.778  0.3878 -0.9891 -0.1996
  118MOL   C24930903   4.959   2.150   4.913  0.0608  1.1374 -0.2083
  118MOL   C25030904   4.999   2.045   4.810  0.0974 -0.1588 -0.5954
  118MOL   C25130905   5.116   2.003   4.769  0.2296 -0.2340  0.3021
  118MOL   C25230906   5.241   2.030   4.838 -0.5785 -0.3076 -0.2742
  118MOL   C25330907   5.129   1.921   4.647 -1.1909  0.4849 -0.6762
  118MOL   H25430908   4.864   2.109   4.947  0.5710 -1.2346 -1.4804
  118MOL   H25530909   5.028   2.152   4.998  0.3291 -4.6966 -0.0353
  118MOL   H25630910   4.908   2.028   4.753  0.1356 -2.2882 -0.0758
  118MOL   H25730911   5.238   2.094   4.926  0.2339  1.7655 -1.6808
  118MOL   H25830912   5.306   2.097   4.781  0.9952 -0.0897  1.7424
  118MOL   H25930913   5.284   1.938   4.876 -1.3388 -1.0958 -1.2848
  118MOL   H26030914   5.187   1.836   4.683 -0.6392  0.9249 -0.5145
  118MOL   H26130915   5.184   1.966   4.564 -1.3153  0.1322 -0.9472
  118MOL   H26230916   5.031   1.882   4.620 -1.2074 -0.0856  0.1691
  119MOL     C130917   1.895   0.646   6.101 -0.7574  0.3484 -0.3094
  119MOL     C230918   1.835   0.662   5.961  0.3644  0.1701  0.1398
  119MOL     C330919   1.722   0.603   5.917  0.2853 -0.0493 -0.3233
  119MOL     C430920   1.624   0.509   5.987 -0.1643 -0.0302  0.1826
  119MOL     C530921   1.670   0.633   5.774 -0.3359  0.2037 -0.4789
  119MOL     H630922   1.982   0.712   6.100 -0.5276  0.0993  1.5308
  119MOL     H730923   1.825   0.686   6.175 -2.2507  0.2412 -1.6443
  119MOL     H830924   1.897   0.721   5.896  1.3339 -1.8749 -0.8427
  119MOL     H930925   1.529   0.564   5.984 -0.5856 -0.7699 -0.0798
  119MOL    H1030926   1.658   0.483   6.087  1.3011  1.1249  0.0074
  119MOL    H1130927   1.611   0.419   5.927  1.4233  0.0875 -0.3459
  119MOL    H1230928   1.733   0.709   5.727  2.7109 -0.9022  1.6418
  119MOL    H1330929   1.566   0.665   5.772 -0.8811 -1.3853  1.0463
  119MOL    H1430930   1.918   0.542   6.123 -0.6317  0.5168  0.3715
  119MOL    C1530931   1.690   0.515   5.680 -0.3356 -0.3604 -0.3391
  119MOL    C1630932   1.685   0.553   5.530  0.2218 -0.8387  0.2706
  119MOL    C1730933   1.772   0.568   5.434 -0.9233  0.3552  0.4512
  119MOL    C1830934   1.916   0.537   5.450  0.0922  0.2021  0.4620
  119MOL    C1930935   1.726   0.603   5.293  0.0237 -0.5968  0.6170
  119MOL    H2030936   1.611   0.442   5.699 -0.7756  0.0191 -0.7025
  119MOL    H2130937   1.784   0.463   5.697 -0.9601 -0.2167  4.2014
  119MOL    H2230938   1.586   0.576   5.494 -0.3835 -1.9172  1.2218
  119MOL    H2330939   1.965   0.610   5.386  0.5225 -0.8061 -0.3819
  119MOL    H2430940   1.949   0.443   5.406  2.7994  1.4814 -0.3258
  119MOL    H2530941   1.944   0.536   5.555 -2.9059  0.7663  1.3086
  119MOL    H2630942   1.620   0.588   5.271 -0.3372  3.3662 -0.7805
  119MOL    H2730943   1.782   0.538   5.227  0.8243  0.3274  0.3741
  119MOL    C2830944   1.737   0.759   5.255  0.3034 -0.3305  0.3106
  119MOL    C2930945   1.718   0.780   5.108 -0.2261  0.5136 -0.2026
  119MOL    C3030946   1.628   0.864   5.047  1.4447  0.3176 -1.0125
  119MOL    C3130947   1.544   0.959   5.129  0.0668 -0.3599  0.2362
  119MOL    C3230948   1.633   0.871   4.895  0.0992 -0.6700 -0.6933
  119MOL    H3330949   1.835   0.791   5.290  0.4950  2.8961 -2.9641
  119MOL    H3430950   1.663   0.810   5.317 -0.4673 -2.8150  1.5278
  119MOL    H3530951   1.789   0.726   5.047  0.8296  0.8626  0.6801
  119MOL    H3630952   1.437   0.941   5.119  0.2330 -1.4880  0.4722
  119MOL    H3730953   1.543   1.049   5.067  1.4732 -0.7988 -0.4312
  119MOL    H3830954   1.578   0.995   5.226  0.5034  0.3059 -0.1594
  119MOL    H3930955   1.713   0.804   4.864  1.4728  0.4602  0.3790
  119MOL    H4030956   1.661   0.969   4.857 -1.0497  0.2341  0.7561
  119MOL    C4130957   1.514   0.817   4.818  0.0776 -0.0807  0.0003
  119MOL    C4230958   1.518   0.852   4.667  0.3139 -0.0436  0.3508
  119MOL    C4330959   1.402   0.860   4.588 -0.1321 -0.4938 -0.2696
  119MOL    C4430960   1.263   0.851   4.643  0.0244 -0.1167  0.2623
  119MOL    C4530961   1.419   0.882   4.441  0.4935  0.3380  0.5706
  119MOL    H4630962   1.426   0.874   4.848 -0.5464  0.1300 -2.1337
  119MOL    H4730963   1.507   0.710   4.837 -0.8890 -0.2457 -1.2119
  119MOL    H4830964   1.613   0.860   4.617  0.0093  0.8967 -0.0745
  119MOL    H4930965   1.252   0.761   4.703  1.7253 -0.9369 -0.6393
  119MOL    H5030966   1.191   0.842   4.563 -0.9129 -0.4346  1.1288
  119MOL    H5130967   1.237   0.940   4.701  2.9121 -1.0337  3.1331
  119MOL    H5230968   1.520   0.906   4.410  0.6221 -1.2221 -0.3084
  119MOL    H5330969   1.350   0.960   4.406 -0.2324 -0.9110 -0.8852
  119MOL    C5430970   1.354   0.766   4.355 -0.3051  0.1708 -0.3339
  119MOL    C5530971   1.424   0.639   4.365  0.4246  0.3129 -0.3416
  119MOL    C5630972   1.372   0.520   4.394 -0.2180  0.4554  0.5717
  119MOL    C5730973   1.222   0.491   4.396 -0.0385 -0.3690 -0.2757
  119MOL    C5830974   1.463   0.399   4.420  0.2361 -0.2501 -0.1596
  119MOL    H5930975   1.360   0.802   4.253 -0.1216 -0.6081 -0.6026
  119MOL    H6030976   1.251   0.760   4.389  0.1379 -1.6912  0.7909
  119MOL    H6130977   1.531   0.655   4.359  0.3767  0.9905  0.6244
  119MOL    H6230978   1.168   0.579   4.430 -0.2717 -0.4501 -0.4343
  119MOL    H6330979   1.196   0.419   4.474 -0.0528  1.2062  1.1988
  119MOL    H6430980   1.198   0.447   4.299  0.8894  0.3753 -0.8495
  119MOL    H6530981   1.418   0.335   4.496  2.2955 -0.3605  0.9979
  119MOL    H6630982   1.562   0.432   4.452  0.4890  0.1871 -1.3546
  119MOL    C6730983   1.486   0.325   4.292 -0.1501 -0.4396 -0.5360
  119MOL    C6830984   1.569   0.206   4.311 -0.8325  0.0366 -0.2119
  119MOL    C6930985   1.692   0.180   4.266  0.2887  0.7613 -0.4098
  119MOL    C7030986   1.777   0.277   4.188 -0.5751  0.1218 -0.0860
  119MOL    C7130987   1.763   0.050   4.310  0.3214  0.3855 -0.5670
  119MOL    H7230988   1.538   0.392   4.224 -0.6596 -0.3972 -0.8882
  119MOL    H7330989   1.397   0.301   4.233  0.8504 -0.2428 -2.1504
  119MOL    H7430990   1.531   0.133   4.381 -1.4348  0.6917  0.1528
  119MOL    H7530991   1.832   0.350   4.249  1.1500 -1.2136 -0.0017
  119MOL    H7630992   1.719   0.336   4.117 -0.4797  0.6797  0.2934
  119MOL    H7730993   1.854   0.227   4.129 -0.7405 -2.7541  2.0820
  119MOL    H7830994   1.722   0.019   4.406  2.2210 -1.2218 -0.2524
  119MOL    H7930995   1.868   0.063   4.333  0.0457  0.2344  0.8486
  119MOL    C8030996   1.736   7.826   4.204  0.0133  0.4406  0.4454
  119MOL    C8130997   1.589   7.780   4.199  0.5823  0.2191  0.0650
  119MOL    C8230998   1.533   7.655   4.229 -0.0274  0.0614 -0.1010
  119MOL    C8330999   1.617   7.531   4.243  0.6630 -0.6419 -0.3559
  119MOL    C8431000   1.383   7.635   4.222  0.2090  0.2612 -0.5249
  119MOL    H8531001   1.796   7.740   4.230  0.1996  0.7016  0.8924
  119MOL    H8631002   1.764   7.850   4.101 -0.5858  0.5304  0.2986
  119MOL    H8731003   1.522   7.863   4.182 -0.5331 -0.2368  2.0821
  119MOL    H8831004   1.602   7.460   4.161 -1.1090 -0.7048  0.0127
  119MOL    H8931005   1.587   7.482   4.335  0.8310 -0.8167 -0.3970
  119MOL    H9031006   1.723   7.551   4.255  0.1441  1.5677  0.8746
  119MOL    H9131007   1.334   7.716   4.276  2.4366 -0.1944  2.3002
  119MOL    H9231008   1.364   7.545   4.279  0.6486  0.6724  0.2829
  119MOL    C9331009   1.337   7.636   4.075  0.7728  0.3904  0.7453
  119MOL    C9431010   1.185   7.614   4.077  0.0953  0.0430 -0.4403
  119MOL    C9531011   1.103   7.551   3.984  0.5599 -0.1820 -0.0546
  119MOL    C9631012   1.154   7.477   3.860 -0.8416 -0.2455 -0.6744
  119MOL    C9731013   0.951   7.536   4.011 -0.3061 -0.2921  0.1295
  119MOL    H9831014   1.388   7.565   4.010 -1.3729 -1.0490  0.5784
  119MOL    H9931015   1.329   7.740   4.043 -0.0322  0.6938  1.9050
  119MOL   H10031016   1.137   7.643   4.169  0.4844  2.6172 -1.0211
  119MOL   H10131017   1.115   7.531   3.774  2.0069  1.0631 -1.2279
  119MOL   H10231018   1.132   7.371   3.847  0.2536 -0.5634  0.0313
  119MOL   H10331019   1.263   7.486   3.852 -0.6342 -0.3864  1.6711
  119MOL   H10431020   0.925   7.597   4.097 -1.8429  0.1447 -0.6326
  119MOL   H10531021   0.913   7.436   4.029 -0.5737 -0.2613 -0.2569
  119MOL   C10631022   0.867   7.603   3.906 -0.0534 -0.3427 -0.3838
  119MOL   C10731023   0.725   7.573   3.928  0.2160 -0.0642 -0.4607
  119MOL   C10831024   0.636   7.660   3.989 -0.7060  0.1101 -0.1795
  119MOL   C10931025   0.670   7.803   4.024  0.4295 -0.4883  0.5605
  119MOL   C11031026   0.492   7.616   4.018  0.8155  0.5021  0.2323
  119MOL   H11131027   0.875   7.552   3.810 -1.2641  1.9036 -1.7221
  119MOL   H11231028   0.892   7.709   3.896  1.5740 -0.6577  0.1534
  119MOL   H11331029   0.700   7.471   3.904 -2.3117  0.2513  0.6799
  119MOL   H11431030   0.608   7.848   4.101 -0.1949  0.9581 -0.7785
  119MOL   H11531031   0.677   7.867   3.936 -1.6970 -0.8371  0.1165
  119MOL   H11631032   0.771   7.799   4.064  1.1997 -1.4977 -1.4068
  119MOL   H11731033   0.485   7.616   4.127  0.3788  0.4583  0.2047
  119MOL   H11831034   0.480   7.510   3.995 -1.3801  0.7815  0.0582
  119MOL   C11931035   0.382   7.702   3.942  0.7097  0.2294  0.2372
  119MOL   C12031036   0.336   7.625   3.817  0.3402  0.1379 -0.1744
  119MOL   C12131037   0.244   7.527   3.801 -1.1419  0.6472 -0.5014
  119MOL   C12231038   0.170   7.478   3.924 -0.9832  0.8608  0.0942
  119MOL   C12331039   0.205   7.455   3.672 -0.6295  0.8395 -0.3573
  119MOL   H12431040   0.414   7.802   3.912  1.3252 -0.5487 -1.7431
  119MOL   H12531041   0.300   7.723   4.011  0.5670  0.0925  0.1078
  119MOL   H12631042   0.398   7.649   3.731  1.3339  0.4899  0.6275
  119MOL   H12731043   0.063   7.497   3.923 -1.7113 -2.8832 -1.8748
  119MOL   H12831044   0.213   7.527   4.011  1.7069 -1.2069 -0.0088
  119MOL   H12931045   0.182   7.370   3.926 -0.2165  0.9239 -0.6651
  119MOL   H13031046   0.228   7.515   3.584 -0.7629 -1.5581 -2.1078
  119MOL   H13131047   0.099   7.426   3.673 -0.5398  0.4800 -0.8130
  119MOL   C13231048   0.283   7.322   3.654  0.3102 -0.4553 -0.1783
  119MOL   C13331049   0.276   7.259   3.523  0.0328 -0.0528  0.3353
  119MOL   C13431050   0.205   7.157   3.476  0.8613  0.0325  0.2632
  119MOL   C13531051   0.106   7.078   3.556 -0.1298 -0.5505 -0.1147
  119MOL   C13631052   0.217   7.132   3.328  0.0859  0.5184  0.3742
  119MOL   H13731053   0.260   7.240   3.723 -0.8381 -1.7243 -2.0237
  119MOL   H13831054   0.388   7.344   3.672  0.3264 -0.7114  0.0437
  119MOL   H13931055   0.329   7.322   3.454 -1.0487  1.4352  0.8449
  119MOL   H14031056   0.149   6.991   3.607 -1.7775 -1.9333 -1.0209
  119MOL   H14131057   0.018   7.056   3.495  1.0406 -0.6663 -1.7976
  119MOL   H14231058   0.067   7.130   3.644  3.2657 -0.4325  1.3836
  119MOL   H14331059   0.279   7.200   3.269 -1.1351  0.8595 -0.5523
  119MOL   H14431060   0.112   7.133   3.300  0.2896 -1.0480 -0.4609
  119MOL   C14531061   0.272   6.992   3.302  0.3734  1.2982  0.1152
  119MOL   C14631062   0.314   6.962   3.161 -0.6271  0.6256 -0.4016
  119MOL   C14731063   0.428   6.901   3.130  0.1124 -0.0993  0.5005
  119MOL   C14831064   0.516   6.836   3.237 -0.1153  0.1542  0.0632
  119MOL   C14931065   0.467   6.888   2.988  0.5942  0.0951  0.6464
  119MOL   H15031066   0.187   6.930   3.330  0.2348  0.8226 -1.3586
  119MOL   H15131067   0.348   6.964   3.375 -1.7608  1.0094  2.2908
  119MOL   H15231068   0.254   7.003   3.081 -0.4726  0.5344 -0.5612
  119MOL   H15331069   0.476   6.766   3.310  1.2329  1.2148  1.8642
  119MOL   H15431070   0.568   6.915   3.292  2.0959 -1.6218  0.6514
  119MOL   H15531071   0.585   6.774   3.179  2.6630  1.5005  1.7938
  119MOL   H15631072   0.386   6.935   2.931  0.9478 -0.2095 -0.1078
  119MOL   H15731073   0.468   6.780   2.975  1.2387  0.2240 -0.4150
  119MOL   C15831074   0.589   6.962   2.945 -1.3089  0.0779  0.0265
  119MOL   C15931075   0.629   6.932   2.799  0.1040 -0.1887  1.1663
  119MOL   C16031076   0.662   7.022   2.700  0.7205 -1.0465 -0.0272
  119MOL   C16131077   0.694   7.168   2.737 -0.0809 -0.2485 -0.4311
  119MOL   C16231078   0.681   6.990   2.552  0.1056  0.2581 -0.1494
  119MOL   H16331079   0.669   6.918   3.004 -2.2879 -1.2137  0.4369
  119MOL   H16431080   0.577   7.063   2.984 -1.2171  0.9605 -2.1868
  119MOL   H16531081   0.631   6.829   2.765 -1.7022 -0.2142  1.0781
  119MOL   H16631082   0.621   7.244   2.710 -1.5459 -1.3571  0.3743
  119MOL   H16731083   0.792   7.199   2.700 -0.7828  0.9812 -1.2562
  119MOL   H16831084   0.711   7.182   2.844 -0.5324  0.6608 -0.4779
  119MOL   H16931085   0.668   6.882   2.546  2.3151  0.0193 -1.1322
  119MOL   H17031086   0.777   7.010   2.505  0.0237 -0.1869 -0.5154
  119MOL   C17131087   0.574   7.067   2.474 -0.1848 -0.1887  0.1365
  119MOL   C17231088   0.589   7.034   2.328 -0.2156  1.0972 -0.1719
  119MOL   C17331089   0.486   6.975   2.250 -0.0314 -0.0667 -0.0597
  119MOL   C17431090   0.336   6.954   2.295 -0.4555  0.0308 -0.1311
  119MOL   C17531091   0.514   6.927   2.106  0.1113  0.1127 -0.2237
  119MOL   H17631092   0.580   7.176   2.482  0.2362 -0.0984 -1.1958
  119MOL   H17731093   0.480   7.032   2.516  0.3451  0.1426  1.6606
  119MOL   H17831094   0.689   7.043   2.289 -0.4385  0.5690 -0.8946
  119MOL   H17931095   0.312   7.018   2.380 -0.2903  0.6842 -0.5731
  119MOL   H18031096   0.326   6.848   2.318  1.0010  0.4997  2.9005
  119MOL   H18131097   0.265   6.976   2.215 -0.6331  3.7824  0.9635
  119MOL   H18231098   0.475   6.827   2.084  1.7344 -0.4267 -0.7211
  119MOL   H18331099   0.623   6.927   2.103  0.3257 -2.7200  3.0841
  119MOL   C18431100   0.470   7.022   2.003  0.2018 -0.5110 -0.1406
  119MOL   C18531101   0.528   6.977   1.870  0.0001  0.2446  0.0540
  119MOL   C18631102   0.585   7.054   1.770 -0.6961  0.2818 -0.7794
  119MOL   C18731103   0.589   7.205   1.782  0.0781 -0.1777  0.2131
  119MOL   C18831104   0.627   6.991   1.638 -0.2102  0.2441 -0.8682
  119MOL   H18931105   0.500   7.123   2.028  0.7925 -1.3864  2.7961
  119MOL   H19031106   0.362   7.031   1.989 -0.3537 -2.6818  2.3596
  119MOL   H19131107   0.513   6.873   1.848  1.0203 -0.2753  1.7605
  119MOL   H19231108   0.527   7.252   1.859 -0.4927 -1.2769  0.4435
  119MOL   H19331109   0.545   7.249   1.692  2.5811 -0.3053 -1.1047
  119MOL   H19431110   0.697   7.221   1.785 -0.2128  1.6165  3.6661
  119MOL   H19531111   0.566   7.042   1.564  0.9845  2.0230 -0.6687
  119MOL   H19631112   0.590   6.889   1.631 -0.3551  0.3402 -1.5877
  119MOL   C19731113   0.780   7.014   1.617 -0.1543  0.2245 -0.0200
  119MOL   C19831114   0.835   6.923   1.512  0.2631 -0.3830  0.3761
  119MOL   C19931115   0.889   6.961   1.396 -0.9986  0.2073 -0.1720
  119MOL   C20031116   0.915   7.108   1.359 -0.1184  0.1030 -0.0456
  119MOL   C20131117   0.948   6.855   1.311  0.1809 -0.1225  0.1242
  119MOL   H20231118   0.848   6.980   1.696  0.8931  0.9885 -0.5860
  119MOL   H20331119   0.796   7.120   1.600 -0.6082  0.0782 -1.3843
  119MOL   H20431120   0.836   6.820   1.543  1.9769 -0.3398  0.4814
  119MOL   H20531121   0.824   7.162   1.385  1.2790  2.6295 -0.2670
  119MOL   H20631122   0.930   7.133   1.254  0.3792  0.0488  0.0107
  119MOL   H20731123   0.992   7.140   1.429 -0.5252 -0.3366  0.6062
  119MOL   H20831124   0.897   6.861   1.215  0.0576 -0.5261  0.1644
  119MOL   H20931125   0.941   6.757   1.358 -1.1640 -0.0688  0.0459
  119MOL   C21031126   1.099   6.877   1.294 -0.2757 -0.2033 -0.0598
  119MOL   C21131127   1.152   6.765   1.203 -0.0650  0.0085 -0.1401
  119MOL   C21231128   1.236   6.676   1.250 -0.5702  0.4890 -0.0341
  119MOL   C21331129   1.291   6.672   1.394 -0.0288 -0.5825 -0.1375
  119MOL   C21431130   1.277   6.559   1.168  0.5262  0.1579 -0.2070
  119MOL   H21531131   1.145   6.879   1.393 -1.4660 -1.1922  0.5292
  119MOL   H21631132   1.107   6.971   1.239 -0.0628 -0.5828 -0.6736
  119MOL   H21731133   1.107   6.742   1.108 -0.8291  0.5029  0.0993
  119MOL   H21831134   1.219   6.693   1.473 -1.1852 -1.3818 -0.9509
  119MOL   H21931135   1.364   6.752   1.401 -1.1477  0.4556 -0.2329
  119MOL   H22031136   1.323   6.574   1.431 -1.2862 -1.2168 -0.6826
  119MOL   H22131137   1.242   6.577   1.066  1.7203 -0.7317 -0.7892
  119MOL   H22231138   1.213   6.477   1.201  2.7207 -1.4459  0.2005
  119MOL   C22331139   1.424   6.524   1.167  0.6207  0.3738  0.4328
  119MOL   C22431140   1.460   6.407   1.070 -0.0491  0.3846 -0.4692
  119MOL   C22531141   1.556   6.318   1.089 -0.3170  0.4130 -0.0750
  119MOL   C22631142   1.665   6.355   1.185  0.5388  0.3627 -0.4969
  119MOL   C22731143   1.578   6.201   1.000 -0.1957  0.2425  0.1062
  119MOL   H22831144   1.448   6.491   1.268 -0.0232  0.6896  0.6940
  119MOL   H22931145   1.476   6.617   1.143  1.1517  0.3579  1.4773
  119MOL   H23031146   1.395   6.403   0.984  0.2960 -3.1028 -0.6365
  119MOL   H23131147   1.724   6.441   1.155 -0.1883  0.7158 -0.9592
  119MOL   H23231148   1.735   6.273   1.198  1.9120  1.9153  2.2083
  119MOL   H23331149   1.617   6.373   1.281 -0.3790  0.5928 -0.9842
  119MOL   H23431150   1.679   6.217   0.964 -0.0977  1.8838  1.0292
  119MOL   H23531151   1.510   6.218   0.916  0.4691 -0.3408 -0.5516
  119MOL   C23631152   1.566   6.056   1.055 -0.3085  0.8448  0.4909
  119MOL   C23731153   1.603   5.956   0.948 -0.2937  0.4063 -0.0260
  119MOL   C23831154   1.528   5.860   0.887  0.1343  0.3328  0.1180
  119MOL   C23931155   1.393   5.829   0.929  0.0084 -0.0034  0.1643
  119MOL   C24031156   1.571   5.762   0.776 -0.2764  0.4506  0.2190
  119MOL   H24131157   1.464   6.040   1.093  0.2590  0.8362  2.0577
  119MOL   H24231158   1.634   6.054   1.140 -0.9446 -0.3231  0.9834
  119MOL   H24331159   1.702   5.967   0.907  0.1622  2.5092  1.5581
  119MOL   H24431160   1.313   5.874   0.870 -0.4601 -0.3723  0.5120
  119MOL   H24531161   1.388   5.865   1.032  0.0737 -1.7365  0.7931
  119MOL   H24631162   1.367   5.723   0.932 -1.7538  0.4295  0.9132
  119MOL   H24731163   1.539   5.664   0.812  1.2359 -0.4933 -0.9556
  119MOL   H24831164   1.676   5.749   0.754 -0.0985  0.1180  1.2320
  119MOL   C24931165   1.491   5.786   0.647  0.0791 -0.2132 -0.7959
  119MOL   C25031166   1.502   5.670   0.546  0.3110  0.1148  0.0515
  119MOL   C25131167   1.568   5.675   0.429  0.7438  0.7342  0.6875
  119MOL   C25231168   1.646   5.795   0.390  0.1537 -0.7616  0.4979
  119MOL   C25331169   1.550   5.553   0.342  0.2025 -0.1719  0.3658
  119MOL   H25431170   1.523   5.884   0.613  0.5559 -0.6819 -1.7085
  119MOL   H25531171   1.391   5.820   0.672  1.3017  1.8579  1.4747
  119MOL   H25631172   1.442   5.584   0.572  0.5196 -0.6347 -1.9149
  119MOL   H25731173   1.574   5.868   0.354  0.0136 -0.2157  1.8472
  119MOL   H25831174   1.722   5.768   0.316  0.3319 -0.6258  0.6296
  119MOL   H25931175   1.702   5.838   0.474 -0.8251  4.9973 -1.6065
  119MOL   H26031176   1.478   5.489   0.392 -1.2718  1.2842  0.1320
  119MOL   H26131177   1.637   5.490   0.323 -0.9099 -1.0007 -2.2708
  119MOL   H26231178   1.505   5.577   0.246  2.2009 -0.1753 -0.6123
  120MOL     C131179   3.336   4.514   2.693  0.0282  0.4630 -0.2402
  120MOL     C231180   3.259   4.637   2.690 -0.9493  0.1453  0.8436
  120MOL     C331181   3.124   4.635   2.679 -0.2308  0.0166 -0.1014
  120MOL     C431182   3.038   4.508   2.659  0.3547  0.2054  0.2416
  120MOL     C531183   3.041   4.759   2.672 -0.4215 -0.1724  0.5954
  120MOL     H631184   3.436   4.537   2.655 -0.4624 -1.8312 -3.1293
  120MOL     H731185   3.345   4.482   2.797 -1.2372 -1.8593 -0.8038
  120MOL     H831186   3.317   4.726   2.709 -1.5334  0.3792  1.5443
  120MOL     H931187   3.053   4.444   2.746  0.5174  0.1111  0.1444
  120MOL    H1031188   3.062   4.457   2.566 -0.1681  2.0060 -0.9159
  120MOL    H1131189   2.932   4.531   2.647  0.3179  1.0360  1.9995
  120MOL    H1231190   3.097   4.834   2.728  0.6697 -0.6880  0.2164
  120MOL    H1331191   2.939   4.744   2.705 -0.7314 -0.6093 -0.5365
  120MOL    H1431192   3.302   4.436   2.625 -3.4438  0.9419  0.8793
  120MOL    C1531193   3.028   4.813   2.525 -0.7259  0.5579 -0.2351
  120MOL    C1631194   2.947   4.943   2.533 -0.4052  0.3036 -0.3524
  120MOL    C1731195   2.978   5.060   2.474  0.1472 -0.3824  0.1987
  120MOL    C1831196   3.098   5.070   2.385  0.7346  0.1560 -0.0058
  120MOL    C1931197   2.887   5.178   2.491  0.3419  0.4054  0.0642
  120MOL    H2031198   2.969   4.742   2.467 -0.6547  0.5038 -0.2412
  120MOL    H2131199   3.127   4.822   2.480  1.6010  1.1130  4.5951
  120MOL    H2231200   2.855   4.933   2.588 -0.1934  0.1382 -0.0220
  120MOL    H2331201   3.089   5.012   2.293 -2.2600 -0.1109  0.4175
  120MOL    H2431202   3.182   5.024   2.437  0.5169  0.6600  0.8055
  120MOL    H2531203   3.126   5.172   2.357  0.3939 -0.6269 -3.3886
  120MOL    H2631204   2.955   5.241   2.547  0.0229 -0.9561  2.0384
  120MOL    H2731205   2.809   5.150   2.562  0.7471  2.0677  1.1801
  120MOL    C2831206   2.831   5.240   2.359  0.4507  0.1652 -0.6174
  120MOL    C2931207   2.728   5.351   2.383 -0.1123 -0.0346 -0.0435
  120MOL    C3031208   2.621   5.389   2.312 -0.5026  0.1590 -0.5881
  120MOL    C3131209   2.562   5.332   2.186 -0.6542  0.2883  0.0116
  120MOL    C3231210   2.538   5.503   2.371  0.3812 -0.1411  0.4256
  120MOL    H3331211   2.784   5.162   2.299 -0.3721 -0.3585  0.6941
  120MOL    H3431212   2.916   5.276   2.301  0.1049 -1.3538 -2.1082
  120MOL    H3531213   2.736   5.409   2.474  0.1548 -0.1990  0.0381
  120MOL    H3631214   2.569   5.405   2.105 -1.4459  2.1903  1.6182
  120MOL    H3731215   2.460   5.310   2.215 -0.4715 -1.6323 -0.7194
  120MOL    H3831216   2.611   5.246   2.139 -1.8652  0.3499 -1.4177
  120MOL    H3931217   2.566   5.514   2.475  2.8957 -0.3780 -0.1945
  120MOL    H4031218   2.432   5.479   2.377  0.4958 -0.7713 -0.0130
  120MOL    C4131219   2.554   5.638   2.302 -0.6859 -0.0239  0.1731
  120MOL    C4231220   2.690   5.711   2.307 -0.4695  0.0037  0.0457
  120MOL    C4331221   2.714   5.839   2.356 -0.7658 -0.4174  0.5883
  120MOL    C4431222   2.610   5.919   2.425 -0.0247 -0.2453  0.0714
  120MOL    C4531223   2.846   5.915   2.341  0.0053 -0.5066  0.4168
  120MOL    H4631224   2.484   5.710   2.346 -0.0923 -0.0196  1.1409
  120MOL    H4731225   2.525   5.623   2.198 -0.7298 -0.5766  0.2631
  120MOL    H4831226   2.769   5.658   2.255 -1.4991 -0.3195 -1.1953
  120MOL    H4931227   2.655   5.981   2.502  1.7025  0.2861 -1.3210
  120MOL    H5031228   2.533   5.860   2.475 -1.0009  1.2652  0.3842
  120MOL    H5131229   2.560   5.986   2.354 -0.6055  0.2061  0.8914
  120MOL    H5231230   2.915   5.844   2.296  0.1092  0.8671 -1.6840
  120MOL    H5331231   2.877   5.954   2.438 -0.3846 -0.4313  0.5122
  120MOL    C5431232   2.844   6.030   2.238  0.4994  0.2042 -0.1118
  120MOL    C5531233   2.977   6.108   2.247 -0.7171  0.0444  0.4086
  120MOL    C5631234   2.979   6.241   2.222 -0.7385  0.3732 -1.1460
  120MOL    C5731235   2.852   6.325   2.195  0.1853  0.1936  0.2054
  120MOL    C5831236   3.106   6.330   2.223  0.0776  0.0316 -0.0926
  120MOL    H5931237   2.759   6.095   2.256 -1.5678 -2.3773 -0.2361
  120MOL    H6031238   2.836   5.991   2.137 -0.3520 -0.3846  0.1784
  120MOL    H6131239   3.069   6.055   2.261 -1.2428 -1.3127 -1.0667
  120MOL    H6231240   2.790   6.280   2.118 -0.9814  1.8778  0.1375
  120MOL    H6331241   2.877   6.426   2.162 -1.8415  0.8683  0.6570
  120MOL    H6431242   2.798   6.339   2.289 -0.1714 -0.9680  0.1815
  120MOL    H6531243   3.089   6.400   2.304 -1.2657  0.8877 -1.0850
  120MOL    H6631244   3.103   6.395   2.136  0.6391  2.6985  1.8455
  120MOL    C6731245   3.245   6.255   2.235  0.0002  0.4087  0.2548
  120MOL    C6831246   3.363   6.352   2.241 -0.6526 -0.2476  0.0097
  120MOL    C6931247   3.485   6.339   2.191  0.0871  0.4929 -0.3650
  120MOL    C7031248   3.524   6.229   2.094 -0.4517  0.3483 -0.5528
  120MOL    C7131249   3.592   6.442   2.231 -0.1197  0.5620 -0.3713
  120MOL    H7231250   3.251   6.187   2.150  1.4639 -0.9573  1.4335
  120MOL    H7331251   3.247   6.191   2.323  1.3007  0.0200 -0.0464
  120MOL    H7431252   3.351   6.429   2.316  2.2675  0.1009  0.1827
  120MOL    H7531253   3.522   6.284   2.000 -0.6508  0.2593 -0.5998
  120MOL    H7631254   3.455   6.148   2.072  0.3056 -0.2219 -0.8834
  120MOL    H7731255   3.625   6.192   2.112  0.2123  1.6757 -1.4719
  120MOL    H7831256   3.545   6.528   2.279  0.7309 -0.0813  1.6985
  120MOL    H7931257   3.635   6.472   2.136 -2.5828 -0.2222 -1.7876
  120MOL    C8031258   3.717   6.395   2.308 -0.2618 -0.5880 -0.0569
  120MOL    C8131259   3.813   6.509   2.318 -0.0577 -0.2198  0.7451
  120MOL    C8231260   3.926   6.530   2.250  0.3059  1.2062  0.0607
  120MOL    C8331261   3.971   6.442   2.131 -0.1283 -0.0516 -0.5985
  120MOL    C8431262   4.025   6.645   2.261  0.8176  0.0821  0.0420
  120MOL    H8531263   3.760   6.303   2.267  1.2741 -0.9757  2.3825
  120MOL    H8631264   3.696   6.378   2.413 -2.0632  0.3538 -0.2453
  120MOL    H8731265   3.770   6.577   2.389  1.3002  0.4276  0.9668
  120MOL    H8831266   3.928   6.343   2.123  0.5517 -0.2302 -2.4458
  120MOL    H8931267   4.075   6.415   2.148 -0.1829 -0.2945 -0.6562
  120MOL    H9031268   3.956   6.492   2.035  0.3269 -1.1801 -1.2720
  120MOL    H9131269   4.018   6.712   2.175  2.5710  0.4004  0.1361
  120MOL    H9231270   4.128   6.610   2.256  1.7184  2.7994 -0.9879
  120MOL    C9331271   4.015   6.726   2.394  0.2865 -0.4903 -0.3405
  120MOL    C9431272   4.059   6.634   2.503  0.1812  0.0274 -0.5812
  120MOL    C9531273   4.178   6.624   2.550 -0.5486  0.1951  0.2757
  120MOL    C9631274   4.302   6.682   2.492 -1.2416  0.1841  0.4085
  120MOL    C9731275   4.206   6.537   2.675  0.3399 -0.1152  0.1199
  120MOL    H9831276   3.913   6.757   2.415  0.5005  0.0427 -0.0871
  120MOL    H9931277   4.081   6.812   2.396  0.4936 -0.6565  1.6331
  120MOL   H10031278   3.984   6.571   2.548 -0.2573  1.3158  0.5274
  120MOL   H10131279   4.332   6.755   2.567  1.0713  0.4894 -0.7838
  120MOL   H10231280   4.293   6.723   2.392  1.8894  1.6161  0.6429
  120MOL   H10331281   4.384   6.610   2.494 -0.6474  0.8141 -1.0589
  120MOL   H10431282   4.311   6.507   2.679  0.6520  1.2594  3.9566
  120MOL   H10531283   4.149   6.444   2.674 -0.2263  0.2342 -0.9538
  120MOL   C10631284   4.165   6.612   2.798 -0.1801 -0.8418  0.5203
  120MOL   C10731285   4.017   6.620   2.805 -0.6692 -0.1252  0.9855
  120MOL   C10831286   3.943   6.735   2.814 -0.0407  0.3933  0.0628
  120MOL   C10931287   4.003   6.875   2.818  0.2546 -0.7848 -0.6506
  120MOL   C11031288   3.793   6.725   2.833 -0.1578  0.8722  0.1851
  120MOL   H11131289   4.213   6.709   2.785  0.3575 -1.1906 -0.1150
  120MOL   H11231290   4.203   6.574   2.893 -1.6358 -0.5903  1.2117
  120MOL   H11331291   3.962   6.528   2.819  0.4381 -0.8691  0.5219
  120MOL   H11431292   4.111   6.875   2.831  0.3430 -1.1198 -1.3368
  120MOL   H11531293   3.954   6.929   2.899 -1.5902 -0.6177 -1.8494
  120MOL   H11631294   3.985   6.937   2.729  2.1068  1.2579  0.3625
  120MOL   H11731295   3.781   6.786   2.922  1.6923 -1.5487  2.1618
  120MOL   H11831296   3.769   6.624   2.863  0.3477  0.3942 -0.9669
  120MOL   C11931297   3.718   6.774   2.708 -0.0161 -0.1001  0.1261
  120MOL   C12031298   3.575   6.742   2.702  0.0625  0.3360  0.2423
  120MOL   C12131299   3.519   6.627   2.685 -0.1336  0.3093  0.0342
  120MOL   C12231300   3.596   6.494   2.683  0.2166  0.8735  0.1951
  120MOL   C12331301   3.371   6.609   2.670  0.3678 -0.1051  0.3521
  120MOL   H12431302   3.761   6.743   2.612 -3.2517  0.5590 -1.6089
  120MOL   H12531303   3.731   6.882   2.704 -1.4249  0.0457 -1.1071
  120MOL   H12631304   3.519   6.834   2.715 -1.3513 -0.3005 -1.1957
  120MOL   H12731305   3.705   6.507   2.688  0.2934  0.2424  0.1870
  120MOL   H12831306   3.572   6.451   2.586 -1.0896  1.7131  0.1411
  120MOL   H12931307   3.569   6.418   2.755  0.7402  1.4805  1.0379
  120MOL   H13031308   3.333   6.578   2.767  1.6369 -1.7291  0.3481
  120MOL   H13131309   3.350   6.516   2.616 -1.1963 -1.1493  2.6786
  120MOL   C13231310   3.291   6.728   2.617 -0.4301 -0.3398 -0.0590
  120MOL   C13331311   3.334   6.775   2.471 -0.7684  1.1580 -0.2454
  120MOL   C13431312   3.248   6.816   2.371  0.8451  0.1658  0.0208
  120MOL   C13531313   3.101   6.836   2.385  0.5954  0.6942 -0.4535
  120MOL   C13631314   3.304   6.853   2.236 -0.5264 -0.1669 -0.3711
  120MOL   H13731315   3.303   6.816   2.679 -2.2062  1.0629 -1.6398
  120MOL   H13831316   3.186   6.700   2.619 -0.4716 -0.1680  0.1656
  120MOL   H13931317   3.441   6.774   2.460 -0.6577  1.5658  0.7794
  120MOL   H14031318   3.074   6.939   2.362 -0.7527  0.3514 -0.4579
  120MOL   H14131319   3.067   6.800   2.483  0.4982 -1.3829 -1.2224
  120MOL   H14231320   3.042   6.767   2.326 -1.7335  3.3202 -1.2944
  120MOL   H14331321   3.412   6.841   2.241 -0.4939 -0.1826 -1.0882
  120MOL   H14431322   3.276   6.957   2.217  1.9524  0.6618  0.3404
  120MOL   C14531323   3.238   6.772   2.116  0.6054 -0.2371 -0.4847
  120MOL   C14631324   3.309   6.797   1.982 -0.3400 -0.3491 -0.1436
  120MOL   C14731325   3.336   6.710   1.882 -0.3368 -0.4295  0.4400
  120MOL   C14831326   3.308   6.566   1.888  0.7820 -0.2069  0.1183
  120MOL   C14931327   3.400   6.753   1.752  0.0358 -0.0446 -0.0095
  120MOL   H15031328   3.132   6.788   2.098 -0.1750 -4.6473 -0.5207
  120MOL   H15131329   3.240   6.665   2.137 -2.2583 -0.2346 -0.0125
  120MOL   H15231330   3.333   6.900   1.960 -1.4071 -0.4202 -1.7567
  120MOL   H15331331   3.282   6.521   1.792 -3.1362  1.0793  0.4950
  120MOL   H15431332   3.211   6.551   1.936 -0.1738  0.5908 -1.5191
  120MOL   H15531333   3.380   6.519   1.954  3.3556 -0.0082 -2.4325
  120MOL   H15631334   3.450   6.674   1.696  0.5697  0.0915  0.2673
  120MOL   H15731335   3.482   6.821   1.774 -1.3005  1.9967 -1.2324
  120MOL   C15831336   3.296   6.821   1.666  0.6913 -0.2944  0.4727
  120MOL   C15931337   3.353   6.876   1.538 -0.0705 -0.9542 -0.1885
  120MOL   C16031338   3.375   7.007   1.505 -0.0351  0.2297 -0.1543
  120MOL   C16131339   3.350   7.125   1.595 -0.3725  0.0120 -0.1216
  120MOL   C16231340   3.422   7.036   1.366  0.2652  0.0583  0.1442
  120MOL   H16331341   3.250   6.906   1.716  2.3985  2.0596 -1.7765
  120MOL   H16431342   3.224   6.746   1.636  0.0456  0.1186  0.9801
  120MOL   H16531343   3.382   6.797   1.469  1.1911 -1.1979  0.6029
  120MOL   H16631344   3.403   7.218   1.574  0.1247 -0.0677  0.7366
  120MOL   H16731345   3.368   7.105   1.701 -0.8378 -3.3806 -0.6169
  120MOL   H16831346   3.245   7.150   1.584 -0.4195 -1.0437 -2.3106
  120MOL   H16931347   3.507   6.974   1.339  0.8459  0.4624  0.9889
  120MOL   H17031348   3.457   7.139   1.355 -0.4909  0.3475  0.3735
  120MOL   C17131349   3.314   7.025   1.256  1.5538 -0.1657  0.1728
  120MOL   C17231350   3.213   7.145   1.252  0.5330  0.1080  0.6746
  120MOL   C17331351   3.079   7.154   1.244 -0.0048  1.0552 -0.2110
  120MOL   C17431352   2.990   7.030   1.215 -0.1477 -0.1647 -0.1925
  120MOL   C17531353   3.007   7.278   1.254 -0.3662  0.4316 -0.0672
  120MOL   H17631354   3.269   6.927   1.270 -0.8847  0.4998 -2.3689
  120MOL   H17731355   3.373   7.023   1.164  1.3329 -0.3670  0.0336
  120MOL   H17831356   3.270   7.235   1.269 -1.6236  1.9871 -1.6970
  120MOL   H17931357   3.050   6.942   1.194  0.7973  0.8844 -1.9724
  120MOL   H18031358   2.932   7.059   1.127  0.3532  2.1227  0.2036
  120MOL   H18131359   2.930   7.013   1.305  0.3710  0.7792  0.3262
  120MOL   H18231360   2.922   7.265   1.322  0.2435 -1.0403  0.4424
  120MOL   H18331361   2.955   7.293   1.160 -0.0860  1.2063 -0.0954
  120MOL   C18431362   3.085   7.404   1.299 -0.1668 -0.2264 -0.5077
  120MOL   C18531363   3.002   7.531   1.294 -0.1742 -0.2374  0.4818
  120MOL   C18631364   3.034   7.648   1.232  0.8346 -0.2344  0.2433
  120MOL   C18731365   3.165   7.680   1.165 -0.2284 -0.2140  0.1426
  120MOL   C18831366   2.930   7.762   1.231 -0.0239 -0.0780 -0.0472
  120MOL   H18931367   3.168   7.415   1.229 -0.3756 -0.7241 -0.8367
  120MOL   H19031368   3.126   7.389   1.399  2.4756  1.7240 -1.2387
  120MOL   H19131369   2.904   7.533   1.340 -1.3380  3.0128 -1.8828
  120MOL   H19231370   3.165   7.778   1.118  1.6081  0.0062  0.5552
  120MOL   H19331371   3.186   7.605   1.089 -1.5906 -0.2894 -0.1749
  120MOL   H19431372   3.248   7.670   1.236  0.7200 -1.5614 -1.1198
  120MOL   H19531373   2.969   7.864   1.230 -0.5910  0.1704 -3.2546
  120MOL   H19631374   2.880   7.761   1.328 -0.5337 -0.0716 -0.3120
  120MOL   C19731375   2.839   7.748   1.110 -0.4100  0.7732  0.2846
  120MOL   C19831376   2.732   7.855   1.097 -0.0493  0.2149 -0.0633
  120MOL   C19931377   2.625   7.849   1.015  0.0160  0.4671  0.7359
  120MOL   C20031378   2.591   7.731   0.927 -0.3266 -0.3705 -0.6474
  120MOL   C20131379   2.528   0.078   0.991  0.4082 -0.5273 -0.0467
  120MOL   H20231380   2.794   7.650   1.128  0.6647  0.2331  0.0480
  120MOL   H20331381   2.901   7.745   1.020  0.3207  0.1009  0.8098
  120MOL   H20431382   2.746   0.069   1.144  2.5696  0.9745 -2.2056
  120MOL   H20531383   2.668   7.655   0.928 -1.0433 -1.1187  1.8362
  120MOL   H20631384   2.593   7.764   0.823 -2.3942  0.5108 -0.4456
  120MOL   H20731385   2.492   7.690   0.947  0.4860 -2.7349 -1.3185
  120MOL   H20831386   2.523   0.102   0.885  0.8996 -0.6092 -0.0879
  120MOL   H20931387   2.580   0.167   1.026  0.7410 -0.5845 -0.3988
  120MOL   C21031388   2.390   0.064   1.056  0.4517  0.2049  0.7878
  120MOL   C21131389   2.304   0.183   1.037 -0.5903  0.3997  0.5522
  120MOL   C21231390   2.261   0.275   1.119 -0.3567  0.0031 -0.6064
  120MOL   C21331391   2.311   0.291   1.265 -0.4478  0.2249  0.4524
  120MOL   C21431392   2.149   0.378   1.069 -0.2602  0.9458 -0.0452
  120MOL   H21531393   2.395   0.052   1.164  0.3518  0.6086  0.8390
  120MOL   H21631394   2.336   7.860   1.018  2.6995 -1.1773  0.7084
  120MOL   H21731395   2.272   0.190   0.934 -1.8232  1.4757  0.9945
  120MOL   H21831396   2.288   0.392   1.301  2.2960  1.3275 -0.7204
  120MOL   H21931397   2.419   0.280   1.268 -0.7493 -3.1434  1.8530
  120MOL   H22031398   2.270   0.203   1.315  0.9321 -1.3896 -1.2324
  120MOL   H22131399   2.166   0.398   0.963  1.5979  0.0427  0.0626
  120MOL   H22231400   2.180   0.471   1.118  1.7246  0.4005 -0.2111
  120MOL   C22331401   2.015   0.322   1.123 -0.2036 -0.1780  0.0543
  120MOL   C22431402   1.892   0.365   1.035 -0.5705  0.5180 -0.5273
  120MOL   C22531403   1.789   0.283   0.995  0.0332  0.4314 -0.1627
  120MOL   C22631404   1.775   0.132   1.031  0.1656 -0.6532 -0.4501
  120MOL   C22731405   1.663   0.325   0.921  1.0861  0.3575 -0.4064
  120MOL   H22831406   2.006   0.348   1.228 -0.1263 -2.5236  0.6660
  120MOL   H22931407   2.017   0.214   1.108  1.9730 -0.1818  0.2904
  120MOL   H23031408   1.891   0.472   1.022  2.3621  0.5143 -1.1433
  120MOL   H23131409   1.692   0.113   1.099 -2.1470  5.6740 -1.2594
  120MOL   H23231410   1.864   0.085   1.074  0.0393 -0.2464  0.2565
  120MOL   H23331411   1.758   0.063   0.948  1.0901 -0.4297 -0.8330
  120MOL   H23431412   1.587   0.300   0.995  1.9299  1.4220  0.8490
  120MOL   H23531413   1.639   0.255   0.841 -1.3976  0.2853  0.3630
  120MOL   C23631414   1.655   0.477   0.870 -0.2977  0.7697 -0.2359
  120MOL   C23731415   1.658   0.577   0.977  0.4413  0.9748  0.7698
  120MOL   C23831416   1.711   0.700   0.971  0.0819 -0.3021 -0.7027
  120MOL   C23931417   1.777   0.766   0.848  0.2398  0.9543  0.5920
  120MOL   C24031418   1.728   0.782   1.096 -0.1823  0.6267 -0.7240
  120MOL   H24131419   1.563   0.484   0.812  0.0017 -1.6177 -1.0475
  120MOL   H24231420   1.724   0.501   0.789 -1.5697  2.4631 -0.8523
  120MOL   H24331421   1.618   0.538   1.069 -0.7007  0.7479  0.1780
  120MOL   H24431422   1.738   0.867   0.842  0.0845  0.8016 -1.3112
  120MOL   H24531423   1.765   0.705   0.758 -2.5739  2.2281  0.0447
  120MOL   H24631424   1.884   0.757   0.863  0.0263 -1.8463  0.7531
  120MOL   H24731425   1.826   0.830   1.096 -0.6207  1.5341 -1.4200
  120MOL   H24831426   1.732   0.712   1.180 -3.2272  1.5386  0.2452
  120MOL   C24931427   1.628   0.887   1.127 -0.1963 -0.1894 -0.2977
  120MOL   C25031428   1.657   0.961   1.253  0.3920  0.2256 -0.0150
  120MOL   C25131429   1.577   0.961   1.359  0.5450 -0.2576  0.3659
  120MOL   C25231430   1.441   0.897   1.382  0.2898  0.3969 -0.4667
  120MOL   C25331431   1.606   1.059   1.473  0.5682  0.3936 -0.4710
  120MOL   H25431432   1.528   0.842   1.129 -1.0015  1.5478 -0.4437
  120MOL   H25531433   1.632   0.957   1.044 -2.8372  2.0935  1.3990
  120MOL   H25631434   1.755   1.006   1.263 -0.1363  1.1995  0.8079
  120MOL   H25731435   1.415   0.827   1.302  2.0761  1.3048 -1.8776
  120MOL   H25831436   1.358   0.968   1.382  0.7587  0.9451  0.3559
  120MOL   H25931437   1.440   0.854   1.482 -0.1636  1.0993 -0.1643
  120MOL   H26031438   1.610   0.995   1.561 -0.2444 -0.0962 -0.7854
  120MOL   H26131439   1.530   1.137   1.485 -0.4021 -0.6912  0.5248
  120MOL   H26231440   1.706   1.098   1.454  0.5231  0.3555 -0.7871
  121MOL     C131441   1.099   2.534   3.843  0.2232  0.6363 -0.2170
  121MOL     C231442   1.122   2.457   3.972 -0.1016  0.0872  0.0899
  121MOL     C331443   1.206   2.478   4.072 -0.0335 -0.1273  0.0114
  121MOL     C431444   1.313   2.591   4.078  0.6572 -0.9217  0.5369
  121MOL     C531445   1.196   2.390   4.198 -0.3728  0.3103 -0.1205
  121MOL     H631446   1.018   2.606   3.857 -1.2834 -1.1582  0.5801
  121MOL     H731447   1.187   2.588   3.809 -0.0564  0.1718 -1.7440
  121MOL     H831448   1.056   2.372   3.973  0.7574 -0.5756  0.0368
  121MOL     H931449   1.303   2.651   3.988  0.4044  0.7234  1.6262
  121MOL    H1031450   1.418   2.561   4.077  0.6942 -0.7976  0.6160
  121MOL    H1131451   1.286   2.660   4.158  1.9994 -1.3929  1.4056
  121MOL    H1231452   1.117   2.315   4.189 -0.1706 -0.1323  1.7030
  121MOL    H1331453   1.171   2.447   4.287  1.3636 -0.4483  0.8637
  121MOL    H1431454   1.070   2.456   3.772 -2.4094 -0.6710  2.1814
  121MOL    C1531455   1.331   2.331   4.238  0.3932 -0.2401 -0.0150
  121MOL    C1631456   1.316   2.224   4.351  0.9848 -0.0395  0.8428
  121MOL    C1731457   1.407   2.198   4.449  0.7168 -0.1005 -0.2744
  121MOL    C1831458   1.530   2.281   4.484 -0.5493 -0.1471  1.3859
  121MOL    C1931459   1.394   2.065   4.523 -0.1876  0.1728 -0.3640
  121MOL    H2031460   1.398   2.411   4.269  0.8739 -0.6131 -0.0788
  121MOL    H2131461   1.373   2.286   4.148  1.7921  0.7055  0.1481
  121MOL    H2231462   1.234   2.155   4.335  0.6546  0.4691  0.3508
  121MOL    H2331463   1.527   2.332   4.581 -1.2197  1.1631  0.6940
  121MOL    H2431464   1.552   2.361   4.413 -0.0345 -0.0275  1.6761
  121MOL    H2531465   1.616   2.214   4.487 -1.1581 -1.0390 -0.4012
  121MOL    H2631466   1.287   2.051   4.531 -0.1401 -0.4459 -0.7843
  121MOL    H2731467   1.417   2.063   4.629 -0.4646  0.1556 -0.3051
  121MOL    C2831468   1.478   1.950   4.461  0.6610  0.0751 -0.3543
  121MOL    C2931469   1.424   1.815   4.489 -0.6181  0.1164  0.2264
  121MOL    C3031470   1.490   1.699   4.460 -0.4814  0.3862  0.5680
  121MOL    C3131471   1.625   1.682   4.392 -0.1654 -0.1792 -0.1161
  121MOL    C3231472   1.414   1.569   4.474 -0.8255 -0.4042  0.0599
  121MOL    H3331473   1.582   1.956   4.493  0.7065  2.6198 -0.8747
  121MOL    H3431474   1.481   1.965   4.353 -0.3846 -0.6699 -0.4867
  121MOL    H3531475   1.323   1.810   4.528 -0.2179 -0.8091  1.1723
  121MOL    H3631476   1.612   1.643   4.291  1.6508  0.3747 -0.5926
  121MOL    H3731477   1.674   1.611   4.458  0.0841  0.3431  0.2598
  121MOL    H3831478   1.686   1.773   4.396 -0.7871  0.1804  1.7099
  121MOL    H3931479   1.339   1.584   4.552 -1.1975 -1.3255 -0.1081
  121MOL    H4031480   1.475   1.484   4.507 -1.4977 -1.2971 -0.9424
  121MOL    C4131481   1.329   1.532   4.351 -0.6657 -0.2338  0.7090
  121MOL    C4231482   1.246   1.412   4.383  0.7103 -0.2967 -0.3362
  121MOL    C4331483   1.112   1.406   4.365  0.4988  0.1440 -0.6087
  121MOL    C4431484   1.041   1.521   4.296  0.3911  1.0574 -0.5528
  121MOL    C4531485   1.035   1.284   4.391  0.4565  0.6054 -0.1349
  121MOL    H4631486   1.390   1.494   4.269 -0.1916 -0.3764  1.1245
  121MOL    H4731487   1.266   1.618   4.329 -2.6810 -1.4869  1.4122
  121MOL    H4831488   1.294   1.318   4.407  0.8104  0.0548  0.8301
  121MOL    H4931489   0.937   1.532   4.327  0.2365  1.9934 -1.3568
  121MOL    H5031490   1.045   1.501   4.189  0.2210  0.4766 -0.4515
  121MOL    H5131491   1.077   1.622   4.316  0.3285  1.0493 -0.3972
  121MOL    H5231492   0.936   1.311   4.427  0.1799  1.0982 -1.2576
  121MOL    H5331493   1.084   1.229   4.471 -0.2086 -0.0469 -0.1596
  121MOL    C5431494   1.011   1.199   4.269  0.1903  0.2832  0.0596
  121MOL    C5531495   0.953   1.065   4.306 -0.4233 -0.0494  0.0905
  121MOL    C5631496   0.834   1.018   4.266  0.6017  0.7313 -0.3701
  121MOL    C5731497   0.728   1.094   4.185  0.1913 -0.1783  0.3123
  121MOL    C5831498   0.796   0.879   4.303 -0.1345 -0.2085  0.1268
  121MOL    H5931499   1.104   1.171   4.220  0.8775  0.6579  1.1288
  121MOL    H6031500   0.943   1.254   4.205  0.6986 -0.3160 -1.0044
  121MOL    H6131501   1.019   0.994   4.354 -0.9161 -0.3898  0.2734
  121MOL    H6231502   0.627   1.060   4.207  0.5494  0.1494  2.5994
  121MOL    H6331503   0.746   1.074   4.079  0.0678 -0.4351  0.3376
  121MOL    H6431504   0.721   1.202   4.196  0.1555 -0.0624 -0.7477
  121MOL    H6531505   0.864   0.797   4.278  0.2046 -0.1803  0.9223
  121MOL    H6631506   0.710   0.852   4.243  0.2537 -0.8054 -0.1636
  121MOL    C6731507   0.766   0.869   4.454  0.0993 -0.2487 -0.5546
  121MOL    C6831508   0.658   0.761   4.483 -0.2585 -0.3817 -0.3933
  121MOL    C6931509   0.677   0.632   4.517 -0.4026  0.5797  0.4041
  121MOL    C7031510   0.821   0.571   4.511 -0.4247 -0.0707  0.0738
  121MOL    C7131511   0.565   0.553   4.577 -0.7393  0.5066  0.1042
  121MOL    H7231512   0.733   0.966   4.491  2.4312 -0.4422  2.2434
  121MOL    H7331513   0.865   0.854   4.498  0.8787  2.4654 -1.3396
  121MOL    H7431514   0.556   0.795   4.490  0.3672  1.6414 -0.6119
  121MOL    H7531515   0.820   0.476   4.457 -3.3163 -0.3856  0.6350
  121MOL    H7631516   0.873   0.551   4.605  0.7974  1.0642 -0.3347
  121MOL    H7731517   0.887   0.642   4.461 -1.6716  1.6147  0.7711
  121MOL    H7831518   0.495   0.627   4.614 -0.6830  1.1866 -1.1075
  121MOL    H7931519   0.598   0.489   4.659  1.0276 -0.1765 -1.1085
  121MOL    C8031520   0.515   0.446   4.478  0.1919 -0.1936 -0.2636
  121MOL    C8131521   0.408   0.362   4.542  0.1342 -0.4971  0.7174
  121MOL    C8231522   0.310   0.301   4.484 -0.3087  0.6640  0.8210
  121MOL    C8331523   0.279   0.302   4.336  0.1127 -0.7408 -0.2931
  121MOL    C8431524   0.213   0.209   4.558  0.3080 -0.2573  0.1706
  121MOL    H8531525   0.594   0.384   4.437 -0.5087 -0.3975 -1.3253
  121MOL    H8631526   0.469   0.498   4.394  2.2356  1.6332 -0.2798
  121MOL    H8731527   0.418   0.352   4.649 -2.7926  0.1814  1.1051
  121MOL    H8831528   0.278   0.205   4.285  1.1397 -1.5200  1.1348
  121MOL    H8931529   0.360   0.359   4.291  0.3605  0.2232  1.3353
  121MOL    H9031530   0.185   0.354   4.318  0.0931 -0.1012  1.5542
  121MOL    H9131531   0.253   0.205   4.660 -0.0206 -0.3791  0.2959
  121MOL    H9231532   0.210   0.104   4.529 -0.5349 -0.1305 -0.2113
  121MOL    C9331533   0.068   0.280   4.570 -0.0093 -0.6281  0.1634
  121MOL    C9431534   7.853   0.187   4.639 -0.8637  0.2619  0.2550
  121MOL    C9531535   7.722   0.170   4.608 -0.8434  0.0580  0.1877
  121MOL    C9631536   7.655   0.249   4.499  0.7421 -0.0611  0.4016
  121MOL    C9731537   7.639   0.056   4.660 -0.2372  0.4947 -0.0548
  121MOL    H9831538   0.033   0.297   4.468  3.0405  1.2436 -0.6302
  121MOL    H9931539   0.089   0.375   4.618  2.0359 -0.6329 -0.7008
  121MOL   H10031540   0.012   0.118   4.711 -0.6690 -0.1911 -0.2818
  121MOL   H10131541   7.558   0.288   4.529  0.5087 -0.2577 -0.0893
  121MOL   H10231542   7.629   0.179   4.420 -1.4988  1.5455 -0.3425
  121MOL   H10331543   7.711   0.333   4.458  0.0371  0.9577  1.4640
  121MOL   H10431544   7.699   0.001   4.732 -0.4895 -0.2094 -0.3724
  121MOL   H10531545   7.613   7.880   4.572 -3.2860  1.2206  0.2815
  121MOL   C10631546   7.509   0.102   4.735  0.0526  0.2314 -0.0069
  121MOL   C10731547   7.523   0.119   4.885 -0.8331 -0.5732  0.2367
  121MOL   C10831548   7.511   0.228   4.961 -0.1369  0.2091 -0.4069
  121MOL   C10931549   7.479   0.368   4.909 -0.5461 -0.6032 -0.8210
  121MOL   C11031550   7.528   0.222   5.114 -0.1458  0.3559 -0.4380
  121MOL   H11131551   7.450   0.011   4.745  1.1260 -0.5728 -0.8312
  121MOL   H11231552   7.434   0.169   4.692  0.7668  1.3866  0.5263
  121MOL   H11331553   7.553   0.028   4.934 -3.3828 -0.8224  1.3670
  121MOL   H11431554   7.521   0.449   4.969 -1.0621 -0.1347 -1.0852
  121MOL   H11531555   7.372   0.388   4.916 -0.6786 -1.0170 -1.6324
  121MOL   H11631556   7.518   0.379   4.808  1.5395  0.0631  0.0457
  121MOL   H11731557   7.615   0.281   5.143  1.6935 -1.7684 -1.4258
  121MOL   H11831558   7.548   0.118   5.141  2.0696  1.3807  1.9918
  121MOL   C11931559   7.412   0.265   5.199 -0.1602 -0.0174  0.3117
  121MOL   C12031560   7.282   0.192   5.151 -0.4690 -0.9776 -0.0347
  121MOL   C12131561   7.204   0.100   5.218 -0.3952 -0.3674 -0.6743
  121MOL   C12231562   7.240   0.046   5.357  0.2267  0.3553 -0.3546
  121MOL   C12331563   7.078   0.034   5.166  1.0516  0.0319  0.1895
  121MOL   H12431564   7.404   0.374   5.196  0.8354  0.0459 -0.6761
  121MOL   H12531565   7.432   0.238   5.302 -1.3579 -1.7334  0.1127
  121MOL   H12631566   7.248   0.213   5.051 -4.0196 -0.0136  1.2978
  121MOL   H12731567   7.265   7.822   5.354 -2.8199 -0.3836 -0.9849
  121MOL   H12831568   7.150   0.049   5.418  2.1867 -3.1409  2.8998
  121MOL   H12931569   7.310   0.105   5.416 -1.6537  1.0321  1.2515
  121MOL   H13031570   6.995   0.060   5.232  0.5144 -0.8052 -0.1417
  121MOL   H13131571   7.088   7.808   5.173  0.1626 -0.0791 -0.2003
  121MOL   C13231572   7.048   0.069   5.024  0.4131 -0.4155 -0.3313
  121MOL   C13331573   6.933   7.870   4.968 -0.2478  0.0602 -0.4761
  121MOL   C13431574   6.820   0.019   4.904 -0.3334  0.2742  0.0500
  121MOL   C13531575   6.790   0.168   4.877  0.7318 -0.4071 -0.1002
  121MOL   C13631576   6.711   7.790   4.885 -0.2831  0.0684 -0.0897
  121MOL   H13731577   7.132   0.046   4.958  0.2216 -0.6060 -0.5120
  121MOL   H13831578   7.024   0.175   5.020 -1.1451 -0.8066 -1.9351
  121MOL   H13931579   6.944   7.765   4.990 -0.4373  0.4395  1.4742
  121MOL   H14031580   6.772   0.221   4.970  1.5195  0.5320 -0.4754
  121MOL   H14131581   6.703   0.177   4.813  0.2067  0.0546  0.6693
  121MOL   H14231582   6.875   0.213   4.826 -0.3397  0.9888 -0.6627
  121MOL   H14331583   6.740   7.710   4.954  0.4346  0.3562 -0.0429
  121MOL   H14431584   6.712   7.755   4.782 -2.0592 -0.4770  0.0650
  121MOL   C14531585   6.563   7.831   4.909  0.6197  0.5088 -0.1264
  121MOL   C14631586   6.468   7.724   4.955  0.1492  0.3154  0.4634
  121MOL   C14731587   6.362   7.673   4.889  0.3138  0.0156  0.1229
  121MOL   C14831588   6.313   7.709   4.747  0.3368  0.2744  0.2963
  121MOL   C14931589   6.269   7.585   4.969 -0.7014 -0.4294 -0.3595
  121MOL   H15031590   6.538   0.007   4.820 -0.5144  2.3185  1.3473
  121MOL   H15131591   6.562   0.027   4.984  0.7050 -0.5879  1.0275
  121MOL   H15231592   6.482   7.701   5.060  1.2362  2.0896  0.7347
  121MOL   H15331593   6.395   7.745   4.684 -0.6171 -0.1380 -1.1886
  121MOL   H15431594   6.242   7.791   4.739  0.3271  0.4854  2.2112
  121MOL   H15531595   6.267   7.624   4.698 -0.5198 -1.0642  3.3013
  121MOL   H15631596   6.166   7.614   4.947 -0.9505  0.3734  1.7819
  121MOL   H15731597   6.278   7.590   5.077 -2.3457  0.7977 -0.2545
  121MOL   C15831598   6.301   7.449   4.927  0.2021  0.0150 -0.1758
  121MOL   C15931599   6.214   7.346   4.985  0.0792 -0.4921 -0.2784
  121MOL   C16031600   6.123   7.265   4.922  0.1139  0.3284  0.5437
  121MOL   C16131601   6.078   7.270   4.775 -0.5332  0.0684  0.6319
  121MOL   C16231602   6.042   7.163   5.010  0.2308 -0.2557  0.7733
  121MOL   H16331603   6.403   7.422   4.955  0.9494  1.1843 -1.7332
  121MOL   H16431604   6.303   7.429   4.820 -2.2394  0.0632 -0.2557
  121MOL   H16531605   6.226   7.331   5.091  0.4231  1.6717  0.0006
  121MOL   H16631606   6.122   7.345   4.710  0.9357 -0.8881  0.5018
  121MOL   H16731607   5.970   7.277   4.762 -0.1926 -0.3072 -2.9973
  121MOL   H16831608   6.117   7.176   4.734 -2.2165 -0.1042 -0.6176
  121MOL   H16931609   6.111   7.143   5.092  1.6567 -0.4861 -0.4578
  121MOL   H17031610   6.025   7.071   4.953 -0.9682 -0.5684  1.6197
  121MOL   C17131611   5.910   7.215   5.071  0.7269  0.1141  0.0582
  121MOL   C17231612   5.854   7.138   5.190  0.6106 -0.3125 -0.9996
  121MOL   C17331613   5.847   7.177   5.317  0.2514 -0.0168  0.0284
  121MOL   C17431614   5.888   7.309   5.368 -0.5376 -0.7404 -0.3308
  121MOL   C17531615   5.798   7.093   5.432 -0.3429  0.2450 -0.2278
  121MOL   H17631616   5.839   7.209   4.988  1.0694  2.9578 -0.4955
  121MOL   H17731617   5.926   7.320   5.095 -0.8197  1.0445 -2.6658
  121MOL   H17831618   5.824   7.038   5.160 -0.4228  0.2410 -1.8563
  121MOL   H17931619   5.950   7.308   5.458 -0.5263  0.6987 -0.3115
  121MOL   H18031620   5.803   7.369   5.400  0.7607  1.8906 -1.6593
  121MOL   H18131621   5.939   7.371   5.294 -2.8969  0.0585 -1.3364
  121MOL   H18231622   5.878   7.088   5.507 -2.3892  0.7476  2.0394
  121MOL   H18331623   5.802   6.991   5.395  0.9576  0.6390 -1.2135
  121MOL   C18431624   5.665   7.134   5.493 -0.1844  0.3512 -0.2243
  121MOL   C18531625   5.553   7.114   5.399  0.3225 -0.0459 -0.6078
  121MOL   C18631626   5.457   7.015   5.399 -0.2871  0.7636  0.3424
  121MOL   C18731627   5.459   6.896   5.495 -0.7591  0.8719  0.2027
  121MOL   C18831628   5.335   7.037   5.314 -0.5421  0.2182  0.7501
  121MOL   H18931629   5.666   7.241   5.515 -2.0850  0.2663  0.3960
  121MOL   H19031630   5.640   7.091   5.590 -0.1543  0.8069 -0.0107
  121MOL   H19131631   5.536   7.197   5.331  1.7992  0.4604 -0.3829
  121MOL   H19231632   5.462   6.800   5.443  1.2195 -0.2926  2.3786
  121MOL   H19331633   5.366   6.895   5.552 -0.0446 -0.0716  1.3652
  121MOL   H19431634   5.547   6.901   5.559  0.7369  0.0237 -1.7359
  121MOL   H19531635   5.320   7.137   5.274 -0.5474 -1.3043 -3.2534
  121MOL   H19631636   5.250   7.026   5.382  1.3693 -2.0553  2.8508
  121MOL   C19731637   5.328   6.946   5.185 -0.2051 -0.6428  0.1557
  121MOL   C19831638   5.443   6.971   5.086  0.4549  0.0150 -0.2391
  121MOL   C19931639   5.537   6.891   5.040  0.4650 -0.2766 -0.5140
  121MOL   C20031640   5.540   6.748   5.071 -0.6894  0.2439 -0.3367
  121MOL   C20131641   5.644   6.943   4.949 -0.0538 -0.0825  0.0693
  121MOL   H20231642   5.235   6.955   5.130 -0.0045 -2.3208 -0.4830
  121MOL   H20331643   5.329   6.842   5.219  0.0033 -0.0071  2.2170
  121MOL   H20431644   5.446   7.074   5.054 -0.3686  0.1841  0.1885
  121MOL   H20531645   5.527   6.687   4.982 -2.9414 -0.7974  0.6698
  121MOL   H20631646   5.461   6.712   5.136 -0.1179 -2.5892 -1.1767
  121MOL   H20731647   5.633   6.725   5.123 -0.5154  2.4484  0.4100
  121MOL   H20831648   5.738   6.898   4.981  0.5176  0.6405 -0.5763
  121MOL   H20931649   5.646   7.050   4.932 -3.1238  0.0624  0.2036
  121MOL   C21031650   5.618   6.899   4.805 -0.0512  0.0123  0.5658
  121MOL   C21131651   5.715   6.957   4.708 -0.4255 -0.0889 -0.4487
  121MOL   C21231652   5.796   6.887   4.620  0.0456  0.2587 -0.4737
  121MOL   C21331653   5.802   6.739   4.617  0.5478 -0.1093  0.2789
  121MOL   C21431654   5.875   6.958   4.514  0.2151  0.0400 -0.1632
  121MOL   H21531655   5.523   6.945   4.778 -1.0996 -1.4837  1.6561
  121MOL   H21631656   5.600   6.792   4.797 -1.2335  0.3621 -1.7413
  121MOL   H21731657   5.727   7.065   4.708  1.6846 -0.3077  0.5994
  121MOL   H21831658   5.840   6.688   4.528 -1.6957  0.6150 -1.1498
  121MOL   H21931659   5.713   6.680   4.642  1.5348 -0.8411  2.1076
  121MOL   H22031660   5.866   6.716   4.702 -0.1631  0.3355  0.9395
  121MOL   H22131661   5.872   7.064   4.537 -0.2384  0.5097 -2.2138
  121MOL   H22231662   5.823   6.942   4.420  1.0892 -0.7682 -0.5223
  121MOL   C22331663   6.024   6.919   4.501  0.4202  0.3336  0.0431
  121MOL   C22431664   6.094   7.009   4.399  0.1900  0.5132 -0.4668
  121MOL   C22531665   6.188   6.982   4.306 -0.5139 -0.0656  1.0354
  121MOL   C22631666   6.238   6.841   4.273 -0.4428  0.2659  0.0438
  121MOL   C22731667   6.257   7.095   4.231 -0.3264 -0.7809  0.2536
  121MOL   H22831668   6.023   6.814   4.472  0.2382 -0.1365  1.6474
  121MOL   H22931669   6.086   6.922   4.591  0.6915 -0.0319 -0.1304
  121MOL   H23031670   6.062   7.111   4.413  0.1780  0.3788  0.5729
  121MOL   H23131671   6.219   6.817   4.168  0.7550  0.2870 -0.1843
  121MOL   H23231672   6.197   6.761   4.335  0.4427 -0.1618  0.0740
  121MOL   H23331673   6.344   6.840   4.298 -0.8422 -1.8976  1.7954
  121MOL   H23431674   6.206   7.187   4.260 -0.6618 -0.5713 -0.9914
  121MOL   H23531675   6.236   7.079   4.125 -0.9656 -1.1557  0.4377
  121MOL   C23631676   6.409   7.110   4.272  0.0924 -0.4298  0.1845
  121MOL   C23731677   6.474   7.231   4.209 -0.2195  0.1087  0.1523
  121MOL   C23831678   6.575   7.245   4.119  0.2901 -0.3700 -0.1880
  121MOL   C23931679   6.665   7.135   4.075  1.0044 -0.5705  0.0812
  121MOL   C24031680   6.618   7.379   4.064 -0.0516 -0.6802  0.0625
  121MOL   H24131681   6.461   7.017   4.251  0.6694 -0.1218  0.2348
  121MOL   H24231682   6.419   7.118   4.380 -2.1760  0.8589  0.3460
  121MOL   H24331683   6.427   7.323   4.238 -0.9862 -0.8025  1.8685
  121MOL   H24431684   6.663   7.126   3.966  1.1477 -0.4106  0.0667
  121MOL   H24531685   6.630   7.039   4.115 -1.9050 -1.1957 -3.6169
  121MOL   H24631686   6.765   7.144   4.116 -0.0984 -1.1314  3.0019
  121MOL   H24731687   6.722   7.397   4.090  0.5095  1.3341 -3.2721
  121MOL   H24831688   6.561   7.460   4.112  1.3110  0.0081  0.5342
  121MOL   C24931689   6.589   7.406   3.920  0.7987 -1.1225  0.5385
  121MOL   C25031690   6.670   7.528   3.860 -0.4903  0.5235 -0.4207
  121MOL   C25131691   6.617   7.637   3.804 -0.3164 -0.6951  0.1802
  121MOL   C25231692   6.469   7.665   3.792  0.0839 -0.5595 -0.0559
  121MOL   C25331693   6.705   7.733   3.730  0.0490  0.3079 -0.2182
  121MOL   H25431694   6.481   7.404   3.901  0.6772 -3.1527  1.2800
  121MOL   H25531695   6.617   7.314   3.869  0.1180 -1.3691  0.5969
  121MOL   H25631696   6.776   7.521   3.879 -1.4434 -1.5077  5.3169
  121MOL   H25731697   6.444   7.770   3.808  1.9984 -0.2548  1.0342
  121MOL   H25831698   6.421   7.603   3.867 -1.0673  0.0537 -0.2651
  121MOL   H25931699   6.423   7.632   3.698 -0.1988 -2.3221  0.6856
  121MOL   H26031700   6.682   7.746   3.625 -1.4350 -2.6891 -0.3069
  121MOL   H26131701   6.811   7.706   3.733 -0.5940 -2.3305 -0.0504
  121MOL   H26231702   6.697   7.833   3.774 -1.0454 -0.0893  0.4903
  122MOL     C131703   1.861   0.253   0.548  0.0511  0.7964 -0.6672
  122MOL     C231704   1.998   0.255   0.611 -0.1918 -0.2559 -0.2219
  122MOL     C331705   2.112   0.286   0.551  0.2519 -0.1543  0.0485
  122MOL     C431706   2.116   0.333   0.408 -0.4897  0.4920 -0.5524
  122MOL     C531707   2.249   0.291   0.621 -0.2499  0.4368 -0.6710
  122MOL     H631708   1.851   0.178   0.470  2.9601 -1.1004  0.6864
  122MOL     H731709   1.778   0.240   0.617  1.5188 -2.9782  0.5112
  122MOL     H831710   2.000   0.226   0.714 -0.0783  0.0197 -0.1463
  122MOL     H931711   2.041   0.409   0.387  0.0231  1.3228  0.5989
  122MOL    H1031712   2.091   0.245   0.348  0.2313 -0.9769  1.2373
  122MOL    H1131713   2.217   0.361   0.377 -0.4373 -0.4544 -1.2431
  122MOL    H1231714   2.330   0.236   0.574 -0.4781 -1.8918  1.5139
  122MOL    H1331715   2.246   0.233   0.714  0.4741 -1.7980 -1.9996
  122MOL    H1431716   1.848   0.347   0.494 -0.7395  1.7078  1.0546
  122MOL    C1531717   2.280   0.440   0.654 -0.5436 -0.5182 -0.1721
  122MOL    C1631718   2.400   0.463   0.746  0.5317 -0.1740  0.5058
  122MOL    C1731719   2.524   0.509   0.712  1.0767 -0.3286  0.2813
  122MOL    C1831720   2.570   0.533   0.568 -0.0692 -0.0070 -0.3957
  122MOL    C1931721   2.633   0.533   0.815 -0.7565  0.0741 -0.1440
  122MOL    H2031722   2.194   0.483   0.706  0.2230 -0.5295  1.1220
  122MOL    H2131723   2.286   0.499   0.563 -1.3275  0.7441  0.5816
  122MOL    H2231724   2.388   0.434   0.850  0.8061 -1.8905  0.0655
  122MOL    H2331725   2.519   0.457   0.510 -3.0278  0.3028  1.7214
  122MOL    H2431726   2.676   0.510   0.556 -0.2253 -2.6640  2.6093
  122MOL    H2531727   2.541   0.630   0.528  2.1292  0.6805 -0.3813
  122MOL    H2631728   2.588   0.552   0.912  0.4407  0.8369  0.2623
  122MOL    H2731729   2.703   0.611   0.787  1.1922 -2.1719 -1.6899
  122MOL    C2831730   2.719   0.405   0.831  0.2585  0.8821  0.3853
  122MOL    C2931731   2.833   0.426   0.930  0.3410 -0.1428 -0.7667
  122MOL    C3031732   2.920   0.329   0.961  1.0062  0.5686 -0.2991
  122MOL    C3131733   2.911   0.192   0.906  0.2697 -0.5358 -1.0186
  122MOL    C3231734   3.030   0.350   1.062  0.1836  0.2619  0.6048
  122MOL    H3331735   2.772   0.375   0.741 -1.4435 -1.2375  0.0440
  122MOL    H3431736   2.645   0.331   0.862 -0.0098  0.7144 -0.6312
  122MOL    H3531737   2.845   0.526   0.970 -0.8992 -0.0742 -0.5313
  122MOL    H3631738   2.807   0.161   0.896  0.3455 -0.5784 -1.7083
  122MOL    H3731739   2.959   0.114   0.965  1.7267  0.8967 -0.2699
  122MOL    H3831740   2.937   0.192   0.800 -0.7187  0.7632 -1.2715
  122MOL    H3931741   2.998   0.265   1.121 -1.5088 -0.7199 -1.6117
  122MOL    H4031742   3.018   0.442   1.120 -0.3163  0.2654  0.5057
  122MOL    C4131743   3.169   0.350   1.000  0.9590  0.6328  0.0820
  122MOL    C4231744   3.279   0.367   1.113  0.3435 -0.1935  0.5158
  122MOL    C4331745   3.402   0.420   1.098 -0.6038 -0.3328  0.0972
  122MOL    C4431746   3.460   0.460   0.960 -0.8938  0.1811  0.1860
  122MOL    C4531747   3.493   0.445   1.215  0.0265 -0.1001 -0.6032
  122MOL    H4631748   3.180   0.418   0.916  1.2474 -0.6981 -0.9762
  122MOL    H4731749   3.163   0.253   0.952 -2.7061  0.1274  1.4130
  122MOL    H4831750   3.239   0.330   1.206 -1.1081 -1.6685 -0.6577
  122MOL    H4931751   3.475   0.562   0.927  0.1054 -0.4370 -1.3068
  122MOL    H5031752   3.407   0.414   0.877 -0.9652  0.2025  0.2193
  122MOL    H5131753   3.561   0.428   0.934 -0.0636  0.3287  3.0657
  122MOL    H5231754   3.428   0.423   1.299  1.5921 -0.0714  0.6318
  122MOL    H5331755   3.515   0.548   1.242 -0.7597 -0.2172  0.4982
  122MOL    C5431756   3.620   0.368   1.214  0.1117 -0.1808 -0.0420
  122MOL    C5531757   3.608   0.218   1.194 -0.1522 -0.4208  0.5882
  122MOL    C5631758   3.672   0.142   1.102 -0.0006  0.0104 -0.4060
  122MOL    C5731759   3.781   0.187   1.007 -0.1791  0.8628 -0.3000
  122MOL    C5831760   3.615   0.004   1.074 -0.7068 -0.0890  0.6298
  122MOL    H5931761   3.663   0.375   1.314 -1.2636 -1.3140  0.6611
  122MOL    H6031762   3.687   0.420   1.146 -1.8804  3.0032  0.2953
  122MOL    H6131763   3.527   0.172   1.250 -1.4171  1.6195  0.4930
  122MOL    H6231764   3.759   0.164   0.903 -1.1476 -1.2306  0.3557
  122MOL    H6331765   3.876   0.138   1.031 -0.8579 -0.3038 -0.0114
  122MOL    H6431766   3.785   0.296   1.004 -0.0301  0.9484  2.1091
  122MOL    H6531767   3.652   7.852   0.977 -1.0323  0.2619  0.3828
  122MOL    H6631768   3.506   0.008   1.072 -0.9144 -3.4116  1.5364
  122MOL    C6731769   3.655   7.780   1.179 -0.1143 -0.1625 -0.0703
  122MOL    C6831770   3.595   7.643   1.156 -0.0625  0.2272 -0.6333
  122MOL    C6931771   3.561   7.554   1.252 -0.0605  0.2048 -0.1749
  122MOL    C7031772   3.603   7.577   1.400  0.0780 -0.1093  0.2341
  122MOL    C7131773   3.493   7.419   1.222 -0.4263 -0.7449 -0.6416
  122MOL    H7231774   3.643   7.819   1.280  2.1006  0.5680 -0.0654
  122MOL    H7331775   3.760   7.753   1.166  0.0500  0.1261  0.6488
  122MOL    H7431776   3.565   7.614   1.056 -1.0976  0.6387 -0.4537
  122MOL    H7531777   3.659   7.490   1.436  0.7051 -0.5292 -1.7226
  122MOL    H7631778   3.512   7.590   1.459 -0.2557  1.5430 -0.6174
  122MOL    H7731779   3.670   7.659   1.426 -0.5288  0.3543  0.3618
  122MOL    H7831780   3.387   7.430   1.244 -0.0980  1.3792  0.0190
  122MOL    H7931781   3.545   7.348   1.286  1.0990 -1.8280 -3.0131
  122MOL    C8031782   3.509   7.357   1.081 -1.1681  0.6918  0.6687
  122MOL    C8131783   3.406   7.403   0.975 -0.2463 -0.2621 -0.5614
  122MOL    C8231784   3.384   7.336   0.862  0.5688  0.0713  0.5634
  122MOL    C8331785   3.457   7.205   0.834  0.3107 -0.1292 -0.1525
  122MOL    C8431786   3.268   7.354   0.762 -0.5232 -0.7742  0.0134
  122MOL    H8531787   3.491   7.250   1.092  2.6566 -0.1958 -0.8602
  122MOL    H8631788   3.611   7.362   1.044 -1.4527  0.7764 -0.1284
  122MOL    H8731789   3.363   7.501   0.995  1.4999  0.0716  1.7412
  122MOL    H8831790   3.471   7.192   0.727 -0.7865  3.6704 -0.8307
  122MOL    H8931791   3.394   7.127   0.875 -1.1144  1.4376  0.6748
  122MOL    H9031792   3.558   7.206   0.875  0.0240  2.7038  0.6282
  122MOL    H9131793   3.217   7.262   0.733 -2.3373  1.0531 -2.8575
  122MOL    H9231794   3.318   7.389   0.672 -0.7075 -0.8444 -0.1170
  122MOL    C9331795   3.160   7.450   0.807  0.2142  0.9537  0.2885
  122MOL    C9431796   3.039   7.443   0.709 -0.1574  0.1288  0.2328
  122MOL    C9531797   2.965   7.546   0.663  0.1558  0.2808 -0.5042
  122MOL    C9631798   2.999   7.693   0.696  0.3284 -0.0518  0.4902
  122MOL    C9731799   2.845   7.532   0.576  0.4162  0.3010 -0.4065
  122MOL    H9831800   3.206   7.549   0.814 -0.5330  1.2847  0.5412
  122MOL    H9931801   3.121   7.428   0.906 -1.4779 -2.2347 -0.9970
  122MOL   H10031802   3.001   7.347   0.679  1.8005 -1.0458  1.3613
  122MOL   H10131803   2.922   7.753   0.744  0.4770  0.9966 -0.5762
  122MOL   H10231804   3.033   7.761   0.618 -0.8292  0.0509  0.0678
  122MOL   H10331805   3.070   7.703   0.779 -0.0153  1.2743  0.6326
  122MOL   H10431806   2.759   7.557   0.638  0.0872 -0.2163 -0.6484
  122MOL   H10531807   2.832   7.430   0.539 -1.5981  0.3653  0.1053
  122MOL   C10631808   2.842   7.617   0.448  0.1213 -0.0118 -0.2288
  122MOL   C10731809   2.712   7.603   0.372 -0.4395  0.0550  0.5513
  122MOL   C10831810   2.687   7.520   0.271  0.3954  0.0419 -0.7290
  122MOL   C10931811   2.795   7.437   0.204  0.4877  0.4687 -0.7798
  122MOL   C11031812   2.554   7.523   0.200 -0.3731  0.5632 -0.3673
  122MOL   H11131813   2.922   7.620   0.375 -2.2440  3.4576 -2.8479
  122MOL   H11231814   2.847   7.719   0.484  0.4764 -0.2965  0.5577
  122MOL   H11331815   2.632   7.658   0.420 -0.7617  1.8295 -1.9359
  122MOL   H11431816   2.888   7.434   0.260  0.4306 -0.9529 -0.7518
  122MOL   H11531817   2.818   7.481   0.107 -1.4492  1.7703 -0.6904
  122MOL   H11631818   2.760   7.334   0.198 -0.7144  0.6251  2.6469
  122MOL   H11731819   2.553   7.550   0.094  0.2311  0.4678 -0.3992
  122MOL   H11831820   2.512   7.617   0.235 -0.2799 -0.0881  1.5330
  122MOL   C11931821   2.474   7.396   0.225  0.2803 -0.0276 -0.0579
  122MOL   C12031822   2.325   7.416   0.207  0.2875  0.4432 -0.4172
  122MOL   C12131823   2.236   7.396   0.301  0.0670 -0.9922 -0.7363
  122MOL   C12231824   2.266   7.345   0.441  0.6097  0.6570  0.2388
  122MOL   C12331825   2.092   7.416   0.272  0.1612  0.3211  0.1578
  122MOL   H12431826   2.497   7.364   0.326  0.1947  0.7866  0.2180
  122MOL   H12531827   2.507   7.310   0.166  0.1320  0.5364 -0.9680
  122MOL   H12631828   2.297   7.452   0.109  0.5748  1.1733 -0.2334
  122MOL   H12731829   2.190   7.377   0.513 -1.1831 -0.7844 -0.9791
  122MOL   H12831830   2.357   7.384   0.487  0.3903 -0.0794  1.3192
  122MOL   H12931831   2.270   7.236   0.437  0.6719  0.7056 -1.4336
  122MOL   H13031832   2.091   7.446   0.167 -1.1300  1.2166  0.4078
  122MOL   H13131833   2.054   7.503   0.327  2.2192  1.3111  0.0825
  122MOL   C13231834   2.015   7.281   0.282  0.2236 -0.4695 -0.1394
  122MOL   C13331835   1.876   7.289   0.212  0.0665 -0.7585 -0.1275
  122MOL   C13431836   1.808   7.180   0.172  0.2607 -0.0466 -0.2059
  122MOL   C13531837   1.869   7.043   0.163 -0.1205  0.0617  0.6635
  122MOL   C13631838   1.664   7.205   0.126  0.2048 -0.2031 -0.3095
  122MOL   H13731839   1.992   7.252   0.385 -0.0870 -0.4480 -0.2003
  122MOL   H13831840   2.070   7.196   0.242 -2.5522 -1.4254 -2.0824
  122MOL   H13931841   1.829   7.386   0.207  1.6692  0.0069 -0.6765
  122MOL   H14031842   1.869   7.004   0.062 -0.5338  0.3668  0.5455
  122MOL   H14131843   1.802   6.976   0.218  0.0734  1.7357  3.0097
  122MOL   H14231844   1.968   7.025   0.207 -0.3590 -0.1110  1.1339
  122MOL   H14331845   1.647   7.160   0.028 -0.8702 -0.7195  0.1048
  122MOL   H14431846   1.652   7.310   0.100 -2.0329 -0.0963  1.0485
  122MOL   C14531847   1.558   7.171   0.231  0.6344 -0.4001 -0.1736
  122MOL   C14631848   1.432   7.252   0.217 -0.2486  0.2448 -0.0714
  122MOL   C14731849   1.371   7.337   0.306 -0.0690  0.0891  0.6286
  122MOL   C14831850   1.419   7.389   0.434 -0.6525  0.1310  0.3121
  122MOL   C14931851   1.242   7.413   0.269 -0.1083  0.6698 -0.2840
  122MOL   H15031852   1.604   7.193   0.327  1.0585  3.4738 -1.1809
  122MOL   H15131853   1.538   7.064   0.237  0.1921 -0.3506 -0.7447
  122MOL   H15231854   1.375   7.234   0.126 -2.1738 -1.8602  1.4867
  122MOL   H15331855   1.351   7.360   0.515 -0.3351  0.4986  0.7141
  122MOL   H15431856   1.434   7.496   0.445  0.9611 -0.3394  3.4479
  122MOL   H15531857   1.512   7.340   0.462 -1.4597 -0.0673  2.7844
  122MOL   H15631858   1.212   7.392   0.166 -3.8584  0.6411  0.7160
  122MOL   H15731859   1.262   7.519   0.284  1.9412  0.0950  1.1637
  122MOL   C15831860   1.117   7.366   0.358  0.0483  0.3088  0.3512
  122MOL   C15931861   0.982   7.433   0.316  0.2279 -0.7549 -0.2196
  122MOL   C16031862   0.909   7.510   0.400  0.2970  0.2303  0.0986
  122MOL   C16131863   0.950   7.561   0.538  0.4038  0.2126  0.0530
  122MOL   C16231864   0.766   7.538   0.345  0.2898 -0.1863  0.5472
  122MOL   H16331865   1.129   7.371   0.466 -0.5373 -1.4323  0.5255
  122MOL   H16431866   1.098   7.260   0.336  0.3503  0.2981  0.1263
  122MOL   H16531867   0.946   7.416   0.215  0.4428  0.9789 -0.5975
  122MOL   H16631868   0.878   7.630   0.584  0.7489 -0.1355  1.1411
  122MOL   H16731869   1.041   7.620   0.539  1.0482 -0.7527  2.6229
  122MOL   H16831870   0.956   7.476   0.606 -0.1053 -0.0146 -0.1755
  122MOL   H16931871   0.760   7.534   0.237 -0.8125  0.0931  0.5952
  122MOL   H17031872   0.743   7.639   0.378  1.7562  0.6489 -0.9322
  122MOL   C17131873   0.660   7.450   0.408 -0.6137 -0.2762 -0.0581
  122MOL   C17231874   0.517   7.497   0.377  0.5455 -0.0042  0.1777
  122MOL   C17331875   0.408   7.424   0.361 -0.6446  0.2125  0.0686
  122MOL   C17431876   0.399   7.276   0.365 -0.3377 -0.5360 -0.7181
  122MOL   C17531877   0.277   7.498   0.332  0.3683  0.3504  0.5144
  122MOL   H17631878   0.671   7.449   0.517 -1.0222 -1.5790 -0.0140
  122MOL   H17731879   0.674   7.347   0.373 -0.8669  0.7076 -3.1642
  122MOL   H17831880   0.521   7.605   0.383  0.9195  0.0678 -1.1452
  122MOL   H17931881   0.378   7.240   0.466 -0.5176  0.7009 -0.3113
  122MOL   H18031882   0.493   7.226   0.342 -0.4069 -1.2730  0.5413
  122MOL   H18131883   0.320   7.243   0.297 -2.1974 -0.9428  1.5655
  122MOL   H18231884   0.244   7.470   0.232  2.4824  1.1533 -0.4293
  122MOL   H18331885   0.301   7.604   0.325 -1.8664  0.8999  0.8507
  122MOL   C18431886   0.167   7.477   0.432 -0.1337  0.1961 -0.4106
  122MOL   C18531887   0.195   7.529   0.570 -0.9900  0.3306 -0.3446
  122MOL   C18631888   0.132   7.633   0.627 -0.1118  0.4899 -0.1936
  122MOL   C18731889   0.011   7.704   0.560  0.2385 -0.2435  0.2362
  122MOL   C18831890   0.166   7.666   0.770  0.5209  0.1795 -0.4462
  122MOL   H18931891   0.147   7.371   0.443  0.6347 -0.4490 -4.3665
  122MOL   H19031892   0.078   7.513   0.380 -0.4983 -1.2028 -0.7763
  122MOL   H19131893   0.272   7.476   0.625  0.7731  3.2092  0.0695
  122MOL   H19231894   0.020   7.717   0.452 -0.6138  1.8128  0.3976
  122MOL   H19331895   7.875   7.799   0.609  2.9694  1.2285 -1.4434
  122MOL   H19431896   7.804   7.648   0.584  0.1500 -0.4938 -0.6736
  122MOL   H19531897   0.174   7.772   0.794 -1.2350  0.5592 -1.4753
  122MOL   H19631898   0.260   7.617   0.796  0.9486 -1.3898 -4.5085
  122MOL   C19731899   0.058   7.608   0.869 -0.2227 -0.6351  0.2939
  122MOL   C19831900   0.081   7.637   1.022  0.3423 -0.2211 -0.1611
  122MOL   C19931901   0.009   7.712   1.107  0.2976  0.3769  0.3941
  122MOL   C20031902   7.765   7.779   1.070  0.6174  0.5150  0.0885
  122MOL   C20131903   0.055   7.735   1.255 -0.2733 -0.6029 -0.0155
  122MOL   H20231904   0.042   7.502   0.852  0.4296 -0.2236 -3.2305
  122MOL   H20331905   7.843   7.648   0.842  0.3114 -1.4693 -3.0782
  122MOL   H20431906   0.159   7.574   1.061 -1.1550 -1.9876  0.0226
  122MOL   H20531907   7.694   7.796   1.151 -0.7983  1.1747 -1.2787
  122MOL   H20631908   7.702   7.734   0.994  0.0778  0.2176  0.7115
  122MOL   H20731909   7.784   7.880   1.031 -3.0588  1.1796 -0.1117
  122MOL   H20831910   0.065   7.836   1.294 -0.2788 -0.7443  0.3586
  122MOL   H20931911   0.157   7.697   1.259  0.0057  0.1393  0.0198
  122MOL   C21031912   7.847   7.660   1.359  0.0973 -0.0694  0.2961
  122MOL   C21131913   0.020   7.662   1.495  0.5412 -0.1972  0.2050
  122MOL   C21231914   0.003   7.569   1.595  0.6984 -0.2683  0.1130
  122MOL   C21331915   7.804   7.446   1.576 -0.1934 -0.3065  0.5297
  122MOL   C21431916   0.070   7.592   1.729  0.6369  0.2558 -0.2132
  122MOL   H21531917   7.825   7.564   1.312  0.4524 -0.5408  1.0966
  122MOL   H21631918   7.744   7.696   1.357 -0.6579 -2.1745  0.2654
  122MOL   H21731919   0.078   7.752   1.510  0.7410 -0.7885  3.1879
  122MOL   H21831920   7.776   7.426   1.473 -0.2584  1.0378  0.2840
  122MOL   H21931921   7.716   7.432   1.638 -0.8159 -2.2689 -0.7464
  122MOL   H22031922   7.860   7.353   1.591  0.1834 -0.0336  0.8170
  122MOL   H22131923   7.879   7.592   1.809 -0.3184 -1.1462 -1.0728
  122MOL   H22231924   0.109   7.694   1.735  1.5382 -0.0899 -0.0331
  122MOL   C22331925   0.194   7.502   1.741 -0.3099  0.0808 -0.9251
  122MOL   C22431926   0.243   7.527   1.881 -0.2237 -0.1411  0.4685
  122MOL   C22531927   0.371   7.551   1.916 -0.9344 -0.8116  0.5886
  122MOL   C22631928   0.486   7.576   1.819 -0.1552 -0.3613  0.6361
  122MOL   C22731929   0.413   7.574   2.061  0.0277 -0.1231 -1.0474
  122MOL   H22831930   0.267   7.528   1.664  0.5179  0.2720 -0.0810
  122MOL   H22931931   0.177   7.395   1.729 -0.0266 -0.1270  0.4797
  122MOL   H23031932   0.164   7.508   1.952 -0.8683  0.5505 -0.0601
  122MOL   H23131933   0.586   7.578   1.861  0.7182  1.1876 -1.4110
  122MOL   H23231934   0.464   7.672   1.772  1.2216  0.4125  1.5551
  122MOL   H23331935   0.486   7.502   1.739 -1.0279 -1.4888  1.6745
  122MOL   H23431936   0.331   7.602   2.128 -1.2861 -2.5230 -1.6010
  122MOL   H23531937   0.485   7.656   2.068  0.7259 -0.7375 -1.0273
  122MOL   C23631938   0.477   7.445   2.114  0.4107 -0.0885 -0.0267
  122MOL   C23731939   0.532   7.448   2.254 -0.3220 -0.3079  0.4468
  122MOL   C23831940   0.655   7.412   2.296  0.3882 -0.0720 -0.0705
  122MOL   C23931941   0.752   7.332   2.211 -0.2001 -0.2320  0.1721
  122MOL   C24031942   0.711   7.449   2.435  0.2707 -0.9452 -0.0068
  122MOL   H24131943   0.540   7.406   2.034 -0.0922 -2.2213  0.5913
  122MOL   H24231944   0.398   7.371   2.111  0.7254 -0.3709 -1.7670
  122MOL   H24331945   0.472   7.511   2.318 -0.1851  1.4061 -1.0552
  122MOL   H24431946   0.800   7.399   2.139 -0.6222 -1.3783 -1.2061
  122MOL   H24531947   0.716   7.244   2.158 -0.8169  0.2179 -0.1680
  122MOL   H24631948   0.826   7.291   2.279 -0.8248 -0.4535  0.7205
  122MOL   H24731949   0.741   7.360   2.490  0.4397  0.6155  2.5038
  122MOL   H24831950   0.627   7.494   2.487 -0.5318 -2.1461 -0.2573
  122MOL   C24931951   0.822   7.549   2.411  0.2187 -0.4721 -0.0617
  122MOL   C25031952   0.868   7.606   2.548  0.1983  0.6915 -0.1583
  122MOL   C25131953   0.918   7.727   2.570 -0.0231  0.8343  0.2677
  122MOL   C25231954   0.935   7.834   2.466  0.1528  0.2894 -0.1847
  122MOL   C25331955   0.960   7.779   2.712  0.5623  0.1202 -0.1818
  122MOL   H25431956   0.789   7.634   2.351 -0.2578 -0.5142  0.1371
  122MOL   H25531957   0.909   7.508   2.359  0.9194  0.2957  0.4898
  122MOL   H25631958   0.856   7.537   2.630  4.2807 -0.0316 -0.0669
  122MOL   H25731959   1.043   7.843   2.452  0.1419 -1.1099 -1.2859
  122MOL   H25831960   0.883   0.034   2.514  0.0876  0.0749  0.1198
  122MOL   H25931961   0.880   7.821   2.373 -1.3705  2.2712  0.3959
  122MOL   H26031962   0.887   7.853   2.742 -0.7434 -0.3367 -2.1164
  122MOL   H26131963   1.057   7.825   2.694 -0.2127  0.6443 -3.2904
  122MOL   H26231964   0.973   7.701   2.787  1.4338 -0.1045 -0.5573
  123MOL     C131965   6.049   5.932   0.178 -0.3093  0.5050 -0.2872
  123MOL     C231966   6.161   5.922   0.069  0.2775 -0.6065  0.7704
  123MOL     C331967   6.155   5.877   7.820 -0.0791 -0.5791 -0.8663
  123MOL     C431968   6.032   5.827   7.750  0.3691  0.3556 -0.6948
  123MOL     C531969   6.291   5.862   7.755 -0.0086  0.1666  0.8005
  123MOL     H631970   6.064   5.850   0.249 -2.2029  2.0687  2.0078
  123MOL     H731971   6.037   6.029   0.227  0.3191  0.4514 -0.0196
  123MOL     H831972   6.253   5.953   0.115  0.1491  2.0546 -0.6843
  123MOL     H931973   6.016   5.883   7.658  2.4181  1.0317 -0.6705
  123MOL    H1031974   5.941   5.827   7.810  1.9225 -1.0186  1.7151
  123MOL    H1131975   6.050   5.721   7.730 -0.9052  0.2217 -1.1859
  123MOL    H1231976   6.318   5.758   7.737 -0.2480  0.3335 -0.6534
  123MOL    H1331977   6.379   5.888   7.813 -0.0876 -0.4999  1.2212
  123MOL    H1431978   5.952   5.915   0.133 -1.1982 -0.1836  1.8462
  123MOL    C1531979   6.301   5.939   7.618 -0.2588  0.6516  0.9681
  123MOL    C1631980   6.284   6.090   7.631  0.4193 -0.3052  0.1639
  123MOL    C1731981   6.366   6.181   7.685 -0.7051  0.2092 -0.5209
  123MOL    C1831982   6.491   6.136   7.761  0.3057 -0.2018 -0.2075
  123MOL    C1931983   6.331   6.322   7.700  0.4858  0.7421  0.0623
  123MOL    H2031984   6.224   5.902   7.551 -0.2293  1.8112  0.2775
  123MOL    H2131985   6.397   5.926   7.569 -0.2368  0.3758  1.0837
  123MOL    H2231986   6.190   6.121   7.588 -1.8564 -2.6890  3.1935
  123MOL    H2331987   6.571   6.208   7.746  0.1177 -0.0538 -0.5061
  123MOL    H2431988   6.532   6.049   7.710 -2.3646 -1.9680  0.5208
  123MOL    H2531989   6.475   6.119   7.868  2.0722  2.4501  0.5208
  123MOL    H2631990   6.267   6.354   7.618 -0.0491 -0.1533  0.1266
  123MOL    H2731991   6.419   6.387   7.692  1.6854 -1.0384 -1.5863
  123MOL    C2831992   6.275   6.349   7.840  0.0612 -0.0239 -0.0370
  123MOL    C2931993   6.204   6.486   7.853 -0.4556 -0.3582  0.7821
  123MOL    C3031994   6.243   6.591   0.046  0.1336 -0.1689  0.1890
  123MOL    C3131995   6.362   6.586   0.139  0.2678 -0.0534  0.2070
  123MOL    C3231996   6.160   6.712   0.054  0.1379 -0.1681 -0.3273
  123MOL    H3331997   6.343   6.334   0.042  0.1010  0.8173  0.0786
  123MOL    H3431998   6.188   6.288   7.863 -0.8864  1.3803  0.1042
  123MOL    H3531999   6.119   6.494   7.787 -0.1737  0.2520  0.4963
  123MOL    H3632000   6.427   6.498   0.136 -1.0878 -1.2021  2.8774
  123MOL    H3732001   6.328   6.592   0.242  1.6485 -1.2057  0.7471
  123MOL    H3832002   6.420   6.677   0.122  0.2478  0.1695  1.3478
  123MOL    H3932003   6.155   6.754   0.155  0.0140  1.9642 -1.1845
  123MOL    H4032004   6.056   6.697   0.026 -0.2745  1.0887  0.4834
  123MOL    C4132005   6.210   6.829   7.853 -0.0737 -0.4189 -0.1825
  123MOL    C4232006   6.140   6.959   7.873  0.6307  0.6357 -0.0082
  123MOL    C4332007   6.164   7.076   7.810 -0.0500  0.2441  0.0508
  123MOL    C4432008   6.241   7.088   7.676 -0.1153  0.1042 -0.3505
  123MOL    C4532009   6.106   7.214   7.845  0.5789  0.2885  0.2503
  123MOL    H4632010   6.203   6.803   7.747  0.7131  0.1391 -0.3781
  123MOL    H4732011   6.317   6.839   7.872 -0.3970  2.7205  0.2947
  123MOL    H4832012   6.073   6.961   0.075 -1.8285  0.0145 -1.8976
  123MOL    H4932013   6.268   6.992   7.631 -0.5847  0.0080 -0.4377
  123MOL    H5032014   6.336   7.141   7.682  0.2893 -0.7624  1.3186
  123MOL    H5132015   6.190   7.149   7.602  1.5506  1.5026 -0.3666
  123MOL    H5232016   6.031   7.196   0.039 -0.2592 -4.2458 -1.4854
  123MOL    H5332017   6.059   7.248   7.753  1.3403 -0.0922 -0.2936
  123MOL    C5432018   6.208   7.318   0.019 -0.8317 -0.0094  0.2536
  123MOL    C5532019   6.136   7.427   0.089 -0.4434 -0.0483 -0.6721
  123MOL    C5632020   6.128   7.553   0.041  0.1030 -0.0012 -0.3618
  123MOL    C5732021   6.171   7.597   7.785  0.4261 -0.4883  0.7235
  123MOL    C5832022   6.058   7.661   0.122 -0.3332 -0.7626  0.0250
  123MOL    H5932023   6.274   7.349   7.821  0.5208  0.3973  1.4973
  123MOL    H6032024   6.277   7.280   0.094  0.4615 -1.7901 -1.7876
  123MOL    H6132025   6.095   7.416   0.189 -0.4214 -2.2759 -0.8707
  123MOL    H6232026   6.171   7.706   7.783 -1.0885 -0.4793  0.5239
  123MOL    H6332027   6.096   7.571   7.711  0.1741  0.9105  0.4714
  123MOL    H6432028   6.272   7.564   7.762  0.5468 -1.1576  2.1798
  123MOL    H6532029   6.126   7.745   0.127  0.7315 -1.4195 -2.6312
  123MOL    H6632030   6.059   7.634   0.227 -0.0598 -0.6328  0.0541
  123MOL    C6732031   5.921   7.694   0.068 -0.0368  0.2360  0.2031
  123MOL    C6832032   5.830   7.775   0.161 -0.8733  0.4535 -0.4731
  123MOL    C6932033   5.705   7.804   0.132  0.1721  0.6823  0.4849
  123MOL    C7032034   5.638   7.788   7.870 -0.2615  0.5874 -0.0266
  123MOL    C7132035   5.608   7.859   0.232 -0.5627  0.1736 -0.2171
  123MOL    H7232036   5.862   7.604   0.049 -1.2069  0.4315  2.7685
  123MOL    H7332037   5.935   7.750   7.858  0.8637  1.1961  0.9182
  123MOL    H7432038   5.857   7.794   0.264  1.1352 -1.0299 -0.6971
  123MOL    H7532039   5.698   7.748   7.788 -1.0863 -0.3612 -0.1717
  123MOL    H7632040   5.610   0.004   7.834 -0.6655  0.5202  0.1037
  123MOL    H7732041   5.545   7.733   7.880  0.9577 -1.4104  0.7556
  123MOL    H7832042   5.631   7.835   0.335  0.3440 -0.6122 -0.6000
  123MOL    H7932043   5.513   7.807   0.218 -2.0674  2.4126  1.3946
  123MOL    C8032044   5.592   0.123   0.217 -0.0313  0.1558 -0.2557
  123MOL    C8132045   5.508   0.178   0.323  0.1193  0.0275  0.8597
  123MOL    C8232046   5.470   0.307   0.332 -0.1331  0.0287 -0.1601
  123MOL    C8332047   5.520   0.410   0.232 -0.2665  0.5100  0.1084
  123MOL    C8432048   5.368   0.358   0.438  0.0030 -0.6448 -0.1065
  123MOL    H8532049   5.551   0.145   0.119  0.2329 -0.0337 -0.4085
  123MOL    H8632050   5.687   0.176   0.219  1.4534 -2.3725 -1.1722
  123MOL    H8732051   5.459   0.107   0.388 -0.4153  1.9432  2.6282
  123MOL    H8832052   5.614   0.382   0.185  0.4438  2.0686  0.5784
  123MOL    H8932053   5.552   0.504   0.277  0.3366 -0.2412  1.2661
  123MOL    H9032054   5.440   0.426   0.159 -0.9919  2.4714  1.2675
  123MOL    H9132055   5.418   0.415   0.516  0.3559  0.2864 -1.0025
  123MOL    H9232056   5.346   0.269   0.497  1.8397  0.3059  2.0907
  123MOL    C9332057   5.232   0.405   0.384  0.2863  0.8356 -0.6843
  123MOL    C9432058   5.160   0.502   0.473 -0.6037  0.1175 -0.4263
  123MOL    C9532059   5.030   0.501   0.503 -0.1712 -0.7046 -0.2067
  123MOL    C9632060   4.951   0.374   0.490  0.1378  0.5958  0.3162
  123MOL    C9732061   4.960   0.614   0.565 -0.0595  0.3448 -0.1153
  123MOL    H9832062   5.176   0.317   0.353  2.7665 -0.7409 -0.8920
  123MOL    H9932063   5.247   0.453   0.287 -1.2567 -0.0128 -1.3683
  123MOL   H10032064   5.217   0.588   0.506 -1.2675 -0.1579  1.4957
  123MOL   H10132065   5.006   0.282   0.507  0.2095  0.3162 -1.3199
  123MOL   H10232066   4.899   0.361   0.395  2.0073  0.3756 -0.6887
  123MOL   H10332067   4.864   0.381   0.555 -0.7327 -0.0536 -0.7653
  123MOL   H10432068   5.028   0.697   0.580  0.3808  0.2099 -1.3228
  123MOL   H10532069   4.944   0.586   0.670  0.2192 -1.3294 -0.5055
  123MOL   C10632070   4.838   0.665   0.484 -0.4990  0.3664 -0.5612
  123MOL   C10732071   4.790   0.805   0.536 -0.3382  0.0485 -0.5592
  123MOL   C10832072   4.663   0.850   0.533  0.1152  1.0403 -0.8996
  123MOL   C10932073   4.547   0.761   0.490  0.5154 -0.0907  1.0929
  123MOL   C11032074   4.626   0.983   0.590 -0.1021 -0.9057 -0.4389
  123MOL   H11132075   4.761   0.589   0.491 -0.8168  0.9335  3.6963
  123MOL   H11232076   4.872   0.672   0.381 -1.9373 -1.9885 -1.2322
  123MOL   H11332077   4.864   0.873   0.576  1.2461 -0.1835 -2.9714
  123MOL   H11432078   4.530   0.780   0.384  2.6741  1.1711  0.9338
  123MOL   H11532079   4.452   0.796   0.530  0.8692 -1.4991  3.2450
  123MOL   H11632080   4.563   0.658   0.520 -2.4687 -0.7925  0.4579
  123MOL   H11732081   4.716   1.045   0.591  0.4621 -1.7076 -0.7885
  123MOL   H11832082   4.597   0.967   0.693  1.0351 -0.2638 -0.0145
  123MOL   C11932083   4.516   1.069   0.523 -0.4801 -0.0681  0.5543
  123MOL   C12032084   4.521   1.206   0.589  0.4940  0.1919 -0.6541
  123MOL   C12132085   4.553   1.326   0.540 -0.2051  0.3890  0.3418
  123MOL   C12232086   4.590   1.350   0.403 -0.9819 -0.4482  0.4656
  123MOL   C12332087   4.555   1.441   0.633 -0.2813 -0.0056 -0.6753
  123MOL   H12432088   4.430   1.003   0.537  1.5637 -2.6622  1.4134
  123MOL   H12532089   4.517   1.066   0.414  0.6725 -1.5603  0.5893
  123MOL   H12632090   4.512   1.192   0.696 -0.4856  4.1373 -0.1678
  123MOL   H12732091   4.611   1.259   0.347  0.7835  0.0647  0.2391
  123MOL   H12832092   4.686   1.402   0.393  0.0262 -1.9901  1.7887
  123MOL   H12932093   4.510   1.403   0.351  0.4713  0.6449 -0.7046
  123MOL   H13032094   4.618   1.521   0.594 -1.9550  1.8835  0.4075
  123MOL   H13132095   4.603   1.415   0.727  0.1005  2.2368 -0.2309
  123MOL   C13232096   4.417   1.502   0.650  0.5658  0.2667 -0.0331
  123MOL   C13332097   4.416   1.619   0.742  0.2107  0.3104  0.8393
  123MOL   C13432098   4.308   1.704   0.770 -0.4011  0.6463  0.0916
  123MOL   C13532099   4.172   1.690   0.699  0.9466 -0.2487 -0.2990
  123MOL   C13632100   4.314   1.810   0.881 -0.4920 -0.0263 -0.0952
  123MOL   H13732101   4.340   1.433   0.684  0.5758  0.4457  0.3507
  123MOL   H13832102   4.375   1.542   0.558  2.4685  1.0624 -0.5818
  123MOL   H13932103   4.504   1.624   0.803  1.2986 -0.3386 -0.6406
  123MOL   H14032104   4.173   1.607   0.628 -2.1023 -0.6455  0.0486
  123MOL   H14132105   4.148   1.776   0.637  0.5194 -0.3341 -0.2553
  123MOL   H14232106   4.097   1.671   0.775  0.1024 -0.8795 -1.2719
  123MOL   H14332107   4.290   1.911   0.850  2.2501  1.1417  1.3587
  123MOL   H14432108   4.418   1.822   0.912 -0.4449  0.2594 -0.3604
  123MOL   C14532109   4.236   1.762   1.007  0.0059 -0.5308 -0.2918
  123MOL   C14632110   4.168   1.872   1.084  0.1140 -0.7192 -0.2206
  123MOL   C14732111   4.194   1.911   1.212 -0.1516 -0.7037 -0.3679
  123MOL   C14832112   4.303   1.861   1.299  0.3973  0.5065 -0.0161
  123MOL   C14932113   4.132   2.042   1.265  0.2196  0.2558  0.3509
  123MOL   H15032114   4.312   1.726   1.076  1.1209 -0.1895 -1.3220
  123MOL   H15132115   4.168   1.679   0.993 -1.8123  1.0323 -0.9985
  123MOL   H15232116   4.081   1.910   1.033  1.0823  0.6075 -0.9302
  123MOL   H15332117   4.347   1.765   1.270  1.9043  2.1657 -3.4475
  123MOL   H15432118   4.277   1.859   1.405  0.7027  1.5865  0.0809
  123MOL   H15532119   4.386   1.930   1.289  0.4166  0.6297  0.8985
  123MOL   H15632120   4.078   2.018   1.356  0.6544  0.8035  0.7593
  123MOL   H15732121   4.056   2.070   1.191  0.7558  0.4238 -0.1368
  123MOL   C15832122   4.231   2.150   1.289 -0.2655 -0.4142 -0.2267
  123MOL   C15932123   4.159   2.260   1.366 -0.1246  0.1597  0.3017
  123MOL   C16032124   4.168   2.283   1.500 -0.0286 -0.5579 -0.2470
  123MOL   C16132125   4.239   2.193   1.606 -0.0293 -0.4137  0.0613
  123MOL   C16232126   4.093   2.403   1.554  0.1416 -0.3481  0.1862
  123MOL   H16332127   4.284   2.189   1.203 -1.7234 -0.5658 -1.2095
  123MOL   H16432128   4.309   2.118   1.358 -0.6724  0.7994  0.8123
  123MOL   H16532129   4.102   2.325   1.301 -0.8868 -0.4161  0.3835
  123MOL   H16632130   4.345   2.216   1.616  0.0203 -1.3678  2.0681
  123MOL   H16732131   4.229   2.091   1.571  2.5437 -0.4376 -0.6855
  123MOL   H16832132   4.188   2.211   1.701 -1.9499  0.0961 -1.0267
  123MOL   H16932133   4.028   2.374   1.636 -0.0696  0.6878  0.3916
  123MOL   H17032134   4.022   2.441   1.480 -0.8007 -1.9887  0.2185
  123MOL   C17132135   4.186   2.508   1.614  0.1620 -0.4337 -0.7938
  123MOL   C17232136   4.103   2.630   1.652 -0.1971 -0.1871 -0.1241
  123MOL   C17332137   4.110   2.704   1.764  0.1539 -0.0303  0.7497
  123MOL   C17432138   4.210   2.675   1.883 -0.3208 -0.8683  0.0267
  123MOL   C17532139   4.018   2.820   1.791  0.1943 -0.0494  0.7360
  123MOL   H17632140   4.253   2.543   1.535  0.9121 -3.2353 -1.4684
  123MOL   H17732141   4.239   2.464   1.699  0.2341 -0.4195 -0.8311
  123MOL   H17832142   4.024   2.652   1.582 -0.1457  1.5306  0.3384
  123MOL   H17932143   4.304   2.626   1.858 -0.0767  0.6131 -2.1460
  123MOL   H18032144   4.160   2.616   1.959 -3.2548  0.3178 -0.8769
  123MOL   H18132145   4.238   2.774   1.919  0.8513 -1.0113 -0.4567
  123MOL   H18232146   3.987   2.857   1.693 -1.7340 -3.5379 -0.0517
  123MOL   H18332147   4.080   2.896   1.838 -1.6032  0.7360  1.8630
  123MOL   C18432148   3.897   2.791   1.879  0.7348 -0.4833 -0.2984
  123MOL   C18532149   3.807   2.683   1.821 -0.7113 -0.7067  0.4451
  123MOL   C18632150   3.673   2.685   1.829 -0.3245  0.4962  0.1447
  123MOL   C18732151   3.586   2.795   1.895 -0.6141  0.2153 -0.6188
  123MOL   C18832152   3.584   2.577   1.767  1.2776 -0.1626  0.0514
  123MOL   H18932153   3.846   2.884   1.904  2.7036  0.9163 -1.2854
  123MOL   H19032154   3.942   2.770   1.976  1.4033  0.4833 -0.3876
  123MOL   H19132155   3.852   2.596   1.776  0.2595 -0.0738  0.1723
  123MOL   H19232156   3.542   2.744   1.981 -0.3158  0.8913 -0.0649
  123MOL   H19332157   3.512   2.835   1.825  1.6059  3.5715 -1.1561
  123MOL   H19432158   3.643   2.881   1.929  0.8132 -0.6688 -0.7470
  123MOL   H19532159   3.535   2.516   1.843 -2.2926  2.5986  0.1294
  123MOL   H19632160   3.642   2.518   1.696  0.8275  0.7835 -1.1216
  123MOL   C19732161   3.481   2.631   1.674  0.1386  0.3639 -0.3051
  123MOL   C19832162   3.422   2.522   1.574 -0.3601 -0.0390 -0.2921
  123MOL   C19932163   3.408   2.535   1.444  0.1250 -0.8734 -0.3884
  123MOL   C20032164   3.445   2.656   1.362  0.1789 -0.2272 -0.0057
  123MOL   C20132165   3.337   2.418   1.374 -0.5284 -0.2680 -0.3352
  123MOL   H20232166   3.521   2.718   1.623 -0.5357  0.0101 -1.4516
  123MOL   H20332167   3.399   2.666   1.738 -0.2218  0.9384 -1.0755
  123MOL   H20432168   3.400   2.427   1.622  0.5870 -0.0102  0.2092
  123MOL   H20532169   3.368   2.666   1.285  2.2937  4.2179 -1.6863
  123MOL   H20632170   3.539   2.645   1.309  0.1265  2.6301 -0.7743
  123MOL   H20732171   3.450   2.753   1.411 -0.2458 -0.6813  0.9430
  123MOL   H20832172   3.255   2.473   1.328  1.0646  1.0892 -1.5891
  123MOL   H20932173   3.311   2.332   1.436  0.8602 -0.0609  0.5439
  123MOL   C21032174   3.407   2.360   1.255  0.4991  0.3482 -0.1338
  123MOL   C21132175   3.523   2.266   1.294  0.1757 -0.0035  0.0161
  123MOL   C21232176   3.653   2.291   1.292 -0.3680  0.0469 -0.3577
  123MOL   C21332177   3.728   2.415   1.239 -0.0427  0.5999 -0.0251
  123MOL   C21432178   3.746   2.193   1.366  0.1850  0.4991 -0.5234
  123MOL   H21532179   3.448   2.436   1.188 -0.5345 -0.8923 -2.2137
  123MOL   H21632180   3.338   2.303   1.193 -0.4552  0.2013  1.0555
  123MOL   H21732181   3.492   2.170   1.335  0.5343 -1.1367 -2.2699
  123MOL   H21832182   3.780   2.465   1.321  0.9539  0.0168 -0.2861
  123MOL   H21932183   3.671   2.494   1.190  0.0680 -0.3613 -1.7642
  123MOL   H22032184   3.805   2.384   1.168 -0.9148  2.4271 -1.8158
  123MOL   H22132185   3.849   2.200   1.331  1.6849 -0.4063  3.4837
  123MOL   H22232186   3.710   2.090   1.365 -0.2183  0.6089  1.3116
  123MOL   C22332187   3.759   2.235   1.517 -0.2240 -0.2952 -0.1417
  123MOL   C22432188   3.830   2.131   1.600 -0.0246  0.0029  0.3444
  123MOL   C22532189   3.800   2.093   1.726 -0.6265 -0.7497 -0.3734
  123MOL   C22632190   3.669   2.135   1.793 -0.4972 -0.7107 -0.1651
  123MOL   C22732191   3.880   1.984   1.806 -0.8889  0.0149 -0.4194
  123MOL   H22832192   3.655   2.252   1.544  0.2071  1.4682  0.4767
  123MOL   H22932193   3.816   2.327   1.524 -0.6427 -0.1791  1.9700
  123MOL   H23032194   3.919   2.088   1.556 -1.8421 -2.1547 -1.3772
  123MOL   H23132195   3.585   2.080   1.749 -1.5618 -0.9248  2.1031
  123MOL   H23232196   3.663   2.242   1.771 -1.6977 -0.5961  0.6613
  123MOL   H23332197   3.669   2.123   1.901  0.3026 -0.9945 -0.2002
  123MOL   H23432198   3.826   1.902   1.854 -0.1860 -0.0514  0.2629
  123MOL   H23532199   3.929   2.020   1.897 -2.9696 -1.7921  1.4780
  123MOL   C23632200   3.995   1.918   1.723 -0.1157  0.5990 -0.1292
  123MOL   C23732201   4.080   1.836   1.815 -0.0349  0.8659 -0.7122
  123MOL   C23832202   4.075   1.700   1.818 -0.7985 -0.6075  0.1089
  123MOL   C23932203   3.992   1.608   1.732 -0.4061 -0.6558 -0.7648
  123MOL   C24032204   4.147   1.626   1.927 -0.0272 -0.2226  0.4733
  123MOL   H24132205   4.066   1.993   1.686  1.3799 -0.7485 -0.0790
  123MOL   H24232206   3.960   1.863   1.636 -1.2043  0.4477  0.4086
  123MOL   H24332207   4.132   1.895   1.890 -0.2586 -0.0785  0.2080
  123MOL   H24432208   3.896   1.584   1.779 -0.0653 -1.1525 -0.3164
  123MOL   H24532209   4.046   1.514   1.723  0.8571 -0.2455  2.0502
  123MOL   H24632210   3.968   1.655   1.637  1.9024  4.0470  0.8158
  123MOL   H24732211   4.203   1.699   1.986 -0.4079  2.7422 -2.6799
  123MOL   H24832212   4.223   1.564   1.880 -2.0236  0.1560 -3.3752
  123MOL   C24932213   4.059   1.537   2.019 -0.6058 -0.9902 -0.0761
  123MOL   C25032214   4.130   1.508   2.154 -0.0744  0.5284 -0.1300
  123MOL   C25132215   4.111   1.407   2.243 -0.3297  0.3477  0.7045
  123MOL   C25232216   3.999   1.301   2.232 -0.2635 -0.2835  0.8724
  123MOL   C25332217   4.196   1.397   2.373  0.1343 -1.3042 -0.5682
  123MOL   H25432218   4.006   1.451   1.977 -2.6986  0.5751 -0.7086
  123MOL   H25532219   3.968   1.584   2.057  1.0543  2.9189 -0.7718
  123MOL   H25632220   4.208   1.575   2.186  0.4711 -0.3449  0.3964
  123MOL   H25732221   4.043   1.201   2.233  0.5732  0.0200 -1.9524
  123MOL   H25832222   3.946   1.310   2.137  1.9783 -0.4809 -0.4399
  123MOL   H25932223   3.929   1.305   2.316 -0.3851 -0.1533  0.7643
  123MOL   H26032224   4.216   1.292   2.394 -2.1114 -1.6171  0.1375
  123MOL   H26132225   4.139   1.443   2.454  0.1818 -0.2680 -1.1078
  123MOL   H26232226   4.288   1.456   2.369  0.3011 -1.1696  3.4982
  124MOL     C132227   7.140   3.568   6.490  0.0402  0.4503  0.2198
  124MOL     C232228   7.207   3.710   6.483 -0.1568  0.0685 -0.6301
  124MOL     C332229   7.335   3.734   6.524  0.2673 -0.1134  0.6481
  124MOL     C432230   7.428   3.625   6.574  0.3093  0.0234 -0.4230
  124MOL     C532231   7.395   3.870   6.521  0.1186 -0.1964 -0.3778
  124MOL     H632232   7.065   3.565   6.568  0.1033  0.6219  0.2886
  124MOL     H732233   7.100   3.542   6.392 -1.0612 -0.4304  0.8943
  124MOL     H832234   7.152   3.790   6.436 -1.2404 -0.9735 -1.1516
  124MOL     H932235   7.407   3.614   6.680  0.9753  0.9628 -0.1826
  124MOL    H1032236   7.531   3.661   6.563  0.4220 -0.1302  0.0935
  124MOL    H1132237   7.419   3.533   6.516  0.0640 -2.0092  2.7293
  124MOL    H1232238   7.327   3.945   6.480 -0.9993 -1.2219 -0.4108
  124MOL    H1332239   7.483   3.861   6.457  0.5153  1.7324 -0.1511
  124MOL    H1432240   7.215   3.492   6.510  2.1055  2.4730  0.5045
  124MOL    C1532241   7.438   3.912   6.660  0.0748  0.5189 -0.1351
  124MOL    C1632242   7.509   4.044   6.667 -0.5901  0.7496  0.1181
  124MOL    C1732243   7.518   4.131   6.775  0.0561  0.2426 -0.0530
  124MOL    C1832244   7.468   4.103   6.914 -0.5185  0.7850 -0.2257
  124MOL    C1932245   7.611   4.252   6.764 -0.6024 -0.3097 -1.1456
  124MOL    H2032246   7.511   3.849   6.710 -1.8588  0.5969  2.8700
  124MOL    H2132247   7.353   3.894   6.725  1.1771  0.8866  1.4347
  124MOL    H2232248   7.559   4.063   6.572  0.2866 -1.7053  0.0438
  124MOL    H2332249   7.392   4.025   6.907  1.2164 -0.8880 -0.7892
  124MOL    H2432250   7.438   4.191   6.971  4.7820  3.5905 -1.4486
  124MOL    H2532251   7.558   4.069   6.965 -0.5269  2.1474  0.7055
  124MOL    H2632252   7.547   4.333   6.799  1.4468  0.8463  0.0372
  124MOL    H2732253   7.645   4.274   6.663  1.1531 -1.7499 -0.8926
  124MOL    C2832254   7.741   4.245   6.854 -0.4697 -0.5790  0.2215
  124MOL    C2932255   7.842   4.353   6.822 -0.2007  0.5327 -0.0855
  124MOL    C3032256   0.093   4.340   6.837 -0.1852 -0.1816  0.2258
  124MOL    C3132257   0.152   4.225   6.914 -0.4342 -0.3460 -0.8035
  124MOL    C3232258   0.189   4.460   6.804  0.2894  0.7379  0.3604
  124MOL    H3332259   7.790   4.148   6.843  2.4721  0.7975  0.7198
  124MOL    H3432260   7.706   4.252   6.957 -0.7958 -0.1069  0.0813
  124MOL    H3532261   7.806   4.440   6.770  1.0456  0.5824 -0.8975
  124MOL    H3632262   0.223   4.169   6.853  0.4590  0.2516 -0.3095
  124MOL    H3732263   0.080   4.153   6.954  0.7010 -0.2273  1.5251
  124MOL    H3832264   0.198   4.269   7.002 -3.1280 -0.8846  0.9288
  124MOL    H3932265   0.202   4.520   6.894 -0.7107  0.8969  0.4050
  124MOL    H4032266   0.130   4.528   6.742 -1.7036  0.4306  1.8619
  124MOL    C4132267   0.315   4.418   6.724 -0.1985  0.4452 -0.2248
  124MOL    C4232268   0.387   4.540   6.685  0.3451  0.4414 -0.2870
  124MOL    C4332269   0.449   4.565   6.565  0.1979  0.4639 -0.7870
  124MOL    C4432270   0.430   4.470   6.444 -0.1294  1.3007  0.1207
  124MOL    C4532271   0.519   4.693   6.544  0.2158 -0.6808  0.3247
  124MOL    H4632272   0.274   4.350   6.650  0.5615  0.2150 -0.4380
  124MOL    H4732273   0.383   4.366   6.792 -2.2925 -0.6001  1.1271
  124MOL    H4832274   0.400   4.616   6.760 -0.4988 -1.0279  1.3956
  124MOL    H4932275   0.422   4.365   6.475 -1.6561  2.1865  2.9939
  124MOL    H5032276   0.519   4.482   6.383 -0.9023  2.2656 -0.8204
  124MOL    H5132277   0.334   4.492   6.397 -0.5070 -0.4286  0.0601
  124MOL    H5232278   0.583   4.694   6.456 -0.9939  0.3230 -0.5689
  124MOL    H5332279   0.589   4.713   6.625  0.3257  1.0437 -0.1661
  124MOL    C5432280   0.429   4.814   6.525  0.4338  0.3408  0.2325
  124MOL    C5532281   0.382   4.882   6.651 -0.2477  0.6664 -0.1590
  124MOL    C5632282   0.264   4.886   6.710  0.2754 -0.3274  0.2410
  124MOL    C5732283   0.145   4.820   6.653  0.4902  0.3896  0.3972
  124MOL    C5832284   0.235   4.952   6.843 -0.2695 -0.4271  0.7868
  124MOL    H5932285   0.343   4.779   6.468  0.4728  0.8799 -0.1563
  124MOL    H6032286   0.470   4.893   6.462 -2.3740 -0.2882 -2.4653
  124MOL    H6132287   0.458   4.938   6.704 -0.4152  0.3364  0.4338
  124MOL    H6232288   0.053   4.838   6.708  0.5510 -1.8900  1.2873
  124MOL    H6332289   0.154   4.712   6.640  2.2420  0.5385  0.3366
  124MOL    H6432290   0.136   4.847   6.547 -0.7654 -1.0005  0.1308
  124MOL    H6532291   0.155   5.025   6.840  0.0647 -0.1200 -1.9221
  124MOL    H6632292   0.323   5.010   6.873  1.3453 -2.0460 -0.7025
  124MOL    C6732293   0.223   4.845   6.953  0.8392  0.1755  0.0451
  124MOL    C6832294   0.202   4.914   7.092  0.2500  0.1101  0.0861
  124MOL    C6932295   0.115   4.888   7.191  0.9150  0.2941 -0.1763
  124MOL    C7032296   0.018   4.778   7.171 -0.1711  0.4397 -0.2564
  124MOL    C7132297   0.118   4.956   7.323  0.2456  0.4943  1.0070
  124MOL    H7232298   0.317   4.793   6.969  0.1704 -0.8298  0.7859
  124MOL    H7332299   0.159   4.761   6.924  1.5426 -0.5103  0.4611
  124MOL    H7432300   0.280   4.984   7.114  1.7065 -1.4404  0.0009
  124MOL    H7532301   0.036   4.717   7.082 -3.7831 -0.7213 -0.2752
  124MOL    H7632302   7.802   4.824   7.175 -0.4643 -0.1440 -0.7360
  124MOL    H7732303   0.024   4.698   7.245 -1.5029  0.0430 -0.5717
  124MOL    H7832304   0.203   5.023   7.316 -0.2259  0.9506 -0.4238
  124MOL    H7932305   0.147   4.885   7.401  0.9215  0.8972  1.1308
  124MOL    C8032306   7.865   5.023   7.355 -0.4919 -0.0511  0.1358
  124MOL    C8132307   0.003   5.133   7.462  0.4139  0.3812 -0.0074
  124MOL    C8232308   7.819   5.252   7.464 -0.1775  0.0729 -0.7757
  124MOL    C8332309   7.714   5.284   7.362 -0.6903 -0.5620 -0.1409
  124MOL    C8432310   7.864   5.370   7.554  0.0881 -0.1291 -0.3896
  124MOL    H8532311   7.790   4.951   7.388 -0.7583  0.3389  0.3868
  124MOL    H8632312   7.833   5.076   7.265 -0.5785  0.3974  0.4242
  124MOL    H8732313   0.087   5.118   7.529  0.2174 -0.6238  0.0076
  124MOL    H8832314   7.653   5.201   7.327  0.5315 -1.6848  0.3553
  124MOL    H8932315   7.767   5.334   7.281 -1.2070 -0.7363 -0.5850
  124MOL    H9032316   7.638   5.353   7.399  0.1791 -0.3181  1.2507
  124MOL    H9132317   7.866   5.456   7.489 -0.6938 -1.4890 -2.2546
  124MOL    H9232318   0.083   5.352   7.589  0.6749  2.7202 -0.5729
  124MOL    C9332319   7.773   5.387   7.681  1.0679  0.9275  0.5087
  124MOL    C9432320   7.808   5.511   7.763  0.0474  0.4471 -0.7687
  124MOL    C9532321   7.763   5.636   7.747 -0.3763  0.0736  0.6283
  124MOL    C9632322   7.669   5.671   7.632  0.4052 -0.3917 -0.2177
  124MOL    C9732323   7.792   5.755   7.839 -1.0247  0.4132  0.2460
  124MOL    H9832324   7.774   5.295   7.740  0.1304  1.3136  1.1404
  124MOL    H9932325   7.668   5.391   7.650  1.7932 -0.0564 -2.1961
  124MOL   H10032326   7.875   5.492   7.845 -2.6369  0.5227  1.5054
  124MOL   H10132327   7.569   5.680   7.675 -0.6598 -3.3251 -1.9611
  124MOL   H10232328   7.655   5.596   7.555 -0.9720 -0.7665  0.3809
  124MOL   H10332329   7.702   5.763   7.584 -0.4329  0.7076  1.2504
  124MOL   H10432330   7.833   5.837   7.780  0.3479 -2.7877 -3.4643
  124MOL   H10532331   7.876   5.731   0.021  0.0340  2.3210 -0.3742
  124MOL   C10632332   7.673   5.808   0.041  0.8038  0.1966 -0.4326
  124MOL   C10732333   7.581   5.703   0.108 -0.6002 -0.1915 -0.1752
  124MOL   C10832334   7.567   5.685   0.246 -0.0954  0.2992 -0.3585
  124MOL   C10932335   7.635   5.767   0.351  0.1980 -0.1577  0.7793
  124MOL   C11032336   7.476   5.571   0.294  0.4348 -0.2798 -0.5119
  124MOL   H11132337   7.600   5.852   7.856 -0.6565 -1.1148  0.2520
  124MOL   H11232338   7.702   5.883   0.115 -0.6551  2.2906 -1.9324
  124MOL   H11332339   7.538   5.632   0.039 -2.8945  0.5040  0.5062
  124MOL   H11432340   7.724   5.809   0.306 -1.2623  0.6187 -1.4588
  124MOL   H11532341   7.662   5.713   0.442  1.3829 -2.1865 -0.7395
  124MOL   H11632342   7.580   5.857   0.376  1.0498  0.1896  1.4129
  124MOL   H11732343   7.393   5.556   0.225  0.3336  1.3622 -0.7788
  124MOL   H11832344   7.417   5.611   0.376  1.1223  1.5714 -0.9024
  124MOL   C11932345   7.550   5.452   0.346  0.0174  0.0650  0.7492
  124MOL   C12032346   7.620   5.374   0.234  0.2266 -0.5483 -0.2813
  124MOL   C12132347   7.671   5.252   0.254 -0.1133 -0.2900  0.0104
  124MOL   C12232348   7.675   5.191   0.390 -0.0075  0.3905 -0.7859
  124MOL   C12332349   7.721   5.165   0.143  0.3522  0.2898 -0.4740
  124MOL   H12432350   7.473   5.390   0.392 -1.7392  1.6292 -0.0139
  124MOL   H12532351   7.625   5.479   0.420  1.2794 -1.3822  0.0085
  124MOL   H12632352   7.610   5.412   0.134 -2.3958 -2.7234 -0.9085
  124MOL   H12732353   7.620   5.239   0.471  1.1777  1.0532 -0.3471
  124MOL   H12832354   7.777   5.187   0.429 -0.4358  3.7262  0.8685
  124MOL   H12932355   7.641   5.088   0.388 -0.0213  0.4076 -1.4906
  124MOL   H13032356   7.829   5.153   0.155  0.1457 -0.3268  0.7939
  124MOL   H13132357   7.725   5.221   0.049  0.9604  1.8338  0.4576
  124MOL   C13232358   7.641   5.032   0.126 -0.0425 -0.1655 -0.4265
  124MOL   C13332359   7.717   4.942   0.033 -0.1264  0.2187  0.8743
  124MOL   C13432360   7.692   4.937   7.782 -0.5226 -0.0249  0.4169
  124MOL   C13532361   7.597   5.030   7.712  0.4188 -0.3309 -0.4573
  124MOL   C13632362   7.765   4.829   7.693 -0.3518  0.1157  0.7364
  124MOL   H13732363   7.540   5.051   0.092  0.0125 -0.5002 -0.7719
  124MOL   H13832364   7.638   4.966   0.212  0.1939 -1.2099 -1.2175
  124MOL   H13932365   7.777   4.865   0.078 -0.0098 -1.3047 -1.7594
  124MOL   H14032366   7.495   4.992   7.718 -0.0231  0.4676 -2.6225
  124MOL   H14132367   7.606   5.041   7.604  1.3456  0.8557 -0.2657
  124MOL   H14232368   7.596   5.127   7.761 -3.6936 -1.6029  2.2208
  124MOL   H14332369   7.836   4.769   7.749  0.1457  0.9834  1.0411
  124MOL   H14432370   7.832   4.874   7.620  1.3633  0.2751  2.3769
  124MOL   C14532371   7.661   4.738   7.628 -0.4463 -0.0711 -0.0502
  124MOL   C14632372   7.719   4.637   7.531  0.6606 -0.0647 -0.3671
  124MOL   C14732373   7.716   4.506   7.549  0.5438  0.4704  0.2438
  124MOL   C14832374   7.672   4.441   7.676 -0.5342 -0.0099  0.0682
  124MOL   C14932375   7.777   4.416   7.450  0.2753  0.0155 -0.6027
  124MOL   H15032376   7.602   4.793   7.555 -0.5283 -2.1922 -1.6240
  124MOL   H15132377   7.583   4.690   7.688  0.1841 -1.0955 -0.0422
  124MOL   H15232378   7.765   4.689   7.448  0.5589  3.0913  1.4831
  124MOL   H15332379   7.590   4.374   7.647 -0.9882 -0.3654  2.1006
  124MOL   H15432380   7.639   4.512   7.753  1.3173 -0.1458  1.0034
  124MOL   H15532381   7.751   4.385   7.725  1.2256  1.0625 -1.4864
  124MOL   H15632382   7.784   4.461   7.351 -1.2422  0.6207 -0.4527
  124MOL   H15732383   7.711   4.330   7.439  0.6361 -0.3923  0.3786
  124MOL   C15832384   0.037   4.374   7.477 -0.4603  0.5342 -0.1375
  124MOL   C15932385   0.127   4.390   7.363 -0.0710 -0.3651 -0.2764
  124MOL   C16032386   0.203   4.499   7.347  1.0378 -0.4274  0.5192
  124MOL   C16132387   0.220   4.615   7.444 -0.1197  0.1428 -0.6456
  124MOL   C16232388   0.282   4.517   7.217 -0.4255  0.6159  0.5090
  124MOL   H16332389   0.048   4.268   7.500  1.3797  0.5862 -0.6764
  124MOL   H16432390   0.081   4.421   7.565 -0.4868  0.9723 -0.3539
  124MOL   H16532391   0.125   4.311   7.290  0.1978 -0.1072 -0.5659
  124MOL   H16632392   0.240   4.709   7.392 -0.3336  0.9723  0.7146
  124MOL   H16732393   0.289   4.581   7.522  1.2054  1.9242 -1.0052
  124MOL   H16832394   0.131   4.639   7.502  1.4671 -1.0653  2.4211
  124MOL   H16932395   0.229   4.598   7.167 -1.7306 -0.6775 -0.2389
  124MOL   H17032396   0.275   4.429   7.153 -2.0213 -0.1418  1.6924
  124MOL   C17132397   0.429   4.555   7.240  0.1049 -0.0478  0.6864
  124MOL   C17232398   0.508   4.546   7.108  0.2083  0.0842  0.3251
  124MOL   C17332399   0.614   4.458   7.084 -0.3008 -0.3176 -0.2236
  124MOL   C17432400   0.672   4.365   7.189  0.5908  0.3830 -0.4253
  124MOL   C17532401   0.679   4.450   6.948 -0.2341  0.5543 -0.5438
  124MOL   H17632402   0.467   4.501   7.326 -0.4601 -2.8053 -0.7406
  124MOL   H17732403   0.429   4.659   7.273  0.8594  0.8004 -1.8649
  124MOL   H17832404   0.463   4.619   7.043  0.6182 -2.5517 -3.0755
  124MOL   H17932405   0.775   4.394   7.212  0.9172 -1.5089  0.6089
  124MOL   H18032406   0.685   4.271   7.136 -1.2576 -0.8045  1.1965
  124MOL   H18132407   0.600   4.364   7.271 -2.4530  0.8484 -3.0097
  124MOL   H18232408   0.784   4.478   6.951 -0.2520  0.6658 -0.9241
  124MOL   H18332409   0.637   4.533   6.891  2.0576  1.7610 -0.5299
  124MOL   C18432410   0.651   4.313   6.874 -0.0752  0.1553  0.2999
  124MOL   C18532411   0.673   4.330   6.720 -0.0653  0.1301 -0.4435
  124MOL   C18632412   0.789   4.321   6.657  0.1746 -0.1012  0.5165
  124MOL   C18732413   0.926   4.299   6.720  0.3291  0.4601  0.1747
  124MOL   C18832414   0.787   4.337   6.503 -0.2600  0.8098  0.0476
  124MOL   H18932415   0.556   4.263   6.892 -0.0285 -0.6186 -1.4710
  124MOL   H19032416   0.728   4.243   6.907  0.4594  0.4653 -0.2558
  124MOL   H19132417   0.593   4.360   6.654 -0.4244 -1.9766 -1.0082
  124MOL   H19232418   0.976   4.248   6.637  1.3987  0.5343  0.7688
  124MOL   H19332419   0.923   4.240   6.811 -0.4992  3.4869  2.1511
  124MOL   H19432420   0.976   4.396   6.724 -0.3961  0.8870 -0.8316
  124MOL   H19532421   0.698   4.300   6.451  0.4786 -0.0540 -0.6395
  124MOL   H19632422   0.851   4.256   6.465 -1.3584 -0.8945  1.7641
  124MOL   C19732423   0.829   4.477   6.458  0.5926 -0.1969  0.7605
  124MOL   C19832424   0.812   4.488   6.308 -0.1250 -0.0074 -0.1173
  124MOL   C19932425   0.913   4.487   6.218  0.0936 -0.6598 -0.4326
  124MOL   C20032426   1.059   4.475   6.250 -0.5312 -0.0520 -0.0978
  124MOL   C20132427   0.873   4.478   6.071  0.6093  0.3196  0.0514
  124MOL   H20232428   0.931   4.504   6.486  0.9179  1.1986 -1.6220
  124MOL   H20332429   0.771   4.557   6.504 -1.3586 -0.8689 -0.4734
  124MOL   H20432430   0.713   4.479   6.266  0.3214  0.4108 -1.2629
  124MOL   H20532431   1.086   4.521   6.345  0.1113  1.2424 -0.8860
  124MOL   H20632432   1.111   4.526   6.168  2.1541 -0.2081  1.4300
  124MOL   H20732433   1.099   4.373   6.257 -0.0632  0.0862 -0.6253
  124MOL   H20832434   0.942   4.538   6.013 -0.8461  0.9897 -0.9965
  124MOL   H20932435   0.773   4.515   6.052 -0.5000 -1.2398  2.5383
  124MOL   C21032436   0.876   4.329   6.018 -0.0939  0.2230 -0.3466
  124MOL   C21132437   0.846   4.330   5.873 -0.2541 -0.2548  1.0354
  124MOL   C21232438   0.784   4.238   5.803  0.0869 -0.4960 -0.5717
  124MOL   C21332439   0.726   4.111   5.852 -0.0601  0.9316 -0.0228
  124MOL   C21432440   0.763   4.266   5.654  0.1776 -0.1869  0.0473
  124MOL   H21532441   0.807   4.273   6.081  0.9468 -0.6956 -0.0002
  124MOL   H21632442   0.976   4.290   6.040  0.2023  0.3680 -1.3934
  124MOL   H21732443   0.894   4.407   5.814  0.3145 -2.3681 -1.3171
  124MOL   H21832444   0.620   4.104   5.828 -0.1345 -2.5441  0.9737
  124MOL   H21932445   0.741   4.106   5.960  0.1393 -2.7018 -0.1553
  124MOL   H22032446   0.777   4.028   5.803 -1.3317 -1.0019  1.8314
  124MOL   H22132447   0.740   4.175   5.599  0.4959  1.1470 -2.3586
  124MOL   H22232448   0.857   4.304   5.614  1.1750 -0.0994  2.3759
  124MOL   C22332449   0.656   4.372   5.633  0.5097 -0.3084  0.6233
  124MOL   C22432450   0.616   4.396   5.490 -0.3954 -0.6357  0.9500
  124MOL   C22532451   0.494   4.386   5.435  1.0118 -0.0800  0.4832
  124MOL   C22632452   0.362   4.331   5.501  0.3631  0.3790  0.1372
  124MOL   C22732453   0.472   4.419   5.282 -0.0509 -0.3085  0.1550
  124MOL   H22832454   0.691   4.467   5.671  1.0180 -0.0370 -0.4947
  124MOL   H22932455   0.567   4.335   5.684 -0.3707 -0.1960 -0.8033
  124MOL   H23032456   0.695   4.435   5.427 -0.0524 -1.1569  1.0590
  124MOL   H23132457   0.387   4.269   5.587  0.1896 -2.5967 -1.8912
  124MOL   H23232458   0.304   4.272   5.431  0.2422  0.9783 -0.2734
  124MOL   H23332459   0.315   4.424   5.533 -1.3138 -0.0999 -0.8669
  124MOL   H23432460   0.372   4.462   5.276  0.8010  1.9122  1.5071
  124MOL   H23532461   0.449   4.335   5.217  0.0214 -0.6453  0.5638
  124MOL   C23632462   0.565   4.508   5.209  0.0857 -0.2002 -0.1879
  124MOL   C23732463   0.494   4.572   5.093  0.0047 -0.2250  0.0431
  124MOL   C23832464   0.499   4.525   4.963 -0.3247 -0.2344 -0.2720
  124MOL   C23932465   0.573   4.395   4.914  0.3012 -1.0646 -0.0662
  124MOL   C24032466   0.408   4.586   4.855  0.0902  0.5606 -0.1642
  124MOL   H24132467   0.660   4.465   5.180  0.1083 -0.2739 -0.0109
  124MOL   H24232468   0.595   4.585   5.281  0.7139 -1.3768  0.8300
  124MOL   H24332469   0.439   4.662   5.113  0.1974  0.3898 -2.1542
  124MOL   H24432470   0.619   4.350   5.001 -0.2003  1.2949  1.4894
  124MOL   H24532471   0.649   4.408   4.836  1.4138 -0.5541  1.0934
  124MOL   H24632472   0.500   4.326   4.871 -2.8618  1.5347  0.8948
  124MOL   H24732473   0.341   4.663   4.893 -0.0989  0.4741 -0.3226
  124MOL   H24832474   0.353   4.511   4.797  1.3342 -1.8023  1.6326
  124MOL   C24932475   0.489   4.668   4.751 -0.1739 -0.4286 -0.5542
  124MOL   C25032476   0.413   4.693   4.618 -0.8908  0.5517 -0.0444
  124MOL   C25132477   0.473   4.732   4.499  0.6024 -0.4125  0.2830
  124MOL   C25232478   0.624   4.759   4.489 -0.1092  0.2442 -0.0539
  124MOL   C25332479   0.388   4.753   4.369 -0.3688 -0.0636 -0.4286
  124MOL   H25432480   0.588   4.628   4.730 -0.3179 -1.8090  1.2979
  124MOL   H25532481   0.497   4.766   4.799 -0.1302 -1.4912  1.7085
  124MOL   H25632482   0.308   4.669   4.622 -0.3702 -2.0577 -0.8196
  124MOL   H25732483   0.651   4.845   4.428  1.6974 -1.9124 -2.4195
  124MOL   H25832484   0.684   4.673   4.459 -1.4539 -1.1363  1.1203
  124MOL   H25932485   0.670   4.776   4.586  1.6917 -1.2463 -0.6264
  124MOL   H26032486   0.435   4.704   4.284  0.2226 -2.7569  1.4092
  124MOL   H26132487   0.382   4.861   4.354 -0.8448  0.3588  2.6067
  124MOL   H26232488   0.286   4.723   4.393  0.4611 -1.6468  1.1734
  125MOL     C132489   4.488   0.638   7.268  0.0039 -0.2967 -0.0449
  125MOL     C232490   4.510   0.733   7.390 -0.2061 -0.0393  0.2003
  125MOL     C332491   4.498   0.692   7.517  0.0988  0.6475  0.1776
  125MOL     C432492   4.462   0.549   7.553 -0.3991  0.7647 -0.0404
  125MOL     C532493   4.520   0.790   7.627  0.3118 -0.3630 -0.1214
  125MOL     H632494   4.539   0.674   7.178 -2.6625  1.8164 -0.7785
  125MOL     H732495   4.525   0.537   7.284  0.4258 -0.1096  0.1582
  125MOL     H832496   4.526   0.835   7.360  1.5446 -0.2272  0.4244
  125MOL     H932497   4.412   0.498   7.471 -0.1948 -2.7303  1.9249
  125MOL    H1032498   4.407   0.529   7.645 -1.6983  0.5901 -0.8560
  125MOL    H1132499   4.558   0.501   7.573 -0.8467  0.0924  0.4872
  125MOL    H1232500   4.450   0.782   7.710  1.3575 -1.0073  0.7174
  125MOL    H1332501   4.497   0.886   7.582  1.0891 -0.2124 -0.1992
  125MOL    H1432502   4.383   0.614   7.251  0.1143 -0.0667 -1.1174
  125MOL    C1532503   4.663   0.797   7.676 -0.1181 -0.2169  0.1472
  125MOL    C1632504   4.659   0.909   7.782  0.5853 -0.2842  0.3421
  125MOL    C1732505   4.659   0.877   0.030  0.1394  0.4737 -0.6155
  125MOL    C1832506   4.655   0.736   0.089 -0.1407  0.3644  0.0641
  125MOL    C1932507   4.635   0.979   0.139 -0.3165  0.0971 -0.0734
  125MOL    H2032508   4.713   0.832   7.586 -0.0220 -1.2196 -0.1924
  125MOL    H2132509   4.714   0.707   7.712 -0.4325 -1.1644 -1.7300
  125MOL    H2232510   4.648   1.011   7.746 -1.5258 -0.7900 -0.4989
  125MOL    H2332511   4.555   0.699   0.064 -0.2073  0.9540 -0.5390
  125MOL    H2432512   4.667   0.741   0.197 -0.1061 -3.5390  0.3386
  125MOL    H2532513   4.729   0.664   0.055 -0.5721 -0.1126  0.1231
  125MOL    H2632514   4.544   0.962   0.196 -0.0543 -1.0513  0.0054
  125MOL    H2732515   4.618   1.075   0.089  0.3323  0.1439 -0.2176
  125MOL    C2832516   4.760   1.017   0.227 -0.5136 -0.0736 -0.6117
  125MOL    C2932517   4.895   1.003   0.165  0.3402 -0.6906  0.3097
  125MOL    C3032518   4.958   1.105   0.102 -0.2075 -0.3975  0.0385
  125MOL    C3132519   4.910   1.248   0.089 -0.4749  0.5312  0.8432
  125MOL    C3232520   5.095   1.085   0.050  0.1301 -0.2735  0.0438
  125MOL    H3332521   4.752   0.966   0.322  2.3600 -0.3259 -0.4620
  125MOL    H3432522   4.740   1.118   0.264  1.5689  0.1078  0.1018
  125MOL    H3532523   4.936   0.904   0.158  2.0220 -0.0576  0.7436
  125MOL    H3632524   4.951   1.317   0.163  1.5622  0.4899 -0.1920
  125MOL    H3732525   4.803   1.266   0.091 -0.9636 -2.3181  1.3164
  125MOL    H3832526   4.937   1.275   7.869  0.7820 -1.9460  0.4871
  125MOL    H3932527   5.135   0.991   0.090  0.6343 -0.1038 -0.0611
  125MOL    H4032528   5.164   1.160   0.087 -2.2960  2.5034 -0.9253
  125MOL    C4132529   5.111   1.077   7.776  0.3281 -0.1195 -0.2606
  125MOL    C4232530   5.245   1.013   7.743 -0.0840  0.7102  0.4971
  125MOL    C4332531   5.254   0.911   7.657 -0.6228  0.0969  0.3069
  125MOL    C4432532   5.134   0.837   7.596 -0.4409  0.0316  0.1032
  125MOL    C4532533   5.386   0.846   7.623 -0.1655 -0.4271 -0.0658
  125MOL    H4632534   5.115   1.175   7.728 -0.6299  1.5753  3.0122
  125MOL    H4732535   5.028   1.021   7.732  0.4748 -0.3372 -0.2605
  125MOL    H4832536   5.335   1.059   7.780  1.1284 -0.7002 -0.6517
  125MOL    H4932537   5.155   0.750   7.533 -2.6550  1.3505 -2.5281
  125MOL    H5032538   5.103   0.909   7.520  0.8400 -0.5588 -1.0058
  125MOL    H5132539   5.055   0.801   7.663  0.7815 -0.1970  1.4462
  125MOL    H5232540   5.460   0.908   7.675 -0.2440  0.3433 -0.8723
  125MOL    H5332541   5.413   0.850   7.518  1.6648 -1.0665  0.3532
  125MOL    C5432542   5.396   0.701   7.668  0.1531 -1.1089 -0.2016
  125MOL    C5532543   5.545   0.656   7.666  0.1077 -0.5524 -0.0465
  125MOL    C5632544   5.595   0.553   7.600 -0.2273 -0.3161  0.0366
  125MOL    C5732545   5.512   0.445   7.526 -0.4504  0.0057 -0.2515
  125MOL    C5832546   5.748   0.529   7.605  0.4253  0.2415 -0.3529
  125MOL    H5932547   5.326   0.638   7.614 -2.2905  0.1461  1.4193
  125MOL    H6032548   5.355   0.682   7.767 -0.4865 -0.1404 -0.2699
  125MOL    H6132549   5.614   0.723   7.715  0.2023 -0.8282  0.1921
  125MOL    H6232550   5.515   0.354   7.586 -2.5767 -2.5383 -3.7729
  125MOL    H6332551   5.553   0.429   7.427 -1.8139 -1.1480 -0.6570
  125MOL    H6432552   5.407   0.464   7.504 -0.1002  2.7649  0.2859
  125MOL    H6532553   5.814   0.615   7.599 -0.4332  0.9507  0.0936
  125MOL    H6632554   5.777   0.455   7.531 -1.7786 -0.9224 -0.0979
  125MOL    C6732555   5.777   0.470   7.741  1.1831 -0.1184  0.1309
  125MOL    C6832556   5.915   0.398   7.749  0.1481 -0.2531 -0.0464
  125MOL    C6932557   5.940   0.263   7.752  0.3088  0.0991  0.1363
  125MOL    C7032558   5.831   0.163   7.718 -0.1572  0.1868  0.3242
  125MOL    C7132559   6.079   0.214   7.769 -0.3680  0.6388 -0.2196
  125MOL    H7232560   5.693   0.414   7.779  0.8837 -0.6713 -1.3087
  125MOL    H7332561   5.772   0.545   7.820  3.9248  0.0429  0.2065
  125MOL    H7432562   6.006   0.451   7.771  0.8101 -1.2238 -0.4062
  125MOL    H7532563   5.849   0.132   7.615 -1.1937  0.9989 -0.1066
  125MOL    H7632564   5.726   0.193   7.723 -0.1871  0.8844 -3.3865
  125MOL    H7732565   5.850   0.078   7.784 -0.4341  0.7352  1.1109
  125MOL    H7832566   6.161   0.280   7.739  1.5555 -0.6507  2.0909
  125MOL    H7932567   6.096   0.136   7.695 -0.7114 -0.4050  0.7935
  125MOL    C8032568   6.123   0.164   0.025  0.1021  0.3074 -0.4186
  125MOL    C8132569   6.265   0.114   0.028  0.1997 -0.2172  0.1150
  125MOL    C8232570   6.336   0.074   0.136 -0.4909  0.6139 -0.7988
  125MOL    C8332571   6.283   0.068   0.278  0.3733 -0.8372 -0.7038
  125MOL    C8432572   6.484   0.031   0.126 -0.1445  0.4624 -0.2371
  125MOL    H8532573   6.060   0.087   0.069  1.0082 -0.5227 -0.5563
  125MOL    H8632574   6.120   0.244   0.098  1.3268  0.9040 -0.9930
  125MOL    H8732575   6.317   0.114   7.815  0.0746 -1.5978  0.0447
  125MOL    H8832576   6.295   0.164   0.329  1.0024 -0.6131 -1.2748
  125MOL    H8932577   6.323   7.873   0.343  0.6703 -0.8450 -0.8944
  125MOL    H9032578   6.174   0.057   0.277  0.1794  0.9560 -1.7094
  125MOL    H9132579   6.536   0.060   0.217 -0.2729  1.0295 -0.3426
  125MOL    H9232580   6.535   0.094   0.053 -2.5203  0.9255 -1.5720
  125MOL    C9332581   6.494   7.763   0.086 -0.2420 -0.3540 -0.2739
  125MOL    C9432582   6.451   7.665   0.195 -0.3220 -0.2954 -0.5049
  125MOL    C9532583   6.535   7.592   0.266 -0.0543 -0.1072  0.4716
  125MOL    C9632584   6.687   7.611   0.264  0.3558 -0.2148 -0.2406
  125MOL    C9732585   6.483   7.487   0.358 -0.3142  0.0860 -0.4834
  125MOL    H9832586   6.592   7.743   0.041  1.2433 -1.2153  3.1840
  125MOL    H9932587   6.425   7.752   0.002 -0.0577 -0.0806 -0.4597
  125MOL   H10032588   6.348   7.642   0.216 -0.6127  0.7609 -0.7435
  125MOL   H10132589   6.735   7.637   0.359 -1.6391 -0.0014  0.7369
  125MOL   H10232590   6.721   7.683   0.189 -2.9866  1.9970  0.2396
  125MOL   H10332591   6.723   7.512   0.239 -1.4551 -2.1082  4.1418
  125MOL   H10432592   6.472   7.392   0.307 -1.5713  0.6766 -1.3363
  125MOL   H10532593   6.382   7.509   0.391  0.3325  1.8727  0.3944
  125MOL   C10632594   6.572   7.464   0.489  0.3971  0.0615  0.3009
  125MOL   C10732595   6.565   7.598   0.571 -0.4636 -0.6235 -0.2266
  125MOL   C10832596   6.521   7.605   0.699  0.4406 -0.8067  0.5701
  125MOL   C10932597   6.474   7.476   0.777  0.1631 -0.3827 -0.1607
  125MOL   C11032598   6.504   7.735   0.780 -0.2590  0.0893 -0.4499
  125MOL   H11132599   6.673   7.435   0.461 -1.0891 -2.5691 -2.6812
  125MOL   H11232600   6.540   7.371   0.536 -1.8005  0.5766 -0.0833
  125MOL   H11332601   6.605   7.685   0.520 -0.2764 -0.1807  0.6645
  125MOL   H11432602   6.371   7.448   0.754 -0.1611  0.5960  0.0561
  125MOL   H11532603   6.485   7.478   0.885 -1.0092 -0.3780 -0.0286
  125MOL   H11632604   6.542   7.396   0.749  0.8551  1.0810 -2.8593
  125MOL   H11732605   6.548   7.818   0.725 -0.9867  1.9666  1.6762
  125MOL   H11832606   6.557   7.722   0.874 -0.8925  2.6084  0.3075
  125MOL   C11932607   6.352   7.769   0.803 -0.0071 -0.0563  0.1506
  125MOL   C12032608   6.322   0.026   0.846  0.3571  0.7657  0.2723
  125MOL   C12132609   6.253   0.061   0.952  0.0661  0.3132  0.8393
  125MOL   C12232610   6.202   7.854   1.059 -0.0031 -0.3969  0.2948
  125MOL   C12332611   6.228   0.210   0.973 -0.1740 -0.0007  0.3829
  125MOL   H12432612   6.308   7.694   0.869  0.8631 -0.5940  0.1286
  125MOL   H12532613   6.297   7.759   0.710  0.8021 -3.7534 -0.0240
  125MOL   H12632614   6.358   0.109   0.787 -1.4691  0.9559 -0.6071
  125MOL   H12732615   6.121   7.788   1.028 -1.7395  0.0169  3.6541
  125MOL   H12832616   6.183   0.041   1.141 -0.6294  0.4182 -0.5301
  125MOL   H12932617   6.285   7.797   1.099  0.7917 -1.2877 -2.5468
  125MOL   H13032618   6.120   0.220   0.985 -0.1824 -0.9326  1.1288
  125MOL   H13132619   6.257   0.251   0.877  0.4154 -1.8985 -0.2701
  125MOL   C13232620   6.321   0.262   1.080 -0.3076 -0.3452  0.5979
  125MOL   C13332621   6.379   0.395   1.030  0.0987  0.0782 -0.6156
  125MOL   C13432622   6.506   0.440   1.020  0.2365 -1.1359 -0.8104
  125MOL   C13532623   6.624   0.356   1.067  0.1944 -0.2291  0.2558
  125MOL   C13632624   6.525   0.576   0.953  0.8647 -0.0830  0.3821
  125MOL   H13732625   6.397   0.192   1.113  0.9244  0.1607 -1.1435
  125MOL   H13832626   6.271   0.291   1.173  0.6234 -1.0642  1.3307
  125MOL   H13932627   6.305   0.463   0.993  0.1095  0.6135  0.3389
  125MOL   H14032628   6.715   0.389   1.018  1.1391  0.8779  2.6424
  125MOL   H14132629   6.611   0.256   1.027  1.7190  0.2409 -1.4960
  125MOL   H14232630   6.646   0.357   1.174  1.7013  0.8986 -0.0510
  125MOL   H14332631   6.441   0.607   0.892  0.5357 -0.6313  0.5515
  125MOL   H14432632   6.608   0.559   0.884 -0.0234 -1.1241 -0.4485
  125MOL   C14532633   6.569   0.678   1.062 -0.5872 -0.5182  0.4385
  125MOL   C14632634   6.451   0.766   1.113 -0.5121 -0.7528  0.1461
  125MOL   C14732635   6.407   0.780   1.241  0.0072  0.5435 -0.0238
  125MOL   C14832636   6.472   0.708   1.367  0.5193 -0.6367  0.0480
  125MOL   C14932637   6.277   0.852   1.269 -0.2553  0.0943  0.0971
  125MOL   H15032638   6.650   0.735   1.016  0.2735 -2.0190  0.0695
  125MOL   H15132639   6.625   0.620   1.135 -0.6097 -2.5147 -1.0975
  125MOL   H15232640   6.406   0.815   1.028 -0.6448  0.3048  0.8061
  125MOL   H15332641   6.568   0.665   1.336 -0.2392 -0.2756 -3.0050
  125MOL   H15432642   6.409   0.623   1.393  0.4049 -0.7583 -0.5960
  125MOL   H15532643   6.486   0.776   1.450 -2.7773  1.3396 -0.9453
  125MOL   H15632644   6.201   0.783   1.306  1.7796 -3.2804 -1.7816
  125MOL   H15732645   6.233   0.888   1.177  0.4718  2.0803  0.4965
  125MOL   C15832646   6.285   0.983   1.355  0.3662 -0.2767  0.6988
  125MOL   C15932647   6.141   1.036   1.384 -0.1689 -0.3396 -0.8090
  125MOL   C16032648   6.104   1.165   1.415 -0.2995  0.5087 -0.0772
  125MOL   C16132649   6.210   1.276   1.442  0.3058  0.7317  0.2696
  125MOL   C16232650   5.953   1.198   1.415  0.1220 -0.2036  0.0708
  125MOL   H16332651   6.341   1.057   1.298  2.7160 -1.5961  1.2071
  125MOL   H16432652   6.342   0.971   1.447  1.7965  0.4045 -0.0816
  125MOL   H16532653   6.067   0.959   1.369  0.4918 -1.0220 -0.6013
  125MOL   H16632654   6.308   1.235   1.468  0.9778  2.0804 -0.0524
  125MOL   H16732655   6.172   1.354   1.508  0.9508  0.0887  1.3980
  125MOL   H16832656   6.229   1.328   1.347  1.4921 -0.0073  0.0960
  125MOL   H16932657   5.934   1.258   1.504 -1.7722 -0.5259 -0.0993
  125MOL   H17032658   5.892   1.109   1.431  0.7612 -0.5549  0.5808
  125MOL   C17132659   5.885   1.269   1.297  0.5546 -0.4870 -0.1675
  125MOL   C17232660   5.929   1.218   1.156 -0.1544  0.1207 -0.3690
  125MOL   C17332661   5.854   1.144   1.068  0.0185  1.0139 -0.2182
  125MOL   C17432662   5.715   1.073   1.097 -0.0441 -0.6026 -0.1801
  125MOL   C17532663   5.916   1.099   0.934 -0.0776  0.2762  0.7717
  125MOL   H17632664   5.909   1.375   1.305 -3.6562  0.6925 -1.7178
  125MOL   H17732665   5.777   1.273   1.311  0.3402 -4.0740 -0.3844
  125MOL   H17832666   6.020   1.257   1.111  0.2586 -2.6605 -2.0954
  125MOL   H17932667   5.666   1.092   1.192  0.6304  3.0407 -0.4758
  125MOL   H18032668   5.716   0.965   1.092 -1.2360 -0.5928 -0.7774
  125MOL   H18132669   5.654   1.116   1.018  0.3643  0.1289 -0.1103
  125MOL   H18232670   5.988   1.167   0.887  0.6632 -1.4829 -0.6688
  125MOL   H18332671   5.839   1.087   0.858  1.9058 -0.6038 -1.1585
  125MOL   C18432672   5.972   0.957   0.945 -0.4951  0.3678  0.6227
  125MOL   C18532673   6.014   0.901   0.814  0.4691 -0.2867 -0.4234
  125MOL   C18632674   6.063   0.779   0.782  0.3945 -0.1034 -0.7093
  125MOL   C18732675   6.067   0.665   0.880 -0.4747  0.3248  0.2039
  125MOL   C18832676   6.093   0.735   0.636  0.2570 -0.0286 -0.5105
  125MOL   H18932677   5.892   0.894   0.983  0.8732  0.4478  3.8482
  125MOL   H19032678   6.057   0.939   1.012 -0.1223 -1.7195 -0.3694
  125MOL   H19132679   6.025   0.969   0.731  0.6254 -0.3417 -0.4476
  125MOL   H19232680   6.156   0.603   0.881 -0.4770  0.3106 -0.3346
  125MOL   H19332681   5.989   0.593   0.853  0.6345 -1.2775  1.2046
  125MOL   H19432682   6.052   0.702   0.981 -0.2811  1.0911 -0.0453
  125MOL   H19532683   6.049   0.808   0.569  0.2073  0.7152  0.3261
  125MOL   H19632684   6.029   0.649   0.616  1.3952 -1.4616  1.7325
  125MOL   C19732685   6.246   0.712   0.594  0.5885 -0.4469  0.4253
  125MOL   C19832686   6.328   0.834   0.594 -0.9697 -0.2013  0.4970
  125MOL   C19932687   6.461   0.852   0.614  0.7319 -0.0781  0.4914
  125MOL   C20032688   6.564   0.740   0.632 -0.3677  0.3067  0.0107
  125MOL   C20132689   6.519   0.994   0.622  0.1589 -0.2751  0.2844
  125MOL   H20232690   6.257   0.682   0.490 -1.1276  0.4982 -0.0460
  125MOL   H20332691   6.286   0.629   0.653  0.6054 -0.1332  0.8575
  125MOL   H20432692   6.266   0.921   0.580 -0.0753  0.3449 -0.0758
  125MOL   H20532693   6.637   0.753   0.552 -2.0806 -0.2218 -1.6979
  125MOL   H20632694   6.521   0.639   0.634  2.8115 -1.1073 -0.6745
  125MOL   H20732695   6.612   0.758   0.728  0.2100  0.3593 -0.2930
  125MOL   H20832696   6.568   0.994   0.720  1.0241 -1.1574 -0.1413
  125MOL   H20932697   6.436   1.064   0.628  0.9583  0.6557  0.8241
  125MOL   C21032698   6.624   1.047   0.515  0.0256  0.2235  0.6951
  125MOL   C21132699   6.642   1.198   0.520  0.5763  0.1663 -0.6654
  125MOL   C21232700   6.647   1.290   0.424  0.8054 -0.1627 -0.4309
  125MOL   C21332701   6.667   1.269   0.285  0.3318 -0.1631 -0.5670
  125MOL   C21432702   6.642   1.440   0.458  0.3485  0.2778  0.0333
  125MOL   H21532703   6.609   1.010   0.413 -0.3684 -0.1358  0.8821
  125MOL   H21632704   6.723   1.009   0.539 -0.2015  0.0205  1.2996
  125MOL   H21732705   6.631   1.233   0.622 -1.5937  0.3761 -0.9379
  125MOL   H21832706   6.772   1.290   0.265 -0.0579  0.5977 -1.8852
  125MOL   H21932707   6.612   1.345   0.229 -0.5070  0.3198  0.8872
  125MOL   H22032708   6.634   1.173   0.246 -3.3597  0.0593  1.7954
  125MOL   H22132709   6.717   1.501   0.408  2.0719 -0.0525  2.1367
  125MOL   H22232710   6.661   1.445   0.565  3.2742 -1.8125 -0.3350
  125MOL   C22332711   6.510   1.500   0.419  0.7129 -0.5485 -0.1517
  125MOL   C22432712   6.516   1.650   0.449 -0.4015 -0.0944 -0.5296
  125MOL   C22532713   6.561   1.744   0.366 -0.7554 -0.6075  0.1800
  125MOL   C22632714   6.612   1.723   0.224  0.5832 -0.2355 -0.1265
  125MOL   C22732715   6.554   1.894   0.401 -0.4846  0.3367  0.9714
  125MOL   H22832716   6.429   1.455   0.475  0.2487 -0.6392 -0.8913
  125MOL   H22932717   6.489   1.503   0.312 -0.7940 -0.0176  0.1428
  125MOL   H23032718   6.470   1.682   0.541  1.9937 -0.1655  0.7372
  125MOL   H23132719   6.690   1.795   0.202  1.7166 -1.2531  0.5397
  125MOL   H23232720   6.535   1.710   0.147 -1.2617 -0.2578  1.6832
  125MOL   H23332721   6.665   1.628   0.221 -1.4322 -1.4359  1.1342
  125MOL   H23432722   6.653   1.934   0.381 -0.2222 -0.5228  0.5158
  125MOL   H23532723   6.533   1.912   0.507 -1.4506 -2.0349  1.2253
  125MOL   C23632724   6.457   1.968   0.314 -0.0178 -0.4945  0.4046
  125MOL   C23732725   6.471   2.114   0.349 -0.3371  0.1676  0.2629
  125MOL   C23832726   6.381   2.198   0.395  0.0074 -0.3630  0.5548
  125MOL   C23932727   6.228   2.168   0.396 -0.4795 -0.4384 -0.4192
  125MOL   C24032728   6.420   2.342   0.434  0.1434 -0.4765  0.2215
  125MOL   H24132729   6.355   1.933   0.331 -0.3500  0.6429  0.7895
  125MOL   H24232730   6.479   1.946   0.209  0.5445 -1.9274  0.8193
  125MOL   H24332731   6.573   2.145   0.329 -0.4782  0.0297 -0.6833
  125MOL   H24432732   6.200   2.068   0.426 -2.0227  0.1287  0.0396
  125MOL   H24532733   6.180   2.196   0.302 -1.0242  0.0115 -0.0081
  125MOL   H24632734   6.185   2.232   0.472  0.3669 -2.2894  1.6804
  125MOL   H24732735   6.375   2.407   0.358  1.4391 -2.6214 -2.4680
  125MOL   H24832736   6.527   2.355   0.425 -0.0453 -0.4488 -2.5651
  125MOL   C24932737   6.385   2.376   0.582 -0.1512  0.2289 -0.0795
  125MOL   C25032738   6.428   2.515   0.615  0.4693  0.1235 -0.2752
  125MOL   C25132739   6.435   2.571   0.735  0.7132 -0.1434  0.0161
  125MOL   C25232740   6.399   2.504   0.863 -0.4892  0.1562 -0.2190
  125MOL   C25332741   6.467   2.719   0.763  0.4673  0.2431  0.0935
  125MOL   H25432742   6.439   2.304   0.644  0.1983  1.0367  0.5597
  125MOL   H25532743   6.278   2.359   0.593 -0.3261  0.3172 -1.5950
  125MOL   H25632744   6.465   2.569   0.529 -0.6037  0.5435 -0.4835
  125MOL   H25732745   6.397   2.397   0.846 -2.2428  0.3885 -1.5450
  125MOL   H25832746   6.308   2.541   0.912 -0.8924 -0.7802 -0.2586
  125MOL   H25932747   6.481   2.519   0.933 -0.7106  1.2649 -0.1826
  125MOL   H26032748   6.538   2.715   0.846 -0.1721 -4.4660  0.5868
  125MOL   H26132749   6.386   2.768   0.817  0.6289 -1.7166  2.2024
  125MOL   H26232750   6.510   2.785   0.688 -0.4484  2.1137  1.1670
  126MOL     C132751   2.520   3.742   7.776  0.1729  0.8980  0.8570
  126MOL     C232752   2.415   3.687   7.863  0.0490 -0.1151 -0.4929
  126MOL     C332753   2.302   3.620   7.822 -0.7150 -0.1810 -0.4825
  126MOL     C432754   2.268   3.612   7.675  0.1479  0.2739 -0.3936
  126MOL     C532755   2.218   3.551   0.044  0.3149 -0.1394  0.3642
  126MOL     H632756   2.591   3.794   7.839  1.8362 -0.1477 -0.1235
  126MOL     H732757   2.564   3.670   7.707 -0.2634  0.9905  0.4785
  126MOL     H832758   2.449   3.692   0.083  2.4620  4.4247 -1.4097
  126MOL     H932759   2.266   3.508   7.642  0.2266 -0.5095  1.9374
  126MOL    H1032760   2.343   3.658   7.611  2.7268 -2.7308  0.3346
  126MOL    H1132761   2.173   3.659   7.650 -0.0534 -0.1375 -0.4133
  126MOL    H1232762   2.113   3.582   0.042  0.1221 -0.7328  1.0307
  126MOL    H1332763   2.258   3.577   0.141 -1.7613  3.8975  0.2330
  126MOL    H1432764   2.471   3.818   7.715 -2.1402 -0.7143  0.6339
  126MOL    C1532765   2.221   3.397   0.012 -0.6943  0.6702 -0.1049
  126MOL    C1632766   2.160   3.312   0.121  0.5931  0.2530  0.3508
  126MOL    C1732767   2.034   3.267   0.138  0.0976 -0.5073 -0.3465
  126MOL    C1832768   1.915   3.295   0.055 -0.1644  0.0807  0.3744
  126MOL    C1932769   2.000   3.177   0.253 -0.3324 -0.6260  0.1079
  126MOL    H2032770   2.323   3.360   7.878 -0.7460 -0.4485  1.8530
  126MOL    H2132771   2.176   3.372   7.799  1.3352  0.1041 -0.9474
  126MOL    H2232772   2.231   3.273   0.192  0.7370 -1.2369 -0.5765
  126MOL    H2332773   1.961   3.373   7.877 -0.7086 -1.7022 -2.4278
  126MOL    H2432774   1.831   3.340   0.108  0.0638 -1.1750  1.8401
  126MOL    H2532775   1.879   3.210   7.881  1.0939 -0.3837  0.2644
  126MOL    H2632776   1.924   3.232   0.308  0.9794 -1.7135  3.1428
  126MOL    H2732777   2.081   3.180   0.326  0.2437  1.1109 -0.5674
  126MOL    C2832778   1.965   3.031   0.229  0.0750  0.3220 -0.1785
  126MOL    C2932779   1.966   2.961   0.362 -0.3821  0.6434 -0.4607
  126MOL    C3032780   2.062   2.875   0.407  0.5321  0.3063  0.2509
  126MOL    C3132781   2.175   2.816   0.326  0.3339  0.7115  0.6065
  126MOL    C3232782   2.047   2.795   0.537  0.6868 -0.6839  0.2792
  126MOL    H3332783   2.042   2.986   0.167 -0.5680  0.4032 -1.0404
  126MOL    H3432784   1.867   3.012   0.185 -1.5791  1.6563  2.7579
  126MOL    H3532785   1.882   2.992   0.423 -0.3741  1.0333 -0.6508
  126MOL    H3632786   2.138   2.727   0.277 -0.7748  1.4875 -0.0022
  126MOL    H3732787   2.259   2.784   0.387  0.5554  2.1251  1.0691
  126MOL    H3832788   2.206   2.871   0.236 -2.6989 -0.1774 -1.0547
  126MOL    H3932789   2.030   2.691   0.511 -1.7401 -0.0694 -0.7650
  126MOL    H4032790   1.958   2.828   0.592  0.3574 -0.5941 -0.2914
  126MOL    C4132791   2.160   2.804   0.648  0.0681 -0.1321  0.5442
  126MOL    C4232792   2.119   2.737   0.769 -0.9716  0.3386 -0.4405
  126MOL    C4332793   2.204   2.702   0.870  0.2711  0.2609  0.4370
  126MOL    C4432794   2.351   2.733   0.867  1.1517  0.2364 -0.3723
  126MOL    C4532795   2.152   2.635   0.999 -0.2582 -0.0081  0.5010
  126MOL    H4632796   2.181   2.904   0.687 -0.3055 -0.4378  1.5451
  126MOL    H4732797   2.252   2.766   0.602 -0.3722 -0.6426  0.0818
  126MOL    H4832798   2.013   2.718   0.775 -0.5029 -3.2603 -1.9888
  126MOL    H4932799   2.400   2.667   0.938  1.8689  1.5514  0.3857
  126MOL    H5032800   2.361   2.837   0.899  2.0329  0.9331 -2.8079
  126MOL    H5132801   2.385   2.726   0.764  2.2689 -2.2534  0.1213
  126MOL    H5232802   2.199   2.538   1.014  1.0637  0.6600  0.7406
  126MOL    H5332803   2.046   2.615   0.987 -0.6508  0.5106  2.7226
  126MOL    C5432804   2.167   2.735   1.120  0.2897 -0.8849 -0.2901
  126MOL    C5532805   2.116   2.874   1.090 -1.2644 -0.2564 -0.2530
  126MOL    C5632806   2.024   2.937   1.165  0.7009  0.1774 -0.2778
  126MOL    C5732807   1.969   2.875   1.294  0.0657  0.5246 -0.4441
  126MOL    C5832808   1.973   3.077   1.135  0.9779 -0.9615 -0.3681
  126MOL    H5932809   2.273   2.748   1.143  0.4251 -1.0135 -0.8210
  126MOL    H6032810   2.130   2.674   1.201 -0.5456 -0.7208 -0.5450
  126MOL    H6132811   2.168   2.925   1.010  0.5721 -2.3375 -0.4384
  126MOL    H6232812   1.981   2.930   1.387 -1.0665 -0.0629  0.0595
  126MOL    H6332813   1.999   2.775   1.326 -1.8412  0.3507  0.8376
  126MOL    H6432814   1.862   2.871   1.275  0.2701 -1.1764 -1.3494
  126MOL    H6532815   2.024   3.138   1.210 -0.0011  0.5706 -0.9083
  126MOL    H6632816   1.866   3.076   1.156  0.6916  3.0159 -1.1810
  126MOL    C6732817   1.986   3.140   0.991 -0.0892 -0.4644  0.0779
  126MOL    C6832818   1.895   3.259   0.970  0.3654  0.3257  0.4433
  126MOL    C6932819   1.870   3.318   0.854 -0.4715 -0.0527 -0.4052
  126MOL    C7032820   1.934   3.270   0.723 -0.2180 -0.0372 -0.7493
  126MOL    C7132821   1.764   3.428   0.829 -0.0049 -0.2185  0.0091
  126MOL    H7232822   1.958   3.065   0.917 -0.9682 -0.5833  0.5242
  126MOL    H7332823   2.088   3.174   0.976  0.3547 -0.6391  2.4013
  126MOL    H7432824   1.842   3.298   1.056  1.2226  2.8147 -0.1299
  126MOL    H7532825   2.026   3.212   0.722  0.8056  1.5469 -0.0257
  126MOL    H7632826   1.955   3.357   0.661  0.5280  0.8718  0.7762
  126MOL    H7732827   1.857   3.205   0.680 -1.2419 -0.0729  1.1039
  126MOL    H7832828   1.661   3.396   0.846  0.4314 -1.6797  0.0030
  126MOL    H7932829   1.773   3.451   0.723  0.9482 -0.3651  0.0522
  126MOL    C8032830   1.793   3.560   0.901 -0.2039 -0.5957  0.2022
  126MOL    C8132831   1.677   3.657   0.880  0.4312  0.3643 -0.4765
  126MOL    C8232832   1.677   3.767   0.806  0.6016 -0.2826 -0.5039
  126MOL    C8332833   1.799   3.825   0.736  0.2725 -0.4776 -0.6809
  126MOL    C8432834   1.553   3.854   0.793 -0.0429  0.5762  0.1219
  126MOL    H8532835   1.886   3.602   0.863  0.2481 -2.9837 -1.4427
  126MOL    H8632836   1.803   3.554   1.010  1.0763 -0.9067  0.0779
  126MOL    H8732837   1.583   3.626   0.925  0.3732  1.0970 -0.0974
  126MOL    H8832838   1.811   3.921   0.787 -0.0509 -0.8089  0.0149
  126MOL    H8932839   1.782   3.841   0.629  1.0737  0.5543 -0.6683
  126MOL    H9032840   1.891   3.767   0.744  0.5295 -0.4812 -3.1871
  126MOL    H9132841   1.580   3.960   0.789  0.1262  0.5087 -0.7824
  126MOL    H9232842   1.486   3.842   0.878  2.1342 -0.0907  1.7829
  126MOL    C9332843   1.473   3.825   0.663  0.1221  0.3183 -0.2644
  126MOL    C9432844   1.400   3.692   0.671  0.4244  0.1279  0.0344
  126MOL    C9532845   1.272   3.676   0.713  0.0070  0.3189  0.0048
  126MOL    C9632846   1.187   3.800   0.749 -0.9729  0.8230  0.0525
  126MOL    C9732847   1.194   3.549   0.729  0.0401 -1.1002  0.0013
  126MOL    H9832848   1.540   3.825   0.576  2.0931  1.2342  1.2147
  126MOL    H9932849   1.400   3.904   0.647 -0.7342 -0.4474 -0.1877
  126MOL   H10032850   1.456   3.600   0.667  1.1174  0.5956 -1.5458
  126MOL   H10132851   1.137   3.840   0.660  0.6125  1.8719 -0.3783
  126MOL   H10232852   1.256   3.865   0.802  0.4577 -0.2614 -0.4549
  126MOL   H10332853   1.117   3.775   0.829 -0.5347  0.0046  0.1836
  126MOL   H10432854   1.100   3.565   0.677  0.9385 -1.0666 -1.6531
  126MOL   H10532855   1.164   3.520   0.829 -0.6838 -0.4739 -0.0308
  126MOL   C10632856   1.256   3.434   0.650 -0.1387 -0.4382 -0.0669
  126MOL   C10732857   1.169   3.307   0.645  0.1046 -0.8500  0.9084
  126MOL   C10832858   1.067   3.288   0.561 -0.4511 -1.3752  0.6158
  126MOL   C10932859   1.031   3.378   0.448  0.4412  0.5549  0.1999
  126MOL   C11032860   0.971   3.170   0.576  0.0467 -0.2124  0.2343
  126MOL   H11132861   1.350   3.402   0.696 -0.3581  0.0994  0.7641
  126MOL   H11232862   1.289   3.464   0.550 -0.8397 -0.6770 -0.3729
  126MOL   H11332863   1.190   3.230   0.718 -0.6975  0.0194  2.0689
  126MOL   H11432864   1.009   3.326   0.355  4.1286 -0.5461 -0.1511
  126MOL   H11532865   1.119   3.441   0.433  0.6421 -0.1017 -1.4728
  126MOL   H11632866   0.943   3.436   0.475  0.5809  1.0506 -0.3912
  126MOL   H11732867   0.879   3.212   0.536  0.5848 -0.2243 -1.0499
  126MOL   H11832868   0.958   3.135   0.679 -0.3923 -1.0211 -0.0950
  126MOL   C11932869   1.015   3.051   0.499 -0.1231 -0.3896  0.0243
  126MOL   C12032870   0.889   2.960   0.499 -0.2686 -1.0009 -0.3949
  126MOL   C12132871   0.868   2.837   0.548 -0.0519 -0.3663  1.0580
  126MOL   C12232872   0.969   2.758   0.629  0.1320  0.0313 -0.3269
  126MOL   C12332873   0.729   2.782   0.533 -0.1404 -0.4157  0.0977
  126MOL   H12432874   1.093   3.005   0.559 -0.9819  0.5847  1.9406
  126MOL   H12532875   1.043   3.081   0.397  0.0156 -3.1513 -0.7757
  126MOL   H12632876   0.812   3.018   0.452  0.9046  0.2065 -0.8462
  126MOL   H12732877   1.051   2.823   0.659 -0.2799 -0.0959  1.0970
  126MOL   H12832878   1.011   2.675   0.571 -0.5115  0.9386 -2.1438
  126MOL   H12932879   0.925   2.702   0.711 -0.1037 -4.6522 -3.3949
  126MOL   H13032880   0.681   2.826   0.447  1.4022 -1.6440 -1.4246
  126MOL   H13132881   0.671   2.800   0.624  1.3071  1.9060  0.6069
  126MOL   C13232882   0.735   2.626   0.509  0.6110  0.7641  0.0075
  126MOL   C13332883   0.595   2.560   0.489  0.4368  0.4407  0.0391
  126MOL   C13432884   0.523   2.492   0.582 -0.5134 -0.1273 -0.0163
  126MOL   C13532885   0.562   2.474   0.732 -0.2485 -0.1682  0.8016
  126MOL   C13632886   0.385   2.420   0.545  0.7147 -0.1446  0.5941
  126MOL   H13732887   0.796   2.579   0.585  0.8660 -1.3571 -1.4843
  126MOL   H13832888   0.792   2.611   0.418 -0.4989  1.8492 -0.8838
  126MOL   H13932889   0.546   2.570   0.393  0.7336 -1.3937 -0.3240
  126MOL   H14032890   0.563   2.368   0.757 -1.1059 -0.6539 -1.1198
  126MOL   H14132891   0.475   2.503   0.791  0.0143  0.3588  0.9397
  126MOL   H14232892   0.650   2.522   0.774  0.1060  0.0154 -0.1356
  126MOL   H14332893   0.339   2.466   0.457  1.4899 -0.0502  0.2381
  126MOL   H14432894   0.312   2.431   0.626  0.0897  1.4890 -0.1674
  126MOL   C14532895   0.416   2.272   0.518  0.1391 -0.3621 -0.5994
  126MOL   C14632896   0.480   2.253   0.384 -0.2774  0.0778 -0.4873
  126MOL   C14732897   0.424   2.221   0.267  0.7244  0.7648  0.0329
  126MOL   C14832898   0.273   2.205   0.252  0.4902 -0.2120 -0.1809
  126MOL   C14932899   0.508   2.185   0.143 -0.3514 -0.1571  0.4379
  126MOL   H15032900   0.324   2.213   0.521 -1.4912  2.1049 -0.9511
  126MOL   H15132901   0.476   2.234   0.600  0.4130 -0.3500 -0.7939
  126MOL   H15232902   0.585   2.273   0.400 -0.2608 -0.8052  0.5912
  126MOL   H15332903   0.234   2.120   0.308 -0.1192  0.4324  0.3931
  126MOL   H15432904   0.231   2.221   0.153 -0.0779  2.9972  0.5135
  126MOL   H15532905   0.237   2.294   0.304  0.9151 -0.4179  0.4811
  126MOL   H15632906   0.605   2.234   0.145 -1.0577  1.2636  0.0440
  126MOL   H15732907   0.465   2.229   0.053  1.2517 -0.5807 -0.5690
  126MOL   C15832908   0.517   2.030   0.131  0.3268 -0.6339  0.5499
  126MOL   C15932909   0.649   1.992   0.063 -0.0394 -0.1740 -0.2100
  126MOL   C16032910   0.724   1.883   0.082 -0.4852 -0.3276  0.2491
  126MOL   C16132911   0.677   1.769   0.177 -0.5234  0.4376  0.0677
  126MOL   C16232912   0.841   1.844   7.873 -0.1517  0.0845  0.2550
  126MOL   H16332913   0.429   2.003   0.072 -0.4589  0.9429  0.9539
  126MOL   H16432914   0.509   1.983   0.229  1.7799 -3.1713 -0.5135
  126MOL   H16532915   0.669   2.053   7.859  0.5455  0.1288  0.1383
  126MOL   H16632916   0.643   1.819   0.269 -0.3992 -0.1305  0.4213
  126MOL   H16732917   0.761   1.708   0.210 -0.4485  0.6403  0.2546
  126MOL   H16832918   0.586   1.720   0.142 -1.2652  2.3225 -0.7280
  126MOL   H16932919   0.838   1.911   7.787 -3.8135  0.2781  0.4729
  126MOL   H17032920   0.837   1.739   7.844 -2.3542  0.0725  0.5128
  126MOL   C17132921   0.975   1.854   0.063 -0.6605  0.4414  0.4416
  126MOL   C17232922   1.095   1.841   7.856  0.3232  0.3929  0.1508
  126MOL   C17332923   1.206   1.911   7.853 -0.7926 -1.3455 -0.3899
  126MOL   C17432924   1.233   2.021   0.069  0.3071 -0.1348 -0.4330
  126MOL   C17532925   1.305   1.899   7.742 -0.5535  0.0952  0.5815
  126MOL   H17632926   0.986   1.780   0.142 -1.7061  0.2377  0.3983
  126MOL   H17732927   0.974   1.953   0.110 -1.5620  0.9191 -0.5870
  126MOL   H17832928   1.095   1.765   7.779 -0.8576 -0.0912  0.6175
  126MOL   H17932929   1.187   2.015   0.168 -1.0929  0.5301 -1.0357
  126MOL   H18032930   1.234   2.121   0.027 -0.5767  0.6065  1.2800
  126MOL   H18132931   1.338   2.000   0.090  0.0609  0.7436  1.7528
  126MOL   H18232932   1.298   1.799   7.699 -1.2294  0.6716 -0.6615
  126MOL   H18332933   1.398   1.892   7.799  0.0353 -2.1207 -0.5958
  126MOL   C18432934   1.297   1.999   7.626 -0.4855  0.8129 -0.4386
  126MOL   C18532935   1.417   1.977   7.538 -0.7380 -0.0799  1.0706
  126MOL   C18632936   1.414   1.948   7.407 -0.3262 -0.0710  0.1129
  126MOL   C18732937   1.282   1.934   7.327 -0.0512  0.1799  0.0340
  126MOL   C18832938   1.547   1.932   7.324 -0.1492  0.3209 -0.1504
  126MOL   H18932939   1.315   2.098   7.668 -0.7207  0.4211  0.6021
  126MOL   H19032940   1.199   2.013   7.581 -0.7995  0.6346  0.1858
  126MOL   H19132941   1.515   1.979   7.585 -0.7519  2.9849  1.0321
  126MOL   H19232942   1.300   1.860   7.249 -0.8928  0.4309 -0.4018
  126MOL   H19332943   1.251   2.029   7.285  0.2649  0.1870 -0.1864
  126MOL   H19432944   1.208   1.891   7.395 -0.0782  0.2668  0.0596
  126MOL   H19532945   1.623   1.992   7.374  2.5582 -2.0700 -1.2864
  126MOL   H19632946   1.535   1.991   7.233  0.4095  2.0441  0.8591
  126MOL   C19732947   1.599   1.790   7.301  0.1239 -0.1758 -0.0670
  126MOL   C19832948   1.681   1.745   7.426 -0.2179  0.1457 -0.0632
  126MOL   C19932949   1.668   1.632   7.504 -0.3757  0.4813 -0.1356
  126MOL   C20032950   1.554   1.527   7.496 -0.0224 -0.3930  0.1873
  126MOL   C20132951   1.764   1.610   7.622 -0.4892 -0.1635 -0.3104
  126MOL   H20232952   1.658   1.789   7.209  1.4093 -2.8430  0.7307
  126MOL   H20332953   1.509   1.737   7.270 -0.9409  2.6765 -2.0349
  126MOL   H20432954   1.761   1.814   7.446 -1.3865  2.3513 -2.6654
  126MOL   H20532955   1.484   1.548   7.415  1.1836  0.0859 -0.7619
  126MOL   H20632956   1.497   1.524   7.589 -0.8592  1.5964 -0.2279
  126MOL   H20732957   1.591   1.425   7.496  0.0811 -0.3868 -2.2495
  126MOL   H20832958   1.845   1.683   7.619  0.4375 -1.2052 -1.4985
  126MOL   H20932959   1.817   1.515   7.624 -3.5348 -1.9219 -0.5195
  126MOL   C21032960   1.698   1.666   7.746  1.1956  0.0089 -0.1979
  126MOL   C21132961   1.775   1.646   7.871  0.0911 -0.9771 -0.1356
  126MOL   C21232962   1.811   1.735   0.077 -0.3337  0.6245  0.1447
  126MOL   C21332963   1.761   1.882   0.076  0.3597  0.2381  0.0119
  126MOL   C21432964   1.918   1.717   0.180 -1.0191  0.5870  0.1201
  126MOL   H21532965   1.608   1.609   7.768  0.7079  0.6049 -0.6485
  126MOL   H21632966   1.654   1.762   7.720 -0.8371 -0.5765  1.0247
  126MOL   H21732967   1.820   1.547   7.870  1.4788 -0.3694  0.6302
  126MOL   H21832968   1.732   1.906   0.178  2.7118 -0.1703  0.8182
  126MOL   H21932969   1.668   1.895   0.021  0.2248 -2.1622 -0.3956
  126MOL   H22032970   1.820   1.955   0.021 -1.2590  1.7959  0.3038
  126MOL   H22132971   1.871   1.752   0.272  0.5442  0.2945  1.0497
  126MOL   H22232972   1.997   1.785   0.148 -0.6902 -0.2954 -0.9789
  126MOL   C22332973   1.977   1.579   0.193  0.8532 -0.2679  0.9139
  126MOL   C22432974   2.064   1.562   0.317  0.6039 -0.0924 -0.0265
  126MOL   C22532975   2.156   1.466   0.339  0.2976 -0.7640 -0.5158
  126MOL   C22632976   2.213   1.379   0.229 -0.5769 -0.0727 -0.3483
  126MOL   C22732977   2.241   1.469   0.469 -0.3899 -0.1493 -0.0139
  126MOL   H22832978   2.029   1.560   0.099 -2.6467  0.6119 -1.2989
  126MOL   H22932979   1.899   1.503   0.208  1.1607 -0.4468  1.6359
  126MOL   H23032980   2.041   1.641   0.387 -0.6217  1.0520 -1.6913
  126MOL   H23132981   2.303   1.324   0.256 -0.6668  0.4632  1.1194
  126MOL   H23232982   2.229   1.444   0.143  1.8215 -1.5754 -1.0698
  126MOL   H23332983   2.133   1.309   0.206  0.7529 -1.6016 -0.3409
  126MOL   H23432984   2.187   1.540   0.532 -0.9936  0.7909 -1.5790
  126MOL   H23532985   2.343   1.505   0.455 -0.6683 -0.3887 -2.7646
  126MOL   C23632986   2.236   1.340   0.544 -0.1424 -0.3244 -0.2367
  126MOL   C23732987   2.246   1.363   0.691  0.1005 -0.2072 -0.8436
  126MOL   C23832988   2.363   1.374   0.758 -0.4380 -0.7574  0.3670
  126MOL   C23932989   2.500   1.381   0.679  0.1213  0.6803 -0.1140
  126MOL   C24032990   2.362   1.391   0.907 -0.4186  0.4090  0.0136
  126MOL   H24132991   2.327   1.287   0.516  0.0542  0.6954 -1.5489
  126MOL   H24232992   2.152   1.272   0.526  1.4113 -1.9548 -1.5142
  126MOL   H24332993   2.151   1.363   0.742 -0.1336 -2.5601 -1.2477
  126MOL   H24432994   2.497   1.454   0.599  0.4501  0.1348 -0.6343
  126MOL   H24532995   2.520   1.284   0.633 -0.6807 -0.6341  2.2469
  126MOL   H24632996   2.579   1.423   0.741  2.2151  0.4340 -2.4969
  126MOL   H24732997   2.259   1.388   0.943  0.1224 -2.4225  1.4973
  126MOL   H24832998   2.399   1.492   0.928  1.0452  0.0357 -0.7056
  126MOL   C24932999   2.455   1.293   0.977 -0.2634 -0.2760  0.0162
  126MOL   C25033000   2.449   1.324   1.127 -0.2128 -0.2795 -0.7277
  126MOL   C25133001   2.349   1.287   1.211 -0.3370 -0.4283  0.4360
  126MOL   C25233002   2.221   1.223   1.162  0.4731 -0.5511  0.3673
  126MOL   C25333003   2.346   1.337   1.350  0.3509  0.5292 -0.6649
  126MOL   H25433004   2.557   1.297   0.939 -0.2465 -2.2403 -0.1540
  126MOL   H25533005   2.426   1.191   0.955  2.0353 -1.0410  0.4189
  126MOL   H25633006   2.528   1.387   1.165  0.5333 -0.0890 -2.5649
  126MOL   H25733007   2.221   1.121   1.202  0.1023 -0.4442  0.6421
  126MOL   H25833008   2.226   1.193   1.057 -0.0560  0.5776  0.0167
  126MOL   H25933009   2.132   1.281   1.183  0.6639 -0.7341  1.7592
  126MOL   H26033010   2.441   1.387   1.369 -0.6077  1.6851  1.1337
  126MOL   H26133011   2.317   1.265   1.426 -0.4755  1.1100 -0.4363
  126MOL   H26233012   2.268   1.409   1.373  0.4735  0.5020 -0.1583
  127MOL     C133013   7.059   0.457   5.138  0.1276 -0.0846 -0.4686
  127MOL     C233014   6.959   0.570   5.100 -0.0911  1.0112 -0.5612
  127MOL     C333015   6.968   0.701   5.137  0.1509  0.0468  0.2614
  127MOL     C433016   7.091   0.771   5.199  0.1229 -0.0286  0.7975
  127MOL     C533017   6.856   0.805   5.118 -0.1216  0.0989  0.2794
  127MOL     H633018   7.079   0.456   5.245  0.1936  0.4847 -0.4719
  127MOL     H733019   7.010   0.365   5.107  1.2578 -0.5450 -0.8951
  127MOL     H833020   6.868   0.533   5.057  1.2965 -1.0733 -1.7699
  127MOL     H933021   7.069   0.814   5.297  1.9540  1.0573  0.7557
  127MOL    H1033022   7.099   0.856   5.131 -2.0817 -1.0619 -0.8225
  127MOL    H1133023   7.184   0.714   5.203  0.4691  0.5611  1.1170
  127MOL    H1233024   6.888   0.889   5.056 -0.8053  0.2231  0.0921
  127MOL    H1333025   6.851   0.849   5.218  1.8967 -1.3033  1.0185
  127MOL    H1433026   7.155   0.472   5.090 -1.3867  2.4763 -2.9200
  127MOL    C1533027   6.715   0.760   5.073 -0.4252 -0.4130 -0.2204
  127MOL    C1633028   6.613   0.870   5.061  0.2632 -0.5120 -0.1649
  127MOL    C1733029   6.532   0.907   4.961  0.6884 -0.3521  0.4126
  127MOL    C1833030   6.520   0.828   4.827  0.5034  0.9075  0.1700
  127MOL    C1933031   6.444   1.034   4.967 -0.5334 -0.4000  0.1250
  127MOL    H2033032   6.684   0.685   5.145 -1.5688  0.6633  0.4172
  127MOL    H2133033   6.742   0.716   4.977 -0.9490  2.4137 -1.7313
  127MOL    H2233034   6.620   0.922   5.156  1.3892 -0.9925  0.0233
  127MOL    H2333035   6.424   0.841   4.777  0.3928  0.3907  0.2460
  127MOL    H2433036   6.533   0.720   4.838 -0.5904  0.7030 -0.4681
  127MOL    H2533037   6.595   0.866   4.757  1.5755  0.2779  0.9480
  127MOL    H2633038   6.472   1.086   4.875  3.5454 -1.9139  0.4302
  127MOL    H2733039   6.484   1.099   5.045  1.1027  0.3914 -1.3412
  127MOL    C2833040   6.297   1.009   4.968  0.5261 -0.4761 -0.0636
  127MOL    C2933041   6.230   1.141   4.956  0.1597  0.5394  0.2532
  127MOL    C3033042   6.183   1.216   5.062 -0.6489  0.0678 -0.4308
  127MOL    C3133043   6.171   1.174   5.207  0.4134 -0.4591  0.2221
  127MOL    C3233044   6.106   1.348   5.030  0.2623  0.1279  0.6517
  127MOL    H3333045   6.260   0.956   5.056 -0.0645  0.7930  0.4704
  127MOL    H3433046   6.259   0.937   4.895 -2.3428 -0.3398  1.2248
  127MOL    H3533047   6.228   1.185   4.857 -0.3429  0.9105  0.4251
  127MOL    H3633048   6.244   1.095   5.230  0.8677 -0.7855 -2.2126
  127MOL    H3733049   6.067   1.145   5.215 -0.1194  1.0378 -1.2084
  127MOL    H3833050   6.176   1.254   5.281  0.3252  1.8865 -2.2639
  127MOL    H3933051   6.027   1.365   5.104 -0.0355 -1.0204  0.6053
  127MOL    H4033052   6.064   1.358   4.930  0.3139  2.7220  0.8509
  127MOL    C4133053   6.195   1.475   5.037 -0.5379  0.0225  0.0006
  127MOL    C4233054   6.316   1.479   4.944 -0.6630  0.0521 -0.0296
  127MOL    C4333055   6.436   1.537   4.964 -0.2637  0.0074  0.6986
  127MOL    C4433056   6.476   1.619   5.088  0.1257  0.7275 -0.1830
  127MOL    C4533057   6.544   1.533   4.855 -0.7781 -0.3041 -0.2123
  127MOL    H4633058   6.236   1.490   5.137  1.0591 -1.1465 -0.4635
  127MOL    H4733059   6.148   1.568   5.006 -0.5865 -0.1477 -0.4373
  127MOL    H4833060   6.303   1.428   4.850  1.1349  2.1414 -1.4769
  127MOL    H4933061   6.409   1.609   5.174  0.3019  0.0274 -0.1318
  127MOL    H5033062   6.463   1.728   5.082 -1.8502  0.6221  1.4745
  127MOL    H5133063   6.576   1.589   5.118 -0.3101  0.3414  0.9181
  127MOL    H5233064   6.564   1.640   4.842 -0.0544 -0.6468 -2.0906
  127MOL    H5333065   6.512   1.495   4.758  0.1067 -3.0625  0.5415
  127MOL    C5433066   6.675   1.448   4.895 -0.1865 -0.4337  0.1153
  127MOL    C5533067   6.792   1.487   4.801 -0.3707  0.4295 -0.0584
  127MOL    C5633068   6.905   1.557   4.829 -0.3620  0.9632 -0.1938
  127MOL    C5733069   6.937   1.592   4.968  0.0121 -0.5475 -0.4383
  127MOL    C5833070   7.012   1.598   4.726 -0.7096 -0.4352  0.2572
  127MOL    H5933071   6.655   1.342   4.877  0.1037 -0.5798  0.6459
  127MOL    H6033072   6.697   1.468   5.000  1.0632 -0.1790 -0.1789
  127MOL    H6133073   6.779   1.453   4.700 -0.0733  0.2525 -0.0392
  127MOL    H6233074   6.969   1.501   5.019 -0.9956 -0.6202  0.0784
  127MOL    H6333075   6.850   1.615   5.029  1.6893 -0.9313  2.1660
  127MOL    H6433076   7.001   1.679   4.986  0.2604 -0.5042 -1.4821
  127MOL    H6533077   7.104   1.576   4.779  0.3883 -0.4340 -1.6139
  127MOL    H6633078   6.989   1.704   4.716 -2.1384 -0.8388 -0.9794
  127MOL    C6733079   7.007   1.543   4.581 -0.7097  0.2159  0.3222
  127MOL    C6833080   7.112   1.602   4.487 -1.1292  0.3373 -0.1211
  127MOL    C6933081   7.246   1.574   4.495  0.2065 -0.2468  0.6200
  127MOL    C7033082   7.305   1.485   4.592 -0.2862 -0.0434  0.3203
  127MOL    C7133083   7.343   1.640   4.392 -0.6399 -0.3780 -0.9933
  127MOL    H7233084   6.909   1.557   4.535 -1.5980 -1.5635  1.6284
  127MOL    H7333085   7.024   1.436   4.586 -1.8683  0.0248  0.2216
  127MOL    H7433086   7.087   1.683   4.421  3.3044  2.5900  0.7589
  127MOL    H7533087   7.339   1.545   4.676  0.5671 -0.7683  0.4990
  127MOL    H7633088   7.379   1.423   4.540 -1.1071  0.4458 -1.4704
  127MOL    H7733089   7.239   1.409   4.633 -0.7448 -0.2839 -0.8342
  127MOL    H7833090   7.293   1.723   4.343  1.3824  0.8524 -1.0015
  127MOL    H7933091   7.373   1.566   4.317  1.6763 -0.9707  0.5004
  127MOL    C8033092   7.485   1.695   4.454 -0.1562 -0.1233 -0.2708
  127MOL    C8133093   7.571   1.741   4.340  0.1929  0.0173  0.4701
  127MOL    C8233094   7.605   1.867   4.315 -0.3829 -0.4464 -0.3280
  127MOL    C8333095   7.557   1.987   4.397  0.1397  1.1370 -0.0520
  127MOL    C8433096   7.697   1.882   4.193  0.0574 -0.6745  0.1432
  127MOL    H8533097   7.540   1.605   4.481  1.4117  0.2576 -2.0844
  127MOL    H8633098   7.476   1.773   4.530 -1.3175 -0.2368 -0.2837
  127MOL    H8733099   7.606   1.661   4.276  1.0309  1.5543 -1.0260
  127MOL    H8833100   7.565   2.079   4.338 -0.7068  1.2403 -0.0115
  127MOL    H8933101   7.613   1.997   4.490 -1.6017 -3.3651  1.5636
  127MOL    H9033102   7.450   1.984   4.414  0.0312  0.3721 -0.8457
  127MOL    H9133103   7.748   1.786   4.182 -1.4335 -1.3340 -1.1144
  127MOL    H9233104   7.779   1.948   4.224  1.6386 -3.7739  2.8579
  127MOL    C9333105   7.629   1.935   4.066  0.0471 -0.2073  0.8835
  127MOL    C9433106   7.649   2.080   4.045  0.7120  0.3441  0.0612
  127MOL    C9533107   7.576   2.151   3.959 -0.4230  0.7610  0.0246
  127MOL    C9633108   7.463   2.096   3.869 -0.4703 -0.1154 -0.2858
  127MOL    C9733109   7.603   2.302   3.955 -0.2766 -0.4786  0.1333
  127MOL    H9833110   7.523   1.912   4.066  0.8498 -4.1957  1.9467
  127MOL    H9933111   7.671   1.877   3.984 -2.5015 -0.7759 -0.0493
  127MOL   H10033112   7.722   2.127   4.110  0.2966  5.0984 -2.6940
  127MOL   H10133113   7.482   2.134   3.768 -2.2384  3.2542  0.5633
  127MOL   H10233114   7.369   2.141   3.903 -0.4681 -0.3377  0.0119
  127MOL   H10333115   7.460   1.987   3.873 -3.0750 -0.1291 -1.4683
  127MOL   H10433116   7.652   2.335   4.047 -0.6351 -0.6109  0.3747
  127MOL   H10533117   7.503   2.346   3.955 -0.0695 -0.0062 -0.6385
  127MOL   C10633118   7.684   2.343   3.840 -0.0168  0.0895  1.0819
  127MOL   C10733119   7.710   2.494   3.843 -0.4237 -1.1999 -0.3913
  127MOL   C10833120   7.710   2.588   3.753 -0.3691  0.7269 -0.5663
  127MOL   C10933121   7.680   2.558   3.615 -0.0950  0.0105  0.3479
  127MOL   C11033122   7.735   2.740   3.782 -0.1226  0.3660  1.0341
  127MOL   H11133123   7.619   2.324   3.755  0.8019 -3.8005  1.2270
  127MOL   H11233124   7.768   2.276   3.821 -2.4844 -2.3637 -1.6937
  127MOL   H11333125   7.746   2.525   3.940  1.2143  0.5903 -1.5408
  127MOL   H11433126   7.734   2.626   3.549  0.4467 -0.3525  0.4143
  127MOL   H11533127   7.578   2.571   3.577  1.4438  3.3959 -3.0127
  127MOL   H11633128   7.719   2.461   3.587 -1.1917 -0.5880  0.8533
  127MOL   H11733129   7.720   2.765   3.887 -1.5607  1.7701  0.5192
  127MOL   H11833130   7.663   2.802   3.728 -0.1654 -0.8271 -0.3144
  127MOL   C11933131   7.871   2.787   3.730  0.1096 -0.4363  0.4934
  127MOL   C12033132   0.024   2.919   3.803 -0.4221  0.4571  0.3230
  127MOL   C12133133   0.151   2.947   3.837  0.0147 -0.1818 -0.5491
  127MOL   C12233134   0.265   2.850   3.810  0.0966  0.1300 -0.0334
  127MOL   C12333135   0.178   3.076   3.920  0.1332 -0.0689  0.5398
  127MOL   H12433136   7.872   2.800   3.621 -2.1857 -1.2753  0.3421
  127MOL   H12533137   0.065   2.712   3.748 -0.8672 -1.6727 -0.3412
  127MOL   H12633138   7.828   2.984   3.838 -0.2156  0.8843  0.0032
  127MOL   H12733139   0.259   2.769   3.736  2.6599  0.2139 -0.3766
  127MOL   H12833140   0.287   2.802   3.905 -0.6786 -1.6228 -0.7052
  127MOL   H12933141   0.355   2.898   3.772  0.0025 -0.3051 -0.8318
  127MOL   H13033142   0.099   3.149   3.900  1.2656  1.0568  0.0929
  127MOL   H13133143   0.268   3.114   3.871 -0.4895 -0.5191 -1.0037
  127MOL   C13233144   0.202   3.056   4.067 -0.3982  0.6072 -0.0542
  127MOL   C13333145   0.196   3.182   4.156 -0.1663 -0.3187 -0.1635
  127MOL   C13433146   0.087   3.247   4.207  0.6982  0.2892 -0.5457
  127MOL   C13533147   7.830   3.199   4.168  0.5884 -0.0574 -0.0877
  127MOL   C13633148   0.103   3.355   4.312  0.0563 -0.1732 -0.3206
  127MOL   H13733149   0.299   3.006   4.075 -1.9736 -2.4427  0.6300
  127MOL   H13833150   0.134   2.980   4.104 -0.4226  0.9242  0.5544
  127MOL   H13933151   0.289   3.210   4.203 -1.0064  0.6371  0.9615
  127MOL   H14033152   7.820   3.155   4.069 -1.9920 -0.7123  0.4268
  127MOL   H14133153   7.754   3.277   4.171  2.2306  1.5943  0.0638
  127MOL   H14233154   7.802   3.130   4.248 -3.7201  2.1981  0.4875
  127MOL   H14333155   0.048   3.448   4.302 -1.3217 -0.9628 -0.2898
  127MOL   H14433156   0.204   3.394   4.301  0.2148 -0.6626 -0.6419
  127MOL   C14533157   0.077   3.300   4.454  0.1248  0.1350  0.4207
  127MOL   C14633158   0.131   3.401   4.554  0.1106 -0.5095  0.2967
  127MOL   C14733159   0.080   3.426   4.672  0.0618  0.2189 -0.0850
  127MOL   C14833160   7.835   3.353   4.722  0.2698 -0.3821  0.9491
  127MOL   C14933161   0.132   3.539   4.764 -0.1251 -0.0671  0.3010
  127MOL   H15033162   0.127   3.203   4.464  2.6506  1.3407 -0.1872
  127MOL   H15133163   7.853   3.288   4.468 -0.3746  2.6241 -1.0135
  127MOL   H15233164   0.221   3.452   4.520 -0.0128 -0.5229 -0.0531
  127MOL   H15333165   7.748   3.415   4.740  0.3730  0.0428 -0.0096
  127MOL   H15433166   7.847   3.309   4.821  0.4406 -0.3058  0.9630
  127MOL   H15533167   7.808   3.268   4.659  0.6743 -1.2926  1.9727
  127MOL   H15633168   0.228   3.577   4.729 -0.8076  2.3732  0.9809
  127MOL   H15733169   0.149   3.488   4.858  0.3835  2.3690  1.5731
  127MOL   C15833170   0.021   3.652   4.778 -0.0882  0.0438 -0.0535
  127MOL   C15933171   7.838   3.695   4.647  0.5636 -0.5935 -0.7419
  127MOL   C16033172   7.863   3.802   4.566  0.2383  0.6362 -0.1981
  127MOL   C16133173   0.099   3.891   4.601 -0.7440  0.1173  0.5212
  127MOL   C16233174   7.784   3.839   4.442  0.7163 -0.7533 -0.1555
  127MOL   H16333175   0.055   3.738   4.836  1.6754 -1.7090  1.5672
  127MOL   H16433176   7.811   3.622   4.827  0.5698 -0.9985  0.5504
  127MOL   H16533177   7.753   3.633   4.620 -0.7194  0.2102  1.3013
  127MOL   H16633178   0.072   3.986   4.648  2.5519  0.0703  2.6577
  127MOL   H16733179   0.145   3.911   4.504  2.7587 -1.1489  1.8392
  127MOL   H16833180   0.170   3.838   4.664 -0.2776 -1.2864 -1.1691
  127MOL   H16933181   7.765   3.946   4.446 -1.2452 -1.1592  2.5811
  127MOL   H17033182   7.687   3.788   4.442  0.5729 -0.5223 -1.9793
  127MOL   C17133183   7.854   3.809   4.305 -0.5408  0.4539 -0.4033
  127MOL   C17233184   7.780   3.865   4.186  0.5983 -0.3709  0.5020
  127MOL   C17333185   7.808   3.978   4.121 -0.5101  0.1462 -0.7308
  127MOL   C17433186   0.037   4.073   4.163 -0.3156  0.3428 -0.8376
  127MOL   C17533187   7.732   4.015   4.003  0.2315 -0.8555  0.8316
  127MOL   H17633188   7.861   3.701   4.293  2.1954  0.2643  2.2577
  127MOL   H17733189   0.074   3.846   4.315 -0.5732 -0.3300  4.2162
  127MOL   H17833190   7.698   3.807   4.147  2.4204 -1.5193 -1.7107
  127MOL   H17933191   0.007   4.130   4.250  0.2855 -1.0616  0.3088
  127MOL   H18033192   0.076   4.131   4.080 -0.5546 -1.7610 -2.4680
  127MOL   H18133193   0.123   4.017   4.198 -0.7461 -0.0457 -0.4039
  127MOL   H18233194   7.715   4.122   3.993 -1.9767 -1.3710 -1.5958
  127MOL   H18333195   7.633   3.971   3.991 -0.1018 -0.7439  2.9910
  127MOL   C18433196   7.814   3.968   3.877 -0.2882  0.5169 -0.2210
  127MOL   C18533197   7.739   4.005   3.752  0.1404 -0.0153 -0.5720
  127MOL   C18633198   7.761   4.110   3.669 -0.6941  0.2781 -0.3933
  127MOL   C18733199   7.881   4.204   3.680 -0.4575 -0.2591  0.4167
  127MOL   C18833200   7.661   4.143   3.556 -0.2679  0.4815 -0.8543
  127MOL   H18933201   7.832   3.861   3.890 -1.9323  0.4898  2.1498
  127MOL   H19033202   0.029   4.016   3.872 -1.1618  2.3741  0.1783
  127MOL   H19133203   7.649   3.946   3.746 -0.8750  1.1761  2.0609
  127MOL   H19233204   0.028   4.235   3.780 -0.7136  0.3993  0.2962
  127MOL   H19333205   7.858   4.295   3.624 -1.0930 -1.2021 -0.8889
  127MOL   H19433206   0.078   4.154   3.624  0.0730  1.7864 -0.7591
  127MOL   H19533207   7.709   4.185   3.468 -0.8303 -1.2188 -2.0048
  127MOL   H19633208   7.591   4.221   3.586  0.3637  0.7952 -0.1817
  127MOL   C19733209   7.577   4.029   3.512 -0.1789 -0.3882  0.3606
  127MOL   C19833210   7.518   4.053   3.377  0.0003  1.1256  0.0387
  127MOL   C19933211   7.384   4.077   3.350 -0.6799 -0.0350 -0.2219
  127MOL   C20033212   7.287   4.123   3.458 -0.1314 -0.3342  0.5408
  127MOL   C20133213   7.328   4.077   3.214  0.6963  0.2079  0.5702
  127MOL   H20233214   7.505   4.004   3.590  0.0706 -1.1847  0.3315
  127MOL   H20333215   7.648   3.948   3.499  0.5476 -0.1055  2.4133
  127MOL   H20433216   7.578   4.023   3.293  1.4805  0.3817  1.3368
  127MOL   H20533217   7.344   4.147   3.548  1.2706 -0.1741 -0.3637
  127MOL   H20633218   7.213   4.048   3.487 -0.0791 -0.3334  0.6780
  127MOL   H20733219   7.239   4.216   3.427  0.9834  0.7317  1.9452
  127MOL   H20833220   7.418   4.076   3.152  0.7651  2.5273  0.5867
  127MOL   H20933221   7.273   4.169   3.196 -2.5093 -1.9933 -1.4542
  127MOL   C21033222   7.225   3.958   3.192 -0.3252 -0.5253  0.0196
  127MOL   C21133223   7.079   3.995   3.233  0.1124 -0.6834  0.2404
  127MOL   C21233224   6.992   3.918   3.289  0.2615 -0.1139 -0.1478
  127MOL   C21333225   7.024   3.775   3.315 -0.0004 -0.2180  0.2873
  127MOL   C21433226   6.859   3.968   3.327  0.4629  0.0302  0.0043
  127MOL   H21533227   7.256   3.860   3.229 -0.0245  0.2449  1.8601
  127MOL   H21633228   7.220   3.933   3.086  0.6861 -1.6634  0.2250
  127MOL   H21733229   7.054   4.096   3.206 -0.3726 -0.5651  1.1131
  127MOL   H21833230   7.057   3.748   3.415  0.3529 -0.9758 -0.0360
  127MOL   H21933231   7.084   3.732   3.236  0.4612  2.9230 -1.1246
  127MOL   H22033232   6.934   3.714   3.306 -1.3314  0.9271  4.4410
  127MOL   H22133233   6.839   4.067   3.285  0.3986 -0.5605 -1.3635
  127MOL   H22233234   6.854   3.973   3.436 -0.2809 -0.6737  0.0021
  127MOL   C22333235   6.742   3.876   3.277 -0.3403  0.0842 -0.2110
  127MOL   C22433236   6.607   3.947   3.256  0.9953  0.7081 -0.1498
  127MOL   C22533237   6.525   3.990   3.355  0.1822  0.2087 -0.3580
  127MOL   C22633238   6.552   3.995   3.505  0.6193 -1.1488  0.0357
  127MOL   C22733239   6.390   4.049   3.314  0.4054  0.9432 -0.5853
  127MOL   H22833240   6.725   3.789   3.341  0.8471  0.9591  1.3230
  127MOL   H22933241   6.775   3.827   3.185  1.4569  0.1938  0.3553
  127MOL   H23033242   6.570   3.955   3.155 -2.1990  0.8661  0.9653
  127MOL   H23133243   6.470   3.964   3.570  0.8934  2.5504  2.3084
  127MOL   H23233244   6.586   4.092   3.541  0.5617 -0.9556 -0.4238
  127MOL   H23333245   6.631   3.925   3.532  1.1541 -1.0926 -1.3552
  127MOL   H23433246   6.352   4.116   3.392  1.4209  0.5591  0.2563
  127MOL   H23533247   6.315   3.971   3.317  0.4541  0.8995 -0.5212
  127MOL   C23633248   6.390   4.120   3.182  0.2537 -0.3443 -0.1706
  127MOL   C23733249   6.267   4.211   3.159  0.1588  0.5666  0.2131
  127MOL   C23833250   6.260   4.334   3.104  0.4362 -0.1770  1.2658
  127MOL   C23933251   6.377   4.416   3.046 -0.6312 -0.5560  0.3811
  127MOL   C24033252   6.122   4.402   3.086 -0.3739 -0.1879 -0.2963
  127MOL   H24133253   6.385   4.042   3.106  0.9872  0.1857 -0.7792
  127MOL   H24233254   6.484   4.174   3.166 -0.7057  1.0675 -1.2350
  127MOL   H24333255   6.173   4.166   3.187  0.5877 -1.9514 -2.1839
  127MOL   H24433256   6.350   4.458   2.949 -1.5542 -1.6444  0.1557
  127MOL   H24533257   6.465   4.354   3.031 -0.8820 -1.6021  2.9351
  127MOL   H24633258   6.387   4.497   3.117 -1.1906 -0.1814  0.0380
  127MOL   H24733259   6.046   4.332   3.119  1.2339 -2.2284 -0.8441
  127MOL   H24833260   6.101   4.429   2.983 -0.2541 -0.1951 -0.3221
  127MOL   C24933261   6.094   4.520   3.176 -0.2625  0.3886  0.4291
  127MOL   C25033262   5.946   4.562   3.167  0.5287 -0.3695 -0.2610
  127MOL   C25133263   5.847   4.526   3.251  0.2358 -0.5583 -0.3877
  127MOL   C25233264   5.873   4.450   3.386  0.3133 -0.6112  0.2480
  127MOL   C25333265   5.705   4.557   3.228  0.5535 -0.5117 -0.5060
  127MOL   H25433266   6.157   4.607   3.156 -0.3215 -0.4018 -3.6217
  127MOL   H25533267   6.108   4.502   3.283 -3.5178  2.2485  1.2449
  127MOL   H25633268   5.911   4.605   3.074  1.2278 -0.5191 -0.5992
  127MOL   H25733269   5.777   4.415   3.424 -0.2248  0.5748  0.0023
  127MOL   H25833270   5.906   4.526   3.456  1.4196 -1.1728  0.3514
  127MOL   H25933271   5.950   4.372   3.387  1.1292  0.1820  1.6487
  127MOL   H26033272   5.660   4.618   3.306  1.3664  2.1541 -2.0596
  127MOL   H26133273   5.648   4.465   3.213  0.9673 -0.8539  0.0209
  127MOL   H26233274   5.701   4.612   3.134 -0.5378 -0.6747 -0.5655
  128MOL     C133275   5.340   3.902   4.012  0.5349 -0.1077  0.1040
  128MOL     C233276   5.224   3.804   4.032 -0.2441 -0.0159  0.3838
  128MOL     C333277   5.101   3.820   3.981  0.2710 -0.0539  0.3054
  128MOL     C433278   5.067   3.925   3.888  0.0415 -0.1355  0.1609
  128MOL     C533279   4.989   3.731   4.020 -0.4672  0.2252  0.3226
  128MOL     H633280   5.344   3.922   3.905  0.4714 -0.5768  0.0117
  128MOL     H733281   5.347   3.992   4.073 -1.6587 -0.8226  1.4571
  128MOL     H833282   5.241   3.726   4.105 -1.3850 -1.2618 -0.6548
  128MOL     H933283   5.076   4.021   3.939  3.3552 -0.1646 -0.2910
  128MOL    H1033284   4.971   3.922   3.835  0.3514 -0.3191 -0.3887
  128MOL    H1133285   5.149   3.932   3.817 -0.3583 -1.1499 -0.4133
  128MOL    H1233286   5.034   3.658   4.088 -0.1662  0.3439  0.2537
  128MOL    H1333287   4.940   3.693   3.931 -0.6017 -1.3177  1.0532
  128MOL    H1433288   5.432   3.845   4.025  0.2286 -0.8463 -0.9147
  128MOL    C1533289   4.886   3.806   4.098 -0.3080 -0.1987  0.5359
  128MOL    C1633290   4.753   3.728   4.109  0.3389 -0.2312  0.4382
  128MOL    C1733291   4.690   3.698   4.221  0.6075 -0.4547  0.2878
  128MOL    C1833292   4.745   3.741   4.355 -0.7376 -0.6223  0.0716
  128MOL    C1933293   4.559   3.623   4.212  0.5249  0.2974  0.5768
  128MOL    H2033294   4.863   3.903   4.054  0.4247 -0.1532  0.2449
  128MOL    H2133295   4.926   3.850   4.190  1.6083 -1.1784  0.1795
  128MOL    H2233296   4.719   3.685   4.016  0.1110 -0.1599  0.4890
  128MOL    H2333297   4.661   3.722   4.422 -2.2497 -0.1054 -1.6437
  128MOL    H2433298   4.754   3.849   4.365 -0.5817 -0.6709  0.4679
  128MOL    H2533299   4.833   3.686   4.388 -0.3415 -0.5688 -0.8829
  128MOL    H2633300   4.513   3.640   4.115 -0.5693  1.6909  1.3042
  128MOL    H2733301   4.485   3.676   4.272 -0.2221  1.1227 -1.0590
  128MOL    C2833302   4.569   3.476   4.238  0.0619  0.3145  0.1506
  128MOL    C2933303   4.445   3.395   4.193  0.4765 -0.6173 -0.2176
  128MOL    C3033304   4.332   3.379   4.269  0.3422 -0.0696 -0.2291
  128MOL    C3133305   4.312   3.448   4.407 -0.4441 -0.0310 -0.0170
  128MOL    C3233306   4.206   3.302   4.223 -0.1164  0.0031  0.2144
  128MOL    H3333307   4.614   3.447   4.333  0.7085  0.0412 -0.2330
  128MOL    H3433308   4.635   3.435   4.161 -1.3532 -1.0879 -0.3494
  128MOL    H3533309   4.447   3.355   4.092 -2.1893 -0.1816 -0.4842
  128MOL    H3633310   4.206   3.461   4.427 -0.4661  0.9426 -0.7546
  128MOL    H3733311   4.372   3.539   4.406 -0.8778  0.4101  3.9053
  128MOL    H3833312   4.352   3.381   4.484 -0.5754 -3.2602 -2.6473
  128MOL    H3933313   4.209   3.282   4.116 -0.5307  0.3555  0.1379
  128MOL    H4033314   4.126   3.370   4.249 -2.1667 -2.3773  0.3151
  128MOL    C4133315   4.191   3.171   4.302 -0.0378  0.0514 -0.0890
  128MOL    C4233316   4.309   3.076   4.305  0.0928 -0.6389  0.1368
  128MOL    C4333317   4.301   2.939   4.285  0.0859  0.2884 -0.2517
  128MOL    C4433318   4.179   2.860   4.267  0.3115 -0.0510 -0.3553
  128MOL    C4533319   4.434   2.859   4.291  0.2456 -0.1923  0.4813
  128MOL    H4633320   4.095   3.126   4.281  0.3990 -0.4267 -1.1083
  128MOL    H4733321   4.176   3.203   4.405  0.7788  0.4334 -0.0787
  128MOL    H4833322   4.407   3.119   4.322 -1.5121  2.9659  0.6566
  128MOL    H4933323   4.086   2.908   4.295  0.1606 -1.0673  0.9276
  128MOL    H5033324   4.184   2.766   4.322 -0.5722  0.4285  0.5576
  128MOL    H5133325   4.168   2.823   4.165 -3.1558 -2.1076  0.6977
  128MOL    H5233326   4.435   2.791   4.376  0.2365 -0.8148 -0.0133
  128MOL    H5333327   4.521   2.920   4.314 -0.0479  1.4555 -2.4697
  128MOL    C5433328   4.467   2.797   4.148 -0.0214 -0.5940 -0.0965
  128MOL    C5533329   4.597   2.714   4.133 -0.2102 -0.5269  0.1637
  128MOL    C5633330   4.702   2.737   4.050 -0.5979 -0.1847 -0.4128
  128MOL    C5733331   4.722   2.863   3.959 -0.3411 -0.6921 -0.0736
  128MOL    C5833332   4.833   2.644   4.050  0.3099 -1.2180 -0.2158
  128MOL    H5933333   4.468   2.876   4.073  0.6787 -1.0152 -0.5487
  128MOL    H6033334   4.380   2.742   4.113 -0.1497  0.1576 -0.9839
  128MOL    H6133335   4.613   2.628   4.197 -0.1508 -1.2117 -0.7470
  128MOL    H6233336   4.628   2.912   3.935  0.3066  0.9288  0.6457
  128MOL    H6333337   4.766   2.834   3.863 -0.4547  1.9409 -0.9683
  128MOL    H6433338   4.793   2.934   4.000  0.0850 -0.1729 -1.6480
  128MOL    H6533339   4.870   2.631   3.948 -2.2263 -3.1963 -0.9626
  128MOL    H6633340   4.812   2.539   4.073 -0.7840 -1.2426 -1.2528
  128MOL    C6733341   4.949   2.701   4.130 -0.1387 -0.2007  0.3324
  128MOL    C6833342   5.074   2.617   4.113  0.0055  0.4148 -0.2405
  128MOL    C6933343   5.147   2.553   4.202 -0.3836  0.7178  0.6423
  128MOL    C7033344   5.122   2.555   4.352  0.0365  0.1925  0.3154
  128MOL    C7133345   5.278   2.478   4.175 -0.4368 -0.3993 -0.2873
  128MOL    H7233346   4.918   2.711   4.234 -0.4616 -2.4018  0.4704
  128MOL    H7333347   4.983   2.796   4.090  0.2361 -1.6109 -2.8369
  128MOL    H7433348   5.105   2.611   4.009 -0.7926  1.8244 -0.5575
  128MOL    H7533349   5.031   2.605   4.387  0.4940  0.3172  1.3512
  128MOL    H7633350   5.208   2.603   4.400  0.1260  0.5466 -0.1958
  128MOL    H7733351   5.116   2.456   4.397 -2.0017 -0.4994 -1.3883
  128MOL    H7833352   5.354   2.506   4.248 -0.0078 -0.6891 -0.6107
  128MOL    H7933353   5.327   2.519   4.086  0.7680 -4.1907 -1.4798
  128MOL    C8033354   5.273   2.324   4.152 -0.1745 -0.0231  0.4463
  128MOL    C8133355   5.302   2.295   4.007 -0.3643 -0.8571  0.2465
  128MOL    C8233356   5.209   2.294   3.911  0.0532 -0.1168 -0.3350
  128MOL    C8333357   5.059   2.314   3.930 -0.4426  0.3147 -0.5418
  128MOL    C8433358   5.250   2.273   3.761  0.1987  1.0874  0.1063
  128MOL    H8533359   5.188   2.269   4.192 -1.7221  1.6276 -0.4711
  128MOL    H8633360   5.358   2.282   4.206 -0.2259  1.4441  1.7143
  128MOL    H8733361   5.403   2.289   3.969 -1.1335  0.3003 -2.0929
  128MOL    H8833362   5.023   2.357   4.024  0.0586 -2.1722  0.8351
  128MOL    H8933363   4.995   2.233   3.894 -1.3575  2.0435 -2.9526
  128MOL    H9033364   5.021   2.399   3.873 -1.4354  0.2026 -0.0678
  128MOL    H9133365   5.193   2.192   3.716  1.0282  0.6847 -0.2266
  128MOL    H9233366   5.357   2.258   3.745 -0.1996  1.4350 -3.2494
  128MOL    C9333367   5.214   2.396   3.679  0.0695  0.3771  0.7774
  128MOL    C9433368   5.288   2.526   3.725  0.1052 -0.3003 -0.4000
  128MOL    C9533369   5.236   2.650   3.751 -0.0972  0.3844 -0.2809
  128MOL    C9633370   5.086   2.680   3.726  0.3960  0.4068  0.3163
  128MOL    C9733371   5.323   2.777   3.780  0.3437 -0.4807  0.4540
  128MOL    H9833372   5.105   2.400   3.669  0.0498  0.7390  1.1625
  128MOL    H9933373   5.248   2.371   3.578 -1.6376 -1.7130  0.6899
  128MOL   H10033374   5.395   2.514   3.732  0.1097 -0.8804 -1.4403
  128MOL   H10133375   5.034   2.585   3.720 -0.8184  0.9596  1.8561
  128MOL   H10233376   5.076   2.739   3.634  0.4765  1.6778  1.1043
  128MOL   H10333377   5.043   2.733   3.811 -0.5457  0.8187 -0.4078
  128MOL   H10433378   5.301   2.850   3.702 -1.2669 -1.4437 -0.0349
  128MOL   H10533379   5.430   2.762   3.776  0.2492 -1.3677  1.2283
  128MOL   C10633380   5.306   2.840   3.915 -0.1950 -0.2066  0.2739
  128MOL   C10733381   5.379   2.981   3.916  0.7884 -0.2092  0.5881
  128MOL   C10833382   5.356   3.083   3.999  0.2868 -0.2089  0.0869
  128MOL   C10933383   5.251   3.076   4.110  0.0880 -0.1198 -0.2167
  128MOL   C11033384   5.422   3.221   3.977 -0.3919 -0.1329 -0.3287
  128MOL   H11133385   5.343   2.785   4.002  0.0575 -0.8514 -0.2396
  128MOL   H11233386   5.199   2.851   3.932 -0.1988  0.4424 -0.1399
  128MOL   H11333387   5.453   2.986   3.838  0.3195 -0.9897  0.0810
  128MOL   H11433388   5.237   2.981   4.163  0.3009  0.1537  0.3344
  128MOL   H11533389   5.151   3.097   4.072 -0.0081 -0.6987 -0.2929
  128MOL   H11633390   5.273   3.156   4.181  0.1035 -0.1248 -0.2163
  128MOL   H11733391   5.494   3.234   4.057 -1.7142 -0.5133  0.9458
  128MOL   H11833392   5.350   3.292   4.019  0.8481  0.1884  1.2978
  128MOL   C11933393   5.477   3.243   3.842  0.0930  0.2363  0.1433
  128MOL   C12033394   5.510   3.384   3.818 -0.5794 -0.8652 -0.7134
  128MOL   C12133395   5.627   3.430   3.773 -0.9155 -0.0549  0.5601
  128MOL   C12233396   5.734   3.329   3.738 -0.6559  0.1102 -0.5472
  128MOL   C12333397   5.662   3.577   3.764  0.5032 -0.0574 -0.2522
  128MOL   H12433398   5.409   3.214   3.762  0.5264  0.3453 -0.2661
  128MOL   H12533399   5.560   3.174   3.827 -0.4943 -0.1461 -1.3876
  128MOL   H12633400   5.429   3.451   3.841 -0.9218 -1.5589  0.1220
  128MOL   H12733401   5.777   3.381   3.652  0.4763 -1.5210 -0.9855
  128MOL   H12833402   5.694   3.234   3.704  1.1322 -0.8876  0.1134
  128MOL   H12933403   5.809   3.321   3.817  0.1730 -0.6040 -1.3996
  128MOL   H13033404   5.574   3.642   3.773  2.0090  2.4475 -2.6565
  128MOL   H13133405   5.694   3.609   3.665  1.6238 -0.2450  0.0455
  128MOL   C13233406   5.760   3.626   3.864  0.2100  0.1908 -0.7660
  128MOL   C13333407   5.745   3.778   3.875 -0.6554  0.2560 -0.3971
  128MOL   C13433408   5.747   3.850   3.992 -0.3124 -0.8293  0.1696
  128MOL   C13533409   5.754   3.787   4.126  0.8419 -0.3460 -0.0611
  128MOL   C13633410   5.753   4.007   3.995 -0.1448  0.5267  0.1795
  128MOL   H13733411   5.861   3.584   3.859  0.9513  1.4959  2.0322
  128MOL   H13833412   5.731   3.588   3.962 -1.9604  1.2895 -0.9644
  128MOL   H13933413   5.727   3.821   3.778 -1.9988 -0.8948 -0.6709
  128MOL   H14033414   5.828   3.848   4.178  1.6335 -1.2464 -0.1027
  128MOL   H14133415   5.794   3.686   4.138  1.1223  0.1392  3.4575
  128MOL   H14233416   5.659   3.790   4.179 -0.3912 -2.9018 -2.0179
  128MOL   H14333417   5.852   4.034   4.033  0.6328  1.8823 -2.7284
  128MOL   H14433418   5.685   4.038   4.075  1.0438 -0.9111  1.8028
  128MOL   C14533419   5.711   4.082   3.876  0.3047  0.3352  0.2512
  128MOL   C14633420   5.660   4.218   3.905  0.0425  0.0677 -0.0206
  128MOL   C14733421   5.696   4.341   3.857  0.4037 -0.3866  0.3136
  128MOL   C14833422   5.796   4.366   3.745 -0.6289  0.2791 -0.8193
  128MOL   C14933423   5.626   4.463   3.907 -0.2543 -0.1459 -0.4346
  128MOL   H15033424   5.620   4.032   3.843 -0.7027  1.8591  0.6912
  128MOL   H15133425   5.779   4.073   3.791  1.8378  1.4966  1.3229
  128MOL   H15233426   5.583   4.215   3.981  0.0503 -0.3789 -0.0268
  128MOL   H15333427   5.871   4.439   3.775  1.2898 -1.4517 -1.2997
  128MOL   H15433428   5.744   4.401   3.656 -2.1571  3.6280  1.2870
  128MOL   H15533429   5.862   4.283   3.719 -0.7191  0.4383 -1.5855
  128MOL   H15633430   5.693   4.534   3.956 -0.1122 -0.8990  0.4907
  128MOL   H15733431   5.560   4.433   3.989  0.8407  1.0292  0.8957
  128MOL   C15833432   5.537   4.529   3.800  0.6705 -0.6189 -0.0187
  128MOL   C15933433   5.508   4.673   3.847  0.7245 -0.2520 -0.2009
  128MOL   C16033434   5.391   4.725   3.899  0.1035  0.4191 -0.4121
  128MOL   C16133435   5.274   4.640   3.940 -0.1646  1.2363  0.3883
  128MOL   C16233436   5.391   4.868   3.949 -0.2157  0.0342  0.1989
  128MOL   H16333437   5.443   4.474   3.795 -0.0335  0.6242 -0.6352
  128MOL   H16433438   5.578   4.535   3.699  2.0722 -2.3697  0.4230
  128MOL   H16533439   5.591   4.737   3.821 -0.3637 -0.2205 -3.8201
  128MOL   H16633440   5.211   4.671   4.023  1.0175  0.0387  1.7667
  128MOL   H16733441   5.316   4.544   3.972 -1.3734  0.4058 -0.4795
  128MOL   H16833442   5.215   4.624   3.850  0.0416 -2.1224  0.7749
  128MOL   H16933443   5.484   4.915   3.919  0.1515 -2.0189 -2.0641
  128MOL   H17033444   5.379   4.873   4.057 -0.5807 -1.8725  0.2635
  128MOL   C17133445   5.272   4.950   3.889  0.1535  0.6990  0.3029
  128MOL   C17233446   5.274   5.091   3.945  0.0595 -1.3188  0.4709
  128MOL   C17333447   5.181   5.178   3.918 -0.0219  0.2355  0.0772
  128MOL   C17433448   5.063   5.145   3.832 -0.1438 -0.2541  0.4281
  128MOL   C17533449   5.187   5.315   3.983 -0.3588  0.8242  0.4842
  128MOL   H17633450   5.176   4.901   3.905 -0.0819  0.0586 -2.7614
  128MOL   H17733451   5.273   4.948   3.780  0.1932 -1.4274  0.3170
  128MOL   H17833452   5.359   5.123   4.004 -0.8766 -1.1252  1.7535
  128MOL   H17933453   5.053   5.203   3.740 -0.5161 -1.5397 -0.3532
  128MOL   H18033454   4.972   5.168   3.887  2.1022 -0.2763  4.3670
  128MOL   H18133455   5.058   5.044   3.791 -0.5880 -0.2385  0.4415
  128MOL   H18233456   5.273   5.332   4.048  0.0371  1.4102 -0.1929
  128MOL   H18333457   5.101   5.318   4.051  1.1694 -2.3447  2.6462
  128MOL   C18433458   5.194   5.436   3.889 -0.2666 -0.8246 -0.3321
  128MOL   C18533459   5.217   5.558   3.974 -0.6480 -0.7021  0.7704
  128MOL   C18633460   5.255   5.676   3.923  0.0531  0.0808 -0.1325
  128MOL   C18733461   5.272   5.701   3.768  0.5244  0.1102  0.0480
  128MOL   C18833462   5.302   5.790   4.013 -0.3974  0.5945  0.2534
  128MOL   H18933463   5.100   5.452   3.836 -1.4501  2.2765  2.4870
  128MOL   H19033464   5.272   5.435   3.814 -0.2392  1.7843 -0.3679
  128MOL   H19133465   5.198   5.548   4.079 -1.1017 -3.0624  0.4732
  128MOL   H19233466   5.250   5.618   3.702  3.0129 -1.0161  0.5414
  128MOL   H19333467   5.375   5.728   3.743  0.7057 -1.3474 -0.8495
  128MOL   H19433468   5.207   5.780   3.731  1.3893  1.2017  0.8116
  128MOL   H19533469   5.411   5.791   4.013 -0.3692 -0.7262 -0.6608
  128MOL   H19633470   5.282   5.772   4.119  1.5357  3.8113  1.2214
  128MOL   C19733471   5.241   5.928   3.973  0.1129  0.2669  0.6991
  128MOL   C19833472   5.285   6.047   4.065 -0.0904 -0.2105 -0.5502
  128MOL   C19933473   5.210   6.128   4.148  0.4344 -0.4813 -0.1049
  128MOL   C20033474   5.060   6.111   4.163 -0.0543  0.0974  0.5495
  128MOL   C20133475   5.267   6.242   4.219 -0.2545 -0.3755  0.3821
  128MOL   H20233476   5.133   5.920   3.962  0.4990 -0.6072 -3.0003
  128MOL   H20333477   5.278   5.953   3.873 -0.3224 -1.0295  0.2032
  128MOL   H20433478   5.392   6.063   4.059 -0.1646  0.1420 -0.8954
  128MOL   H20533479   5.003   6.189   4.113 -0.9002 -0.1593  1.0975
  128MOL   H20633480   5.036   6.113   4.270  1.2442  2.2356  0.8167
  128MOL   H20733481   5.037   6.014   4.120  0.4339  0.2640 -0.0895
  128MOL   H20833482   5.375   6.231   4.207 -0.1475 -0.5722  1.4402
  128MOL   H20933483   5.239   6.240   4.325 -1.3067  3.3771  0.2450
  128MOL   C21033484   5.231   6.381   4.163 -0.3282  0.7679  0.2175
  128MOL   C21133485   5.321   6.493   4.209  0.2211 -0.2924  0.3543
  128MOL   C21233486   5.280   6.605   4.278 -0.3134 -1.0599  0.1412
  128MOL   C21333487   5.140   6.612   4.352  0.3052 -0.1507 -0.5346
  128MOL   C21433488   5.377   6.723   4.298 -1.0475  0.0536 -0.0121
  128MOL   H21533489   5.126   6.401   4.186 -0.5341 -0.2726  0.2247
  128MOL   H21633490   5.241   6.393   4.055  1.4697 -1.4403  0.1064
  128MOL   H21733491   5.420   6.495   4.165 -0.3077  2.9399 -0.8291
  128MOL   H21833492   5.082   6.520   4.358  1.2308 -0.6960  0.3875
  128MOL   H21933493   5.089   6.695   4.304  0.7371 -0.1816 -1.0580
  128MOL   H22033494   5.156   6.632   4.458 -1.3280 -0.0101 -0.3137
  128MOL   H22133495   5.447   6.729   4.215 -0.4877  1.7476  0.5678
  128MOL   H22233496   5.427   6.725   4.394 -1.2606 -0.6373  0.1167
  128MOL   C22333497   5.309   6.857   4.264  0.0658  0.7272 -0.5490
  128MOL   C22433498   5.394   6.984   4.288  0.1486 -0.2119  0.5520
  128MOL   C22533499   5.448   7.058   4.189 -0.2889 -0.1616  0.6238
  128MOL   C22633500   5.424   7.032   4.045  0.6322 -0.6835  0.4146
  128MOL   C22733501   5.532   7.181   4.222  0.4770 -0.0832  0.0979
  128MOL   H22833502   5.217   6.875   4.320 -0.3531 -2.6851  0.0072
  128MOL   H22933503   5.269   6.848   4.162 -0.0062  2.2005 -0.6570
  128MOL   H23033504   5.422   7.016   4.388  0.2171  1.4991  0.0096
  128MOL   H23133505   5.400   6.929   4.017  2.9625 -1.2111  0.2478
  128MOL   H23233506   5.520   7.048   3.996  0.8546  1.7934  1.5764
  128MOL   H23333507   5.354   7.104   4.003  1.5250  1.0865  1.8795
  128MOL   H23433508   5.494   7.223   4.315  0.2690 -0.5186  0.2077
  128MOL   H23533509   5.500   7.258   4.151 -1.2496 -0.8695  0.0116
  128MOL   C23633510   5.686   7.170   4.211  0.4467  0.5755  0.0681
  128MOL   C23733511   5.746   7.291   4.280 -0.2797  0.1058 -0.4989
  128MOL   C23833512   5.833   7.377   4.223 -1.1709 -0.0128 -0.3287
  128MOL   C23933513   5.908   7.344   4.092 -0.9034 -0.8490 -0.1979
  128MOL   C24033514   5.873   7.510   4.288 -0.4756 -0.1294 -0.0005
  128MOL   H24133515   5.732   7.168   4.113 -0.5999  0.7976 -0.4364
  128MOL   H24233516   5.726   7.088   4.270  1.1397  1.7954  1.3136
  128MOL   H24333517   5.705   7.314   4.378  0.5553 -0.5212  0.0006
  128MOL   H24433518   5.923   7.238   4.073  0.4968 -0.9631  1.4815
  128MOL   H24533519   6.009   7.383   4.108 -0.7972 -1.1628 -0.0996
  128MOL   H24633520   5.848   7.386   4.011 -0.4132  1.2500  0.4973
  128MOL   H24733521   5.980   7.498   4.306 -0.4114 -0.0743 -0.3474
  128MOL   H24833522   5.828   7.523   4.386 -1.9490 -0.1608 -0.6544
  128MOL   C24933523   5.849   7.620   4.183  0.2487 -0.7733  0.2278
  128MOL   C25033524   5.911   7.753   4.214 -0.7399 -0.1755  0.6395
  128MOL   C25133525   5.852   7.870   4.238 -0.4825  0.5891 -0.1543
  128MOL   C25233526   5.709   0.024   4.214  0.1185 -0.8033  0.0899
  128MOL   C25333527   5.930   0.103   4.294 -0.1137  0.1350  0.3096
  128MOL   H25433528   5.742   7.640   4.189  0.4780  0.9915 -1.2803
  128MOL   H25533529   5.884   7.607   4.081 -1.9524 -0.8919 -0.5477
  128MOL   H25633530   6.016   7.742   4.234 -0.1926 -2.1600 -2.8284
  128MOL   H25733531   5.726   0.106   4.144 -0.3351 -0.9034 -0.1391
  128MOL   H25833532   5.659   0.071   4.299  0.4930 -1.8256  0.9002
  128MOL   H25933533   5.653   7.832   4.157  0.3948  0.4091 -1.7873
  128MOL   H26033534   6.030   0.078   4.328 -0.7924 -3.3228 -0.0452
  128MOL   H26133535   5.881   0.148   4.380  1.6183  0.4204  1.1485
  128MOL   H26233536   5.930   0.184   4.221  1.5737 -0.2676 -0.1484
  129MOL     C133537   7.109   7.190   0.173 -0.3687 -0.1551  0.3564
  129MOL     C233538   7.052   7.328   0.182  0.2716  0.1665 -0.5463
  129MOL     C333539   7.129   7.432   0.198 -0.0609  0.2497  0.5849
  129MOL     C433540   7.280   7.427   0.209 -0.3583 -0.7289 -0.0043
  129MOL     C533541   7.064   7.560   0.225  0.8004 -0.0574 -0.2703
  129MOL     H633542   7.183   7.180   0.093 -1.3248 -0.4007 -0.5183
  129MOL     H733543   7.164   7.175   0.265  0.4787  3.0897  0.4302
  129MOL     H833544   6.946   7.339   0.200  0.6156 -0.7688  2.2359
  129MOL     H933545   7.336   7.483   0.134  0.8849 -4.0612 -1.6732
  129MOL    H1033546   7.328   7.329   0.202  2.2872  0.4732  0.8224
  129MOL    H1133547   7.308   7.468   0.306 -1.0558 -2.3678  0.9109
  129MOL    H1233548   7.125   7.599   0.305  0.3332 -2.4367  1.3100
  129MOL    H1333549   6.969   7.547   0.277 -0.2854 -0.0005 -2.1939
  129MOL    H1433550   7.022   7.126   0.160 -0.4305 -0.1606  0.8051
  129MOL    C1533551   7.034   7.649   0.099 -0.2187  0.6738  0.4512
  129MOL    C1633552   7.043   7.801   0.136 -0.3156  0.2837 -0.1212
  129MOL    C1733553   7.002   0.017   0.052  0.1156 -0.1332 -0.6540
  129MOL    C1833554   6.937   7.872   7.798  0.1170 -0.3452  0.2873
  129MOL    C1933555   6.989   0.165   0.090  0.0191  0.4967 -0.3579
  129MOL    H2033556   6.933   7.632   0.062  0.3361  0.1337 -0.8476
  129MOL    H2133557   7.108   7.634   0.021  0.5069  1.3881  0.9926
  129MOL    H2233558   7.093   7.822   0.230  1.7392 -1.2739 -0.8298
  129MOL    H2333559   6.833   0.020   7.786  0.2844 -1.0236 -3.2244
  129MOL    H2433560   6.938   7.765   7.776 -0.4251 -0.4658  0.8246
  129MOL    H2533561   6.998   0.037   7.721  0.6725  0.0848  0.9800
  129MOL    H2633562   7.004   0.157   0.198  0.8892  0.9751 -0.4400
  129MOL    H2733563   6.889   0.199   0.065 -0.6883 -0.1562  1.4410
  129MOL    C2833564   7.110   0.246   0.040 -0.4488 -0.4308  0.0003
  129MOL    C2933565   7.130   0.381   0.098  0.5319  0.8625 -0.2273
  129MOL    C3033566   7.216   0.421   0.189  0.0906 -0.3338  0.1635
  129MOL    C3133567   7.342   0.337   0.232 -0.2853 -0.1894 -0.2974
  129MOL    C3233568   7.218   0.568   0.236  0.1097 -0.3046  0.1435
  129MOL    H3333569   7.083   0.271   7.820  1.1280 -2.3962 -0.9135
  129MOL    H3433570   7.198   0.181   0.042  0.2656  0.5309  0.2313
  129MOL    H3533571   7.051   0.448   0.066  1.5937  2.5274  0.5186
  129MOL    H3633572   7.337   0.329   0.340  1.0831  1.6431 -0.0699
  129MOL    H3733573   7.437   0.379   0.198  0.2982 -0.1800  1.2902
  129MOL    H3833574   7.338   0.233   0.200 -0.4884 -0.7558  1.5061
  129MOL    H3933575   7.148   0.630   0.179  0.9430  0.1591 -0.3828
  129MOL    H4033576   7.310   0.623   0.215 -0.9526  0.3690 -3.0196
  129MOL    C4133577   7.182   0.591   0.380  0.3429  0.1955 -0.2040
  129MOL    C4233578   7.183   0.739   0.401  0.1145 -0.0514  0.2496
  129MOL    C4333579   7.076   0.815   0.405  0.3099 -0.0108 -0.4784
  129MOL    C4433580   6.932   0.760   0.401  0.1280  0.5982  0.5416
  129MOL    C4533581   7.094   0.959   0.443 -0.2470  0.1610 -0.5440
  129MOL    H4633582   7.266   0.564   0.444  0.1159 -2.0113 -0.7929
  129MOL    H4733583   7.089   0.546   0.416 -0.5675  0.6694 -1.9392
  129MOL    H4833584   7.280   0.781   0.419 -0.7062  0.8853  2.6399
  129MOL    H4933585   6.875   0.747   0.492 -0.1319  1.8418  0.5735
  129MOL    H5033586   6.931   0.665   0.348 -0.9175  1.4182 -0.9611
  129MOL    H5133587   6.873   0.830   0.342 -0.2511 -0.2837 -0.1348
  129MOL    H5233588   7.192   0.974   0.488 -0.6318  2.0540 -0.2778
  129MOL    H5333589   7.023   0.989   0.521  0.7894  0.2759  0.3761
  129MOL    C5433590   7.083   1.052   0.323 -0.3347 -0.1540 -0.2379
  129MOL    C5533591   7.077   1.194   0.367  0.3365  0.0082  0.8269
  129MOL    C5633592   7.160   1.294   0.329  0.3056 -0.5229 -0.3365
  129MOL    C5733593   7.268   1.282   0.224 -0.4154 -0.0197 -0.1594
  129MOL    C5833594   7.160   1.434   0.394 -0.4026 -0.0944 -0.7536
  129MOL    H5933595   6.993   1.026   0.267 -0.4279  0.8853 -0.5811
  129MOL    H6033596   7.167   1.041   0.255 -0.7857 -1.4555 -0.6019
  129MOL    H6133597   7.008   1.213   0.449 -1.8706 -0.7350 -0.8165
  129MOL    H6233598   7.230   1.223   0.141  0.5320  2.0423 -2.1093
  129MOL    H6333599   7.352   1.225   0.264  0.0755  1.0654  0.3799
  129MOL    H6433600   7.294   1.380   0.183  2.8106 -0.3674  0.9707
  129MOL    H6533601   7.078   1.432   0.465 -0.0218  0.5265 -0.2897
  129MOL    H6633602   7.143   1.515   0.322 -3.2447  1.6166  1.7345
  129MOL    C6733603   7.282   1.451   0.481 -0.1169 -0.1761 -0.4929
  129MOL    C6833604   7.282   1.588   0.560 -0.2038 -0.1010  0.0706
  129MOL    C6933605   7.213   1.623   0.670  0.2635  0.1053 -0.9153
  129MOL    C7033606   7.101   1.540   0.730 -0.1588 -0.6167 -0.0372
  129MOL    C7133607   7.232   1.756   0.744  0.0516  0.0321  0.0353
  129MOL    H7233608   7.378   1.458   0.430  0.4584 -2.5669  0.2016
  129MOL    H7333609   7.292   1.368   0.551  0.4866  1.7596  1.7912
  129MOL    H7433610   7.348   1.659   0.512  0.1027 -1.5253 -1.6842
  129MOL    H7533611   7.090   1.440   0.688 -0.9821 -0.7672  0.5485
  129MOL    H7633612   7.007   1.594   0.724  0.8324  1.0313 -1.5685
  129MOL    H7733613   7.110   1.524   0.837  2.3042  0.5694 -0.0184
  129MOL    H7833614   7.129   1.789   0.761 -0.4160 -0.9589 -0.8171
  129MOL    H7933615   7.275   1.832   0.679  0.0573  1.0841  1.2418
  129MOL    C8033616   7.312   1.747   0.875 -0.4264  0.5753 -1.1351
  129MOL    C8133617   7.460   1.717   0.860  0.5537 -0.3679  0.6151
  129MOL    C8233618   7.554   1.808   0.877 -0.0028 -0.1379 -0.7758
  129MOL    C8333619   7.522   1.957   0.903 -1.0445 -0.6360  0.0287
  129MOL    C8433620   7.706   1.774   0.855 -0.1715  0.5529  0.6173
  129MOL    H8533621   7.275   1.657   0.923  1.3732 -0.3988 -1.5203
  129MOL    H8633622   7.285   1.837   0.931  1.9461  0.9264 -0.5017
  129MOL    H8733623   7.492   1.622   0.821 -0.7392 -0.1137 -1.1162
  129MOL    H8833624   7.579   2.007   0.825  2.4537 -2.9462  0.9959
  129MOL    H8933625   7.576   1.990   0.992  2.7915 -0.9664 -2.0709
  129MOL    H9033626   7.418   1.990   0.907 -1.2534 -1.3901  0.8525
  129MOL    H9133627   7.751   1.851   0.793  2.2920  0.0528  1.7304
  129MOL    H9233628   7.723   1.683   0.797  2.1445  1.5867 -0.3738
  129MOL    C9333629   7.774   1.734   0.988  0.0200 -0.3569 -0.1396
  129MOL    C9433630   0.046   1.723   0.974  0.2786  0.2448 -0.0092
  129MOL    C9533631   0.122   1.621   0.952  0.0998  0.3812 -0.0618
  129MOL    C9633632   0.065   1.487   0.912  0.2576  0.1398  0.3064
  129MOL    C9733633   0.274   1.631   0.958  0.0265  0.7596 -0.0430
  129MOL    H9833634   7.731   1.638   1.017  0.1321 -0.7137 -1.1471
  129MOL    H9933635   7.739   1.796   1.071 -0.9199  1.5436 -1.9003
  129MOL   H10033636   0.094   1.818   0.997 -0.4899  0.6447 -0.0294
  129MOL   H10133637   0.102   1.441   0.820 -1.9687 -0.9886 -0.0600
  129MOL   H10233638   7.838   1.486   0.910  0.2506 -1.9911  1.2655
  129MOL   H10333639   0.100   1.422   0.991  0.9234  0.8018  0.5582
  129MOL   H10433640   0.312   1.542   1.009 -1.6968 -0.6659 -1.2001
  129MOL   H10533641   0.299   1.721   1.015 -0.0541  1.2758 -0.8060
  129MOL   C10633642   0.327   1.630   0.813  0.3106  0.0858  0.6834
  129MOL   C10733643   0.478   1.648   0.802 -0.3121 -0.4411 -0.3973
  129MOL   C10833644   0.542   1.745   0.732 -0.3189  0.6194 -0.2352
  129MOL   C10933645   0.474   1.853   0.658 -0.3776 -0.5592  0.7767
  129MOL   C11033646   0.695   1.735   0.712  0.0728  0.2521 -0.4928
  129MOL   H11133647   0.286   1.700   0.741  1.0894 -0.5525 -0.4010
  129MOL   H11233648   0.290   1.536   0.772 -0.5860 -0.6366  3.0390
  129MOL   H11333649   0.541   1.581   0.859 -0.0457 -0.6465 -0.9253
  129MOL   H11433650   0.540   1.940   0.654  0.2908 -1.1310 -1.0440
  129MOL   H11533651   0.372   1.887   0.679 -0.3436  2.2454 -2.9822
  129MOL   H11633652   0.477   1.814   0.557  2.0697 -1.3409  1.1166
  129MOL   H11733653   0.737   1.665   0.784 -1.1639  0.1958  0.1929
  129MOL   H11833654   0.744   1.829   0.739 -2.0107  0.8618  1.2652
  129MOL   C11933655   0.727   1.693   0.566  0.7044 -0.1013  0.7135
  129MOL   C12033656   0.878   1.645   0.551 -0.0773 -0.0860  0.4106
  129MOL   C12133657   0.927   1.523   0.595 -0.6567 -0.7300  0.0264
  129MOL   C12233658   0.840   1.420   0.669  1.1443 -0.4340  0.1754
  129MOL   C12333659   1.070   1.482   0.575 -0.4746 -0.0627  0.4410
  129MOL   H12433660   0.714   1.774   0.494  2.4721  1.2660  1.8883
  129MOL   H12533661   0.661   1.609   0.544  1.2708 -1.2097  3.0630
  129MOL   H12633662   0.953   1.710   0.510 -0.0356  0.8613  1.9926
  129MOL   H12733663   0.734   1.435   0.648  0.7684 -0.9321  1.6701
  129MOL   H12833664   0.849   1.409   0.777  0.9332 -1.5505  0.0823
  129MOL   H12933665   0.867   1.323   0.627 -0.1812 -0.6428 -0.2033
  129MOL   H13033666   1.079   1.439   0.475  2.6847 -0.8114  1.0142
  129MOL   H13133667   1.099   1.400   0.641  0.5195  1.2044  1.5738
  129MOL   C13233668   1.175   1.595   0.611  1.0955  0.5537 -0.2783
  129MOL   C13333669   1.314   1.554   0.561 -0.0735 -0.4291 -0.4056
  129MOL   C13433670   1.389   1.609   0.459 -0.5029 -0.3279  0.1461
  129MOL   C13533671   1.338   1.726   0.376 -0.1680  0.5712 -0.6461
  129MOL   C13633672   1.531   1.566   0.417 -0.3714 -0.6079 -0.0818
  129MOL   H13733673   1.179   1.613   0.719  3.0905  3.0362 -0.7476
  129MOL   H13833674   1.143   1.689   0.567 -1.1451 -0.5696 -1.1297
  129MOL   H13933675   1.358   1.468   0.610 -2.1914 -2.8972 -2.6895
  129MOL   H14033676   1.405   1.754   0.295 -0.5415 -2.5661 -2.0838
  129MOL   H14133677   1.335   1.811   0.446 -0.0790 -0.5970  0.7995
  129MOL   H14233678   1.241   1.719   0.329 -1.4536 -1.0269  2.1481
  129MOL   H14333679   1.546   1.555   0.309 -0.0608 -2.6639  0.1591
  129MOL   H14433680   1.549   1.466   0.455  1.2066 -0.9829 -1.7493
  129MOL   C14533681   1.636   1.667   0.450 -0.4038  0.3352  0.5038
  129MOL   C14633682   1.634   1.696   0.599 -0.2752  0.6151  0.2729
  129MOL   C14733683   1.724   1.647   0.682 -0.1378  0.5597 -0.4201
  129MOL   C14833684   1.836   1.559   0.642  0.2104  0.4920 -0.5605
  129MOL   C14933685   1.724   1.676   0.832 -0.1004 -0.2579 -0.3510
  129MOL   H15033686   1.621   1.762   0.398  1.7001 -0.0579 -0.8665
  129MOL   H15133687   1.730   1.635   0.405 -1.2014  1.3696 -1.9764
  129MOL   H15233688   1.558   1.766   0.630  0.7931  2.0769 -0.3097
  129MOL   H15333689   1.875   1.495   0.721 -0.8213  0.6043  0.0486
  129MOL   H15433690   1.903   1.617   0.578 -1.2361  0.0960 -2.4860
  129MOL   H15533691   1.806   1.478   0.575 -0.8233 -1.2835  1.9988
  129MOL   H15633692   1.788   1.605   0.885 -1.4580 -0.2320  1.3555
  129MOL   H15733693   1.623   1.657   0.868 -0.8424  1.6415 -1.3424
  129MOL   C15833694   1.779   1.814   0.873  0.4502  0.6667  0.4705
  129MOL   C15933695   1.767   1.835   1.026 -0.3498  0.6743 -0.7570
  129MOL   C16033696   1.724   1.943   1.088  0.3724 -0.2340  1.1066
  129MOL   C16133697   1.680   2.069   1.017 -0.2307  0.4304 -0.6414
  129MOL   C16233698   1.723   1.963   1.239  0.1283  0.6507  0.1909
  129MOL   H16333699   1.722   1.883   0.811  1.6119 -0.4235 -1.8593
  129MOL   H16433700   1.884   1.821   0.845 -0.3203  2.2086 -2.1803
  129MOL   H16533701   1.807   1.757   1.088 -0.4181 -0.2004 -1.8040
  129MOL   H16633702   1.716   2.152   1.079  0.9543 -1.2411  0.9798
  129MOL   H16733703   1.574   2.053   1.037 -0.1841  1.3514  0.4809
  129MOL   H16833704   1.717   2.063   0.915  1.1113 -0.8238 -0.0934
  129MOL   H16933705   1.755   2.063   1.266  0.0989  0.2507  1.7470
  129MOL   H17033706   1.789   1.893   1.289  0.6567  1.4091  0.5486
  129MOL   C17133707   1.585   1.939   1.303  0.0076  0.1297 -0.2706
  129MOL   C17233708   1.582   1.982   1.441  0.2588 -0.4950 -0.1613
  129MOL   C17333709   1.481   1.972   1.528  0.3505 -0.1618 -0.2279
  129MOL   C17433710   1.351   1.907   1.492 -0.1738  0.4922  0.1906
  129MOL   C17533711   1.490   2.016   1.671  0.3949 -0.0358 -0.2583
  129MOL   H17633712   1.564   1.832   1.294  0.3056 -0.1217  1.9082
  129MOL   H17733713   1.501   1.992   1.257  0.1342  0.5569 -0.0100
  129MOL   H17833714   1.678   2.009   1.484 -0.4108  1.2071  0.3053
  129MOL   H17933715   1.365   1.800   1.508  0.0328  0.3224 -1.0816
  129MOL   H18033716   1.332   1.929   1.387 -0.4073 -1.7095 -0.2535
  129MOL   H18133717   1.270   1.959   1.543  0.7840  0.6830  1.5529
  129MOL   H18233718   1.407   2.081   1.698  1.0993  0.2534  1.2374
  129MOL   H18333719   1.580   2.074   1.691 -0.1157  1.5381 -2.3741
  129MOL   C18433720   1.481   1.892   1.763 -0.7681  0.0186 -0.3864
  129MOL   C18533721   1.547   1.915   1.898 -0.2444  0.1558  0.0836
  129MOL   C18633722   1.609   1.818   1.966 -0.2921 -1.0629 -0.5764
  129MOL   C18733723   1.600   1.672   1.931  0.0490  0.8591  0.1911
  129MOL   C18833724   1.714   1.856   2.074 -0.7883 -0.0777  0.3325
  129MOL   H18933725   1.522   1.809   1.706  0.8894  0.4008  0.2323
  129MOL   H19033726   1.377   1.873   1.788 -0.3921 -0.4606  0.8149
  129MOL   H19133727   1.567   2.018   1.922 -0.2835  0.4113 -0.9499
  129MOL   H19233728   1.602   1.615   2.024  0.1885 -0.3520 -0.5442
  129MOL   H19333729   1.677   1.623   1.871  0.2236  0.0322  1.0850
  129MOL   H19433730   1.510   1.645   1.876 -0.7612  2.7501  0.5698
  129MOL   H19533731   1.807   1.820   2.028 -1.6547  1.0272 -2.4039
  129MOL   H19633732   1.707   1.795   2.164  1.4597 -0.3140  0.3840
  129MOL   C19733733   1.731   1.999   2.128  1.0073  0.2904 -0.3229
  129MOL   C19833734   1.857   2.027   2.213 -0.4940  0.6768 -0.0035
  129MOL   C19933735   1.871   2.020   2.349  0.0057 -0.6380 -0.6864
  129MOL   C20033736   1.750   1.982   2.438 -0.3992 -0.5091  0.2541
  129MOL   C20133737   2.000   2.051   2.424 -0.2252  0.2090  0.9792
  129MOL   H20233738   1.642   2.023   2.186  1.6472 -0.5424  1.0342
  129MOL   H20333739   1.734   2.072   2.047  0.8871  0.7550  0.0857
  129MOL   H20433740   1.945   2.048   2.154 -1.0538 -1.2981 -1.5692
  129MOL   H20533741   1.686   1.914   2.382 -0.4702  1.5024 -2.2051
  129MOL   H20633742   1.692   2.067   2.473  0.7406  0.0242  0.8683
  129MOL   H20733743   1.784   1.928   2.527 -0.2877  3.5733  2.8074
  129MOL   H20833744   2.073   2.085   2.350  0.9532 -2.0256  1.0787
  129MOL   H20933745   2.059   1.969   2.463  1.6676  1.6633  1.2684
  129MOL   C21033746   1.966   2.149   2.535  0.0899 -0.0623  0.0631
  129MOL   C21133747   2.089   2.215   2.601 -0.0128  0.2809  0.5384
  129MOL   C21233748   2.123   2.222   2.730  0.3224  0.6682  0.5223
  129MOL   C21333749   2.041   2.162   2.841  0.4591 -0.4089  0.0056
  129MOL   C21433750   2.246   2.294   2.773 -0.0080  0.0177 -0.4423
  129MOL   H21533751   1.911   2.097   2.613  0.2452  0.8227  0.7762
  129MOL   H21633752   1.894   2.224   2.501  0.0397 -0.3407 -0.4425
  129MOL   H21733753   2.160   2.263   2.535 -0.4421 -0.2593 -0.3219
  129MOL   H21833754   2.068   2.207   2.937 -0.9483  1.0647 -0.2694
  129MOL   H21933755   2.075   2.061   2.867 -0.0800 -0.6674 -0.2910
  129MOL   H22033756   1.936   2.164   2.813  0.6836 -0.2802 -0.8566
  129MOL   H22133757   2.206   2.363   2.847 -1.0734 -1.5408  0.4539
  129MOL   H22233758   2.286   2.348   2.687  0.9972 -2.8555 -1.8382
  129MOL   C22333759   2.357   2.203   2.832 -0.7819 -0.2258 -0.1687
  129MOL   C22433760   2.479   2.281   2.864  0.3097  0.0791  0.3908
  129MOL   C22533761   2.578   2.246   2.949 -0.0326 -0.4218  0.1505
  129MOL   C22633762   2.579   2.115   3.025 -0.3303  0.3484  1.2971
  129MOL   C22733763   2.703   2.339   2.978  0.3394 -0.0116 -0.1554
  129MOL   H22833764   2.377   2.133   2.751 -1.0502 -2.4729  1.6449
  129MOL   H22933765   2.322   2.152   2.922  0.3791 -0.8938 -0.0931
  129MOL   H23033766   2.499   2.368   2.803  0.7361 -0.1578  0.1901
  129MOL   H23133767   2.679   2.077   3.042 -0.5922 -1.1276 -0.4042
  129MOL   H23233768   2.525   2.038   2.972 -0.2989 -0.2120  2.0678
  129MOL   H23333769   2.527   2.115   3.121 -0.9915 -2.0189  0.9719
  129MOL   H23433770   2.712   2.359   3.085  0.1173 -1.2936  0.1072
  129MOL   H23533771   2.697   2.436   2.928  1.7864  0.1630 -0.0092
  129MOL   C23633772   2.838   2.275   2.928  0.0315 -0.0424 -0.0882
  129MOL   C23733773   2.952   2.374   2.922 -0.7872 -1.0218  1.0925
  129MOL   C23833774   3.083   2.345   2.884  0.3178 -0.0433  0.1705
  129MOL   C23933775   3.133   2.204   2.854  0.6903 -0.0589  0.0625
  129MOL   C24033776   3.193   2.444   2.881 -0.9646  0.2928  0.7485
  129MOL   H24133777   2.824   2.235   2.827 -0.8971 -0.2688  0.1199
  129MOL   H24233778   2.863   2.189   2.990 -0.2922 -0.4093 -0.4582
  129MOL   H24333779   2.924   2.476   2.947  0.6633 -0.2900 -0.1254
  129MOL   H24433780   3.181   2.163   2.943  0.0319  1.4015  1.1060
  129MOL   H24533781   3.194   2.204   2.763 -1.3761 -0.2279 -1.3425
  129MOL   H24633782   3.053   2.133   2.833 -1.7172  2.3621  0.8643
  129MOL   H24733783   3.279   2.404   2.935 -0.5422  0.8706  0.5067
  129MOL   H24833784   3.167   2.528   2.946  0.4840  1.5194 -0.2451
  129MOL   C24933785   3.234   2.504   2.745  0.1022 -0.1139 -0.4201
  129MOL   C25033786   3.257   2.651   2.753 -0.1342 -0.3810  0.3332
  129MOL   C25133787   3.244   2.737   2.651  0.1917 -0.2618 -0.3435
  129MOL   C25233788   3.210   2.697   2.509  0.1057 -0.2514  0.4166
  129MOL   C25333789   3.268   2.880   2.683 -0.0556 -0.0828  0.2658
  129MOL   H25433790   3.153   2.491   2.674  0.0810  2.1314 -0.8467
  129MOL   H25533791   3.332   2.470   2.711 -0.5257 -1.7601 -0.6142
  129MOL   H25633792   3.267   2.695   2.851 -1.0477  4.0444 -1.4673
  129MOL   H25733793   3.104   2.718   2.493 -0.2028 -1.3791  1.0012
  129MOL   H25833794   3.236   2.593   2.494  0.6672 -0.0653  0.0959
  129MOL   H25933795   3.259   2.760   2.434  0.9300 -1.1801  0.1764
  129MOL   H26033796   3.303   2.930   2.593  2.1255  2.2852  2.3756
  129MOL   H26133797   3.359   2.892   2.742  1.5592 -1.0754 -1.9383
  129MOL   H26233798   3.187   2.937   2.729  0.8867  2.1119 -0.7264
  130MOL     C133799   7.727   3.449   3.169 -0.2050  0.5930  0.1942
  130MOL     C233800   7.689   3.595   3.163  0.0931  0.1020 -0.1889
  130MOL     C333801   7.670   3.668   3.048 -0.3786  0.0446  0.0631
  130MOL     C433802   7.670   3.607   2.907  0.2440  0.0845 -0.5871
  130MOL     C533803   7.639   3.814   3.065 -0.2238  0.4072 -0.0081
  130MOL     H633804   7.835   3.437   3.170  0.2002  3.6191 -1.8824
  130MOL     H733805   7.694   3.405   3.263 -1.5432  0.2037 -0.4332
  130MOL     H833806   7.685   3.630   3.265  0.0944 -1.0191  0.2023
  130MOL     H933807   7.745   3.662   2.849  0.3537 -0.4121 -0.9177
  130MOL    H1033808   7.572   3.620   2.859 -0.1246 -1.5626 -0.2811
  130MOL    H1133809   7.695   3.501   2.903 -0.5350 -0.1416  0.4208
  130MOL    H1233810   7.620   3.837   3.170 -2.8995 -1.5483  0.0045
  130MOL    H1333811   7.545   3.832   3.013 -0.4955 -1.9934 -0.4069
  130MOL    H1433812   7.688   3.399   3.080 -1.6132  1.3648  0.3617
  130MOL    C1533813   7.755   3.897   3.012  0.6239  0.5117  0.2420
  130MOL    C1633814   7.717   4.040   3.014 -0.1184 -0.1342 -0.5147
  130MOL    C1733815   7.792   4.150   3.024  0.3409  0.0783 -0.8679
  130MOL    C1833816   0.064   4.137   3.027  0.0834 -0.0878  0.1469
  130MOL    C1933817   7.735   4.289   3.037 -0.7421 -0.3760  0.1469
  130MOL    H2033818   7.779   3.869   2.910  1.1785 -0.4509  0.6249
  130MOL    H2133819   7.840   3.862   3.072 -0.9377 -2.2892  0.9015
  130MOL    H2233820   7.609   4.051   3.011 -0.1002  0.6149  1.0683
  130MOL    H2333821   0.109   4.116   2.930 -0.8007  1.9097 -0.7313
  130MOL    H2433822   0.095   4.057   3.095 -0.4075 -1.1440 -0.8539
  130MOL    H2533823   0.109   4.230   3.061  1.5521 -0.7829  0.1515
  130MOL    H2633824   7.797   4.347   3.105  0.1838  0.0369 -1.0377
  130MOL    H2733825   7.632   4.280   3.071 -1.0538  1.5048 -0.2721
  130MOL    C2833826   7.751   4.360   2.902 -0.0041  0.1392  0.3772
  130MOL    C2933827   7.672   4.490   2.908  0.1814 -0.6459 -0.1194
  130MOL    C3033828   7.716   4.613   2.905 -0.4747 -0.1594 -0.2403
  130MOL    C3133829   7.867   4.649   2.897  0.3388 -0.3605 -0.5079
  130MOL    C3233830   7.622   4.739   2.888  0.0677  0.1735  0.8967
  130MOL    H3333831   7.702   4.290   2.835 -1.0342  0.0121  1.2529
  130MOL    H3433832   7.854   4.362   2.867 -0.4147 -4.4159 -1.3797
  130MOL    H3533833   7.564   4.482   2.903 -0.0256  2.2509 -1.2953
  130MOL    H3633834   0.008   4.715   2.981 -1.3136 -0.1995 -0.1549
  130MOL    H3733835   0.012   4.713   2.813  4.5770 -0.0921  0.9491
  130MOL    H3833836   0.049   4.562   2.886  0.6147 -0.0655 -1.2551
  130MOL    H3933837   7.522   4.716   2.852  0.2726 -2.3275  1.8230
  130MOL    H4033838   7.658   4.800   2.806 -1.8810 -0.6289 -0.5720
  130MOL    C4133839   7.614   4.826   3.013  0.1305  0.3562 -0.0580
  130MOL    C4233840   7.538   4.960   3.000 -0.2736  0.5245 -0.0706
  130MOL    C4333841   7.410   4.966   3.034 -0.5828 -0.0831 -0.6007
  130MOL    C4433842   7.338   4.851   3.094 -0.2098 -0.1401  0.2865
  130MOL    C4533843   7.342   5.099   3.012 -0.5665  0.2820  0.2116
  130MOL    H4633844   7.715   4.852   3.043  0.6110 -2.2828  0.7738
  130MOL    H4733845   7.565   4.768   3.091 -0.6704  1.6858  0.4429
  130MOL    H4833846   7.588   5.039   2.946  0.2781 -1.0504 -1.9125
  130MOL    H4933847   7.361   4.762   3.034  0.8438  0.3364 -0.0438
  130MOL    H5033848   7.230   4.863   3.092 -0.3503 -0.8063  2.5033
  130MOL    H5133849   7.390   4.830   3.188  1.9327 -0.0028 -0.8180
  130MOL    H5233850   7.247   5.092   2.959 -1.8118 -0.3275  2.4472
  130MOL    H5333851   7.409   5.168   2.961  0.6841 -1.0057  0.0764
  130MOL    C5433852   7.299   5.177   3.142 -0.7372 -0.2554 -0.4501
  130MOL    C5533853   7.201   5.290   3.119 -0.7688 -0.6955  0.4692
  130MOL    C5633854   7.124   5.342   3.213  0.2429  0.6278 -0.1475
  130MOL    C5733855   7.113   5.287   3.353 -0.0460 -0.7985 -0.4902
  130MOL    C5833856   7.047   5.465   3.179  0.5956  0.4719 -0.0409
  130MOL    H5933857   7.392   5.214   3.185  0.6968 -1.5252 -2.3696
  130MOL    H6033858   7.279   5.100   3.216  2.6132 -0.7985  0.0024
  130MOL    H6133859   7.211   5.328   3.018  2.0262 -2.1394  0.1498
  130MOL    H6233860   7.014   5.246   3.373 -0.4456 -1.8457 -4.2527
  130MOL    H6333861   7.121   5.375   3.416 -0.3793  0.5076 -2.2387
  130MOL    H6433862   7.189   5.218   3.391 -1.1155 -1.7968 -0.1441
  130MOL    H6533863   7.052   5.479   3.071 -0.1207 -3.0873 -0.5838
  130MOL    H6633864   7.099   5.555   3.211  2.5058 -0.0632 -1.5537
  130MOL    C6733865   6.894   5.454   3.203 -0.7820 -0.2738  0.1935
  130MOL    C6833866   6.830   5.358   3.108  0.1350  0.0970  0.8179
  130MOL    C6933867   6.698   5.339   3.087 -0.5050  0.1096 -0.2287
  130MOL    C7033868   6.595   5.427   3.149 -0.1006 -0.1102  0.2902
  130MOL    C7133869   6.636   5.232   2.991 -1.4778  0.1162  0.0008
  130MOL    H7233870   6.841   5.549   3.199  0.6126  0.5544  0.9058
  130MOL    H7333871   6.873   5.410   3.300  0.2651  1.4574  1.2318
  130MOL    H7433872   6.907   5.296   3.064 -0.0843 -0.1371  0.7643
  130MOL    H7533873   6.505   5.374   3.181 -0.0492  0.5545  1.5671
  130MOL    H7633874   6.580   5.505   3.075 -1.1876 -2.3015 -1.8468
  130MOL    H7733875   6.639   5.470   3.239  0.2941  0.2336 -0.0650
  130MOL    H7833876   6.590   5.167   3.065 -1.9333  1.2978  0.7751
  130MOL    H7933877   6.713   5.170   2.945  0.6362  2.5399  0.1647
  130MOL    C8033878   6.534   5.278   2.894  0.3433 -0.3808  0.4199
  130MOL    C8133879   6.498   5.158   2.807 -0.4357  0.1825  0.2291
  130MOL    C8233880   6.507   5.143   2.671 -0.7512  0.1832  0.1491
  130MOL    C8333881   6.567   5.242   2.581  0.2640 -0.7646 -0.6056
  130MOL    C8433882   6.448   5.020   2.596  0.1872  0.3810  0.9093
  130MOL    H8533883   6.570   5.361   2.834 -0.4034  0.2973  0.9008
  130MOL    H8633884   6.443   5.308   2.946 -0.2585  0.3326 -1.0105
  130MOL    H8733885   6.461   5.077   2.868 -0.0099  0.4000  0.7788
  130MOL    H8833886   6.648   5.215   2.512  1.6236  2.4569 -0.3854
  130MOL    H8933887   6.607   5.328   2.634 -0.4506  1.0636 -2.9237
  130MOL    H9033888   6.504   5.278   2.500  0.5706  0.2839 -0.3895
  130MOL    H9133889   6.440   5.065   2.497  1.0992 -0.1670  0.5796
  130MOL    H9233890   6.346   4.994   2.624  1.4867 -2.9874  2.8571
  130MOL    C9333891   6.526   4.887   2.594 -1.1833 -0.2517  0.2380
  130MOL    C9433892   6.457   4.792   2.500  0.6998  0.3288  0.4885
  130MOL    C9533893   6.386   4.680   2.543  0.2619  0.3624  0.1953
  130MOL    C9633894   6.355   4.660   2.690 -0.2621 -0.6417 -0.2455
  130MOL    C9733895   6.323   4.588   2.445 -0.9567 -0.1998  0.0201
  130MOL    H9833896   6.522   4.842   2.693 -0.8602 -0.4040  0.1832
  130MOL    H9933897   6.632   4.905   2.573 -0.7291 -3.7312 -0.7158
  130MOL   H10033898   6.476   4.814   2.396 -2.0124  0.5185 -0.0008
  130MOL   H10133899   6.325   4.745   2.750 -0.6216 -1.3312  0.5678
  130MOL   H10233900   6.435   4.608   2.743  0.1074 -0.1500 -0.3129
  130MOL   H10333901   6.274   4.589   2.705  0.7254 -2.1453 -1.7414
  130MOL   H10433902   6.328   4.638   2.349  0.0600  0.3622  0.3504
  130MOL   H10533903   6.223   4.560   2.476  0.3803 -1.5916  3.3683
  130MOL   C10633904   6.386   4.449   2.452 -0.0836 -0.1372 -0.1183
  130MOL   C10733905   6.536   4.443   2.419 -0.4358 -0.4087 -0.1424
  130MOL   C10833906   6.607   4.365   2.337  0.0181 -0.4020  0.0035
  130MOL   C10933907   6.539   4.251   2.262  0.0277  0.0988 -0.0440
  130MOL   C11033908   6.759   4.398   2.305 -0.1575 -0.3406 -0.4512
  130MOL   H11133909   6.336   4.392   2.373 -0.0540 -1.4450  0.7773
  130MOL   H11233910   6.362   4.400   2.547 -2.8575  0.6269 -0.3686
  130MOL   H11333911   6.596   4.507   2.482 -1.2908  0.5924 -0.3173
  130MOL   H11433912   6.483   4.180   2.322  1.7049 -0.5381  0.7977
  130MOL   H11533913   6.624   4.196   2.222  2.3420  1.2368  3.0871
  130MOL   H11633914   6.494   4.291   2.171 -1.0103  0.5778  0.6705
  130MOL   H11733915   6.794   4.463   2.385  2.5433 -0.9826 -1.0684
  130MOL   H11833916   6.776   4.451   2.211 -1.1110  0.4078 -0.2129
  130MOL   C11933917   6.843   4.270   2.309 -0.1444  0.3997  1.5307
  130MOL   C12033918   6.899   4.231   2.174  0.2410  0.8256 -0.3726
  130MOL   C12133919   6.996   4.146   2.152  0.7421  0.3098  0.4389
  130MOL   C12233920   7.072   4.081   2.265  0.2757  0.3006 -0.0404
  130MOL   C12333921   7.039   4.125   2.013  0.0925  0.3368 -0.0910
  130MOL   H12433922   6.802   4.181   2.358  0.0322 -0.2722  0.4728
  130MOL   H12533923   6.936   4.297   2.358  0.9752  2.7758 -1.7603
  130MOL   H12633924   6.847   4.269   2.088  3.4149  0.5582 -2.4917
  130MOL   H12733925   7.176   4.114   2.255 -0.0286  0.8475 -1.6074
  130MOL   H12833926   7.077   3.973   2.247  2.0003  0.7151 -2.3431
  130MOL   H12933927   7.031   4.094   2.365 -1.4288 -2.1884 -0.3641
  130MOL   H13033928   7.104   4.212   2.003  1.0450 -0.4251 -0.6696
  130MOL   H13133929   6.952   4.140   1.949  0.5729  0.5326 -0.7098
  130MOL   C13233930   7.100   3.989   1.981  0.3656 -0.3466  0.0848
  130MOL   C13333931   7.162   3.996   1.838 -0.0429 -0.0451 -0.4069
  130MOL   C13433932   7.150   3.917   1.731 -0.3844 -0.7346 -0.6348
  130MOL   C13533933   7.057   3.797   1.735  0.8166 -0.7407 -0.0584
  130MOL   C13633934   7.217   3.952   1.605  0.4612  0.0414 -0.5917
  130MOL   H13733935   7.016   3.920   1.990  0.8688 -0.6222  3.2516
  130MOL   H13833936   7.177   3.967   2.056  1.5844  1.2815 -0.6604
  130MOL   H13933937   7.226   4.083   1.840 -0.8765  0.5677 -0.1448
  130MOL   H14033938   6.988   3.790   1.819  0.9559 -2.4788 -0.0641
  130MOL   H14133939   7.110   3.703   1.750 -0.4828 -1.9175 -2.5782
  130MOL   H14233940   6.992   3.790   1.648 -0.3526  1.4833  0.6086
  130MOL   H14333941   7.264   3.862   1.566 -1.7063 -1.3046 -0.1823
  130MOL   H14433942   7.295   4.024   1.630 -1.0201  1.3951  0.2105
  130MOL   C14533943   7.114   4.007   1.505  0.0823 -0.2182  0.5506
  130MOL   C14633944   7.172   4.111   1.419 -0.0012 -0.6798  0.0622
  130MOL   C14733945   7.153   4.241   1.424  0.0873 -0.2419  0.0983
  130MOL   C14833946   7.068   4.304   1.533 -0.2334  0.5036 -0.5469
  130MOL   C14933947   7.212   4.336   1.330  0.5449  0.1770  0.2504
  130MOL   H15033948   7.022   4.046   1.548 -0.7591  0.5368 -1.8399
  130MOL   H15133949   7.089   3.930   1.431  2.2987  1.8882 -2.4847
  130MOL   H15233950   7.236   4.063   1.346  0.6731  0.5835 -0.1829
  130MOL   H15333951   6.960   4.292   1.539 -0.5255  2.5044 -1.1781
  130MOL   H15433952   7.097   4.408   1.549  1.2938 -0.2108  1.5015
  130MOL   H15533953   7.107   4.259   1.624 -0.1016 -0.1699 -0.9317
  130MOL   H15633954   7.136   4.410   1.307  0.2676 -0.6940 -1.6982
  130MOL   H15733955   7.247   4.286   1.240 -1.0877 -0.2309 -0.1717
  130MOL   C15833956   7.325   4.417   1.394 -0.6688  0.0625  0.3667
  130MOL   C15933957   7.453   4.345   1.446 -0.0285 -0.8471 -0.3428
  130MOL   C16033958   7.483   4.319   1.574 -0.0140 -0.4049 -0.3923
  130MOL   C16133959   7.388   4.350   1.688  0.1965  0.4072 -0.7270
  130MOL   C16233960   7.604   4.237   1.613 -0.4227 -0.6737 -0.3549
  130MOL   H16333961   7.284   4.480   1.472  1.3285  0.9296  0.7309
  130MOL   H16433962   7.342   4.489   1.314  0.9404 -1.2610 -0.5175
  130MOL   H16533963   7.523   4.307   1.373  1.6178  0.2479  0.6475
  130MOL   H16633964   7.433   4.427   1.751 -1.8687  0.8080  0.2720
  130MOL   H16733965   7.361   4.263   1.748  2.9948 -2.6525 -3.6866
  130MOL   H16833966   7.293   4.395   1.662 -0.6140 -0.1443  1.1259
  130MOL   H16933967   7.640   4.266   1.712 -0.8074  1.1561 -0.7470
  130MOL   H17033968   7.680   4.260   1.539  0.9454  1.6863  1.7318
  130MOL   C17133969   7.584   4.081   1.638  0.3810 -0.6508 -0.2722
  130MOL   C17233970   7.571   4.010   1.509 -0.2399 -0.3945 -0.3178
  130MOL   C17333971   7.644   3.908   1.453  0.1254 -0.4694  0.5983
  130MOL   C17433972   7.737   3.835   1.547  0.9344  0.0014  0.2212
  130MOL   C17533973   7.623   3.855   1.314  0.0435 -0.1375  0.4552
  130MOL   H17633974   7.494   4.053   1.692  0.0842  0.6358 -0.0783
  130MOL   H17733975   7.673   4.047   1.692 -0.1255  0.4825  1.3135
  130MOL   H17833976   7.492   4.050   1.446 -0.7968  0.7253  1.0439
  130MOL   H17933977   7.730   3.734   1.508 -2.7414  0.3023 -0.0062
  130MOL   H18033978   7.697   3.831   1.648 -0.8832  0.1497 -0.4742
  130MOL   H18133979   7.840   3.873   1.548  0.4114  1.4791  3.1400
  130MOL   H18233980   7.525   3.881   1.273  0.1161  1.2858  1.1905
  130MOL   H18333981   7.615   3.746   1.317  0.0821 -0.1440  0.3333
  130MOL   C18433982   7.733   3.884   1.214  0.6028  0.4486 -0.1832
  130MOL   C18533983   7.695   3.824   1.080 -0.4156  0.8278 -0.2588
  130MOL   C18633984   7.762   3.731   1.005  0.4337  0.2903 -0.0010
  130MOL   C18733985   0.029   3.691   1.036 -1.2775 -0.1218  0.3060
  130MOL   C18833986   7.707   3.677   0.866  0.4286 -0.4448 -0.5692
  130MOL   H18933987   7.837   3.866   1.241  1.0373 -0.0248 -2.0568
  130MOL   H19033988   7.731   3.992   1.199 -0.7466  0.3611 -0.7703
  130MOL   H19133989   7.599   3.855   1.040 -0.1307  0.9509 -0.8534
  130MOL   H19233990   0.098   3.736   0.965  1.0823 -0.3555  2.4010
  130MOL   H19333991   0.034   3.584   1.053 -1.6098 -0.4179 -1.3111
  130MOL   H19433992   0.069   3.728   1.130  0.0034  0.6994 -0.5399
  130MOL   H19533993   7.788   3.680   0.793  0.1834 -0.8068 -0.8565
  130MOL   H19633994   7.626   3.739   0.829 -0.4265 -1.6917 -0.8096
  130MOL   C19733995   7.652   3.531   0.878  0.0108  0.9300  0.2001
  130MOL   C19833996   7.518   3.538   0.943 -0.7312 -0.7199 -0.3886
  130MOL   C19933997   7.402   3.485   0.891  0.4871  0.8597 -0.5292
  130MOL   C20033998   7.382   3.431   0.749  0.1772  0.8696  0.2177
  130MOL   C20133999   7.275   3.481   0.973 -0.1917 -0.6591 -0.4950
  130MOL   H20234000   7.716   3.467   0.938  1.3134  1.9003 -0.1303
  130MOL   H20334001   7.651   3.478   0.783  2.3651 -1.2406  1.3409
  130MOL   H20434002   7.525   3.580   1.042 -0.5528  0.5985 -0.9621
  130MOL   H20534003   7.471   3.387   0.704 -1.0392 -1.8658  0.3855
  130MOL   H20634004   7.343   3.511   0.686  1.2944  1.5670  0.3994
  130MOL   H20734005   7.304   3.355   0.750  0.0470  0.9654 -1.3211
  130MOL   H20834006   7.266   3.379   1.009  0.8997 -0.9393 -0.9989
  130MOL   H20934007   7.195   3.499   0.901  0.4354  0.0660 -1.0196
  130MOL   C21034008   7.261   3.578   1.097  0.5183  0.2609 -0.1736
  130MOL   C21134009   7.147   3.535   1.192  0.2801 -0.3793 -0.9810
  130MOL   C21234010   7.158   3.505   1.324 -0.3067 -0.1883  0.5454
  130MOL   C21334011   7.283   3.514   1.415 -0.6058 -0.2664 -0.4502
  130MOL   C21434012   7.033   3.446   1.396 -0.7388  0.0543 -0.3505
  130MOL   H21534013   7.243   3.680   1.061 -1.2698 -0.2210 -0.6869
  130MOL   H21634014   7.358   3.571   1.146 -0.3755 -0.1246  1.5622
  130MOL   H21734015   7.050   3.511   1.151 -0.0014 -1.9183  0.5138
  130MOL   H21834016   7.315   3.612   1.450 -2.3109 -0.9723  3.3093
  130MOL   H21934017   7.367   3.477   1.357 -0.3713  1.4677 -1.2515
  130MOL   H22034018   7.261   3.462   1.508  0.5127  3.4414  2.0137
  130MOL   H22134019   7.062   3.353   1.447  0.9536  1.0278  0.5110
  130MOL   H22234020   6.952   3.406   1.335 -0.5763  1.1573 -1.2827
  130MOL   C22334021   6.967   3.540   1.499 -0.8514  0.6064  0.1547
  130MOL   C22434022   6.854   3.469   1.570  0.6269  0.0971  0.4056
  130MOL   C22534023   6.722   3.445   1.539  0.8320 -0.0011 -0.0237
  130MOL   C22634024   6.659   3.486   1.411  0.7779  0.0537 -0.0067
  130MOL   C22734025   6.627   3.375   1.633  0.0847  0.6817  0.6662
  130MOL   H22834026   6.926   3.632   1.457 -1.2279  2.3443  4.0064
  130MOL   H22934027   7.038   3.572   1.576 -0.7595  0.5796  0.0800
  130MOL   H23034028   6.891   3.449   1.670 -0.3850 -0.4691  0.6673
  130MOL   H23134029   6.730   3.530   1.342  0.8451 -0.3455 -0.1934
  130MOL   H23234030   6.598   3.568   1.450 -1.3391 -1.6964  0.4788
  130MOL   H23334031   6.599   3.409   1.362 -0.7613  0.8777  0.5238
  130MOL   H23434032   6.531   3.426   1.623  0.9682  1.9764 -1.8492
  130MOL   H23534033   6.661   3.379   1.736  0.2321 -0.0740  0.6447
  130MOL   C23634034   6.616   3.226   1.597 -0.5663 -0.3955 -0.2423
  130MOL   C23734035   6.497   3.151   1.646  0.1422 -0.1514  0.0600
  130MOL   C23834036   6.389   3.095   1.589 -0.4871  0.3110 -0.4273
  130MOL   C23934037   6.369   3.088   1.434  0.3346 -1.1904 -0.1449
  130MOL   C24034038   6.269   3.037   1.663 -0.4348  0.2581  0.4110
  130MOL   H24134039   6.701   3.166   1.629 -0.9341 -1.5222 -1.3311
  130MOL   H24234040   6.627   3.222   1.488  0.2183 -0.7206 -0.1586
  130MOL   H24334041   6.492   3.151   1.753 -1.3042 -0.6941  0.0071
  130MOL   H24434042   6.294   3.156   1.395  0.7425  0.3681  1.7506
  130MOL   H24534043   6.352   2.988   1.392 -0.3861 -0.2276 -2.2178
  130MOL   H24634044   6.461   3.126   1.391 -1.1703  2.6631 -0.1001
  130MOL   H24734045   6.308   3.018   1.763 -0.3743 -0.9867  0.1526
  130MOL   H24834046   6.231   2.943   1.623  2.0690  0.1430 -1.9030
  130MOL   C24934047   6.147   3.131   1.658 -0.3085  1.3069 -0.1943
  130MOL   C25034048   6.055   3.101   1.772  0.8988 -0.1897  0.3741
  130MOL   C25134049   5.933   3.044   1.763 -0.0399 -0.0079 -0.5046
  130MOL   C25234050   5.867   2.997   1.626 -0.7014 -0.0910  0.5945
  130MOL   C25334051   5.860   3.005   1.889  0.0450 -0.4436  0.3330
  130MOL   H25434052   6.101   3.144   1.561  0.4509 -0.4736 -0.8243
  130MOL   H25534053   6.189   3.227   1.689  0.7296  0.9666 -0.4932
  130MOL   H25634054   6.089   3.139   1.867 -1.1393  0.1133  1.0057
  130MOL   H25734055   5.911   3.028   1.531 -0.5494  0.4696  0.8488
  130MOL   H25834056   5.765   3.036   1.622 -0.3178  0.8007 -1.4658
  130MOL   H25934057   5.841   2.891   1.633  0.2060 -0.2356  1.8648
  130MOL   H26034058   5.868   2.896   1.895  0.9549 -0.3374  1.2604
  130MOL   H26134059   5.757   3.037   1.869  0.2719  0.1298  0.0659
  130MOL   H26234060   5.894   3.043   1.985 -0.5782  1.2525 -0.0969
  131MOL     C134061   7.141   3.149   1.214  0.1763  0.0640  0.1671
  131MOL     C234062   7.012   3.205   1.159  0.1814 -0.1712  0.0844
  131MOL     C334063   6.885   3.169   1.195  0.6033 -0.2894  0.2629
  131MOL     C434064   6.853   3.064   1.305  0.6510 -0.1269 -0.1571
  131MOL     C534065   6.757   3.235   1.136 -0.3361 -0.0431 -0.4894
  131MOL     H634066   7.143   3.151   1.323 -0.5524 -0.3549  0.1961
  131MOL     H734067   7.164   3.052   1.170 -1.7455 -0.1371 -0.4653
  131MOL     H834068   7.034   3.287   1.092  2.7075 -0.1005  0.9216
  131MOL     H934069   6.837   3.116   1.399  3.6904 -0.5022  0.6303
  131MOL    H1034070   6.942   3.003   1.322  1.6039  0.4638 -2.8079
  131MOL    H1134071   6.768   3.001   1.277  1.4576 -0.8619 -1.0236
  131MOL    H1234072   6.684   3.246   1.216  1.1521 -0.3194  0.9343
  131MOL    H1334073   6.712   3.179   1.055 -1.0112  0.1971 -0.2804
  131MOL    H1434074   7.222   3.209   1.173 -1.4440  0.7561 -2.1417
  131MOL    C1534075   6.788   3.369   1.078  0.3742  0.3790 -0.2113
  131MOL    C1634076   6.660   3.440   1.040 -0.4099 -0.8790  0.1016
  131MOL    C1734077   6.633   3.571   1.052 -0.4724 -0.0649  0.5744
  131MOL    C1834078   6.731   3.683   1.088 -0.9328 -0.1691 -0.7817
  131MOL    C1934079   6.496   3.625   1.024  0.5542  0.0813  0.2114
  131MOL    H2034080   6.847   3.359   0.988 -0.3553  2.8885 -1.0143
  131MOL    H2134081   6.850   3.425   1.148 -0.8696 -0.5484  1.6900
  131MOL    H2234082   6.580   3.373   1.011  0.0216  0.5106 -4.5930
  131MOL    H2334083   6.733   3.762   1.013 -2.6503  1.0487  0.3978
  131MOL    H2434084   6.832   3.640   1.090 -0.4080  0.9799 -1.9116
  131MOL    H2534085   6.708   3.727   1.185  1.1824 -0.5618 -0.0646
  131MOL    H2634086   6.425   3.543   1.016  0.5822  0.1362 -0.6262
  131MOL    H2734087   6.513   3.673   0.928  0.8004  1.5913  0.9864
  131MOL    C2834088   6.436   3.722   1.129  0.3109 -0.7911 -0.9354
  131MOL    C2934089   6.290   3.770   1.102  0.1484 -0.3781  0.2442
  131MOL    C3034090   6.215   3.853   1.173  0.8791  0.0324 -0.4423
  131MOL    C3134091   6.265   3.916   1.299 -0.3688  0.5617 -0.0397
  131MOL    C3234092   6.069   3.874   1.141 -0.3206  0.1739 -0.2394
  131MOL    H3334093   6.501   3.808   1.144  0.7697 -0.9319 -2.0576
  131MOL    H3434094   6.444   3.669   1.224  0.6783  0.8172 -0.0600
  131MOL    H3534095   6.243   3.722   1.017  3.7283 -0.7296 -1.6038
  131MOL    H3634096   6.257   4.025   1.302  0.1560  0.7076 -2.6840
  131MOL    H3734097   6.371   3.895   1.312 -0.8811 -1.0992  1.5685
  131MOL    H3834098   6.213   3.879   1.387 -0.0977  1.3393  0.4640
  131MOL    H3934099   6.010   3.829   1.221  0.2691 -1.4825 -0.7121
  131MOL    H4034100   6.040   3.822   1.049  1.5124  0.4017 -0.9494
  131MOL    C4134101   6.038   4.019   1.112 -0.0514 -0.1925 -0.4989
  131MOL    C4234102   5.896   4.037   1.076  0.0900  0.0017 -0.4311
  131MOL    C4334103   5.840   4.058   0.954 -0.2261  0.3660 -0.2820
  131MOL    C4434104   5.924   4.075   0.830 -0.0322  0.5875 -0.6837
  131MOL    C4534105   5.691   4.051   0.933 -0.0241  0.6543  0.1406
  131MOL    H4634106   6.103   4.051   1.030 -1.6131 -0.0800 -1.7367
  131MOL    H4734107   6.072   4.089   1.188 -0.8032 -0.5823  0.1987
  131MOL    H4834108   5.823   4.028   1.156  0.7884  0.8700  0.3063
  131MOL    H4934109   6.013   4.012   0.829 -0.7553 -0.4475 -0.7502
  131MOL    H5034110   5.961   4.177   0.843 -1.1108  0.7380  1.3771
  131MOL    H5134111   5.877   4.067   0.732  0.1287  0.9355 -0.7908
  131MOL    H5234112   5.641   4.009   1.020 -2.2825 -1.1885 -1.9509
  131MOL    H5334113   5.678   3.974   0.857 -1.0265 -1.1436  2.0639
  131MOL    C5434114   5.629   4.181   0.884  0.2141  0.5093  0.7403
  131MOL    C5534115   5.597   4.274   0.999 -0.3675 -0.2299  0.8272
  131MOL    C5634116   5.482   4.277   1.076 -0.8664  0.4737 -0.1570
  131MOL    C5734117   5.372   4.181   1.039 -0.0185  0.4034  0.5542
  131MOL    C5834118   5.464   4.383   1.190  0.4547  0.2527 -0.0977
  131MOL    H5934119   5.546   4.151   0.819  2.0379 -0.4528 -1.2314
  131MOL    H6034120   5.681   4.240   0.808  0.5510 -2.0118 -1.0680
  131MOL    H6134121   5.687   4.329   1.022 -0.6679  1.0777 -0.9699
  131MOL    H6234122   5.293   4.235   0.986  1.3742 -0.5442 -2.5566
  131MOL    H6334123   5.330   4.146   1.134  0.2766 -0.1443  0.4851
  131MOL    H6434124   5.403   4.092   0.985  1.2880  0.9938  0.3068
  131MOL    H6534125   5.431   4.336   1.282  1.2141  0.6638  0.3896
  131MOL    H6634126   5.380   4.441   1.152  0.8147  0.3993 -0.6761
  131MOL    C6734127   5.588   4.479   1.219 -0.0800  0.2091  0.4871
  131MOL    C6834128   5.680   4.407   1.310  0.0724 -0.7519  0.6817
  131MOL    C6934129   5.772   4.450   1.399 -0.0008 -0.3257 -0.4501
  131MOL    C7034130   5.803   4.596   1.431  0.5596 -0.7101 -0.2556
  131MOL    C7134131   5.858   4.354   1.481  0.0084 -0.3065 -0.8055
  131MOL    H7234132   5.548   4.561   1.279  1.4102  0.0490  1.7348
  131MOL    H7334133   5.630   4.527   1.131  0.2776  0.6531  0.8974
  131MOL    H7434134   5.680   4.299   1.304 -0.0598 -0.7548  0.7369
  131MOL    H7534135   5.905   4.620   1.400  0.9815  0.7796  2.1553
  131MOL    H7634136   5.784   4.613   1.537 -1.2596 -1.0082 -0.5124
  131MOL    H7734137   5.744   4.660   1.366 -0.8869  1.0335  2.6522
  131MOL    H7834138   5.792   4.286   1.534  1.3557 -0.0711  1.2070
  131MOL    H7934139   5.915   4.404   1.559  2.7388 -1.8544 -1.7334
  131MOL    C8034140   5.957   4.277   1.388 -0.1771 -0.3112  0.1229
  131MOL    C8134141   6.069   4.369   1.335  0.6214  0.3394 -0.1546
  131MOL    C8234142   6.086   4.418   1.211  0.9500 -0.4690  0.2878
  131MOL    C8334143   5.985   4.398   1.095  0.2831 -0.6628  0.1515
  131MOL    C8434144   6.206   4.505   1.168 -0.9036  0.3860 -0.2151
  131MOL    H8534145   5.906   4.221   1.310  0.6653 -2.0420  0.8029
  131MOL    H8634146   6.011   4.200   1.442 -1.8865 -0.6942  1.3358
  131MOL    H8734147   6.146   4.382   1.409 -1.8730 -0.5135  2.6727
  131MOL    H8834148   5.933   4.487   1.059 -1.6123 -1.6507  0.3801
  131MOL    H8934149   5.897   4.341   1.123 -1.8443  0.5934 -3.6082
  131MOL    H9034150   6.025   4.340   1.012 -2.2849  0.2813 -1.8042
  131MOL    H9134151   6.167   4.607   1.161  2.4604  1.7712 -0.0502
  131MOL    H9234152   6.243   4.475   1.070 -0.3906 -0.5451  0.2604
  131MOL    C9334153   6.328   4.495   1.256  0.2770 -0.4742 -0.4231
  131MOL    C9434154   6.460   4.541   1.199 -0.1870  0.5237 -0.7633
  131MOL    C9534155   6.558   4.580   1.281 -0.1267 -0.4277  0.0833
  131MOL    C9634156   6.554   4.570   1.437 -0.0583  0.0335  0.2231
  131MOL    C9734157   6.678   4.648   1.226  0.2248  0.5357 -0.7586
  131MOL    H9834158   6.354   4.390   1.268 -0.7674 -0.6657  0.2821
  131MOL    H9934159   6.295   4.545   1.347 -0.5281 -0.4065 -0.7433
  131MOL   H10034160   6.472   4.548   1.092  0.5612  0.1522 -0.7007
  131MOL   H10134161   6.462   4.529   1.480 -1.3278  3.2929  0.7964
  131MOL   H10234162   6.560   4.670   1.481 -0.9732 -0.1326  0.7524
  131MOL   H10334163   6.637   4.514   1.479  0.3524 -0.4365 -1.1822
  131MOL   H10434164   6.679   4.754   1.252  2.5580  0.2576  0.4590
  131MOL   H10534165   6.669   4.648   1.118 -0.7005  2.5040 -0.7034
  131MOL   C10634166   6.814   4.585   1.277 -0.1624 -0.2343 -0.3139
  131MOL   C10734167   6.931   4.633   1.195  0.7308 -0.3740 -0.5345
  131MOL   C10834168   7.050   4.688   1.234  0.2936  0.5279 -1.0827
  131MOL   C10934169   7.085   4.716   1.378 -0.5276  0.6503 -0.0800
  131MOL   C11034170   7.157   4.722   1.133 -0.1876  0.9821 -0.0445
  131MOL   H11134171   6.806   4.476   1.276  4.1454 -0.6339 -0.8408
  131MOL   H11234172   6.820   4.617   1.381  1.4255  0.5448 -0.6324
  131MOL   H11334173   6.926   4.606   1.090 -0.4727  0.1866 -0.6408
  131MOL   H11434174   7.054   4.810   1.424 -1.3998  0.1885  0.2869
  131MOL   H11534175   7.193   4.713   1.390 -0.4260 -0.1830 -1.0956
  131MOL   H11634176   7.048   4.632   1.437  1.9681  0.1858  0.8873
  131MOL   H11734177   7.112   4.693   1.038  0.2199 -0.5205  0.2010
  131MOL   H11834178   7.245   4.663   1.156 -1.0741  0.0522  0.9844
  131MOL   C11934179   7.195   4.871   1.149 -0.3508 -0.0545  0.6231
  131MOL   C12034180   7.324   4.889   1.077  0.5124  0.5567 -0.4669
  131MOL   C12134181   7.444   4.893   1.131 -0.4545 -0.1082  0.1384
  131MOL   C12234182   7.472   4.864   1.277  0.8999 -0.3424 -0.3623
  131MOL   C12334183   7.571   4.900   1.048  0.1073  0.5520  0.5821
  131MOL   H12434184   7.200   4.909   1.252  0.9937 -0.0738  0.5651
  131MOL   H12534185   7.128   4.934   1.091  0.9603 -0.3905 -1.2882
  131MOL   H12634186   7.330   4.877   0.970  3.4020 -1.1582 -0.1531
  131MOL   H12734187   7.394   4.810   1.329  1.5927 -0.9069  0.1064
  131MOL   H12834188   7.483   4.952   1.340 -0.5655 -1.0542  0.9042
  131MOL   H12934189   7.564   4.805   1.276  0.6772 -0.6885 -1.1331
  131MOL   H13034190   7.534   4.929   0.949 -1.6793 -2.0613  0.4278
  131MOL   H13134191   7.605   4.797   1.037  1.4454  0.9822  0.6647
  131MOL   C13234192   7.667   5.007   1.094 -0.1566  0.1767 -0.6872
  131MOL   C13334193   7.783   5.032   1.004 -0.1033 -0.1781 -0.3168
  131MOL   C13434194   7.864   5.136   1.004  0.2588 -0.1076 -0.2014
  131MOL   C13534195   7.863   5.239   1.117  0.1989 -0.2580  0.0553
  131MOL   C13634196   0.109   5.138   0.914 -0.0249 -0.1516 -0.3960
  131MOL   H13734197   7.707   4.964   1.186 -0.7787  2.5168  0.7366
  131MOL   H13834198   7.614   5.095   1.132 -2.9024 -0.8467 -2.0637
  131MOL   H13934199   7.803   4.949   0.938 -0.1680 -0.1850 -0.3286
  131MOL   H14034200   7.843   5.339   1.078 -0.1633 -0.2378  0.2997
  131MOL   H14134201   0.082   5.243   1.157  0.8733 -0.8485 -1.5520
  131MOL   H14234202   7.797   5.220   1.201  1.7365  3.0963  2.1471
  131MOL   H14334203   0.097   5.060   0.838 -2.1815  1.8513 -2.1704
  131MOL   H14434204   0.193   5.107   0.976  1.1027  0.7428 -1.4465
  131MOL   C14534205   0.134   5.270   0.839  0.5973 -0.3451  0.3901
  131MOL   C14634206   0.247   5.278   0.747 -0.0320  0.3967  0.3681
  131MOL   C14734207   0.325   5.383   0.723  0.2981 -0.4517  0.0481
  131MOL   C14834208   0.314   5.525   0.785 -0.3263  0.8384  0.0951
  131MOL   C14934209   0.423   5.379   0.608  0.5528 -0.3348  0.1106
  131MOL   H15034210   0.124   5.356   0.905 -0.5359 -1.2548  1.4255
  131MOL   H15134211   0.058   5.283   0.761  1.4971  1.2196 -0.2606
  131MOL   H15234212   0.269   5.190   0.688  1.6444 -0.1936  1.8202
  131MOL   H15334213   0.273   5.589   0.707  0.9925  0.4565 -0.9331
  131MOL   H15434214   0.413   5.568   0.795 -0.0361  0.1571  0.2054
  131MOL   H15534215   0.252   5.525   0.875  0.0288  1.7702  0.3428
  131MOL   H15634216   0.527   5.405   0.631  0.7671 -0.7939 -0.3173
  131MOL   H15734217   0.411   5.464   0.540 -0.0029 -2.5524 -2.6675
  131MOL   C15834218   0.431   5.260   0.514 -0.0821 -0.2198 -0.0632
  131MOL   C15934219   0.544   5.271   0.408 -0.1013 -0.3013  0.6598
  131MOL   C16034220   0.651   5.197   0.380 -0.4196 -0.2640  0.1581
  131MOL   C16134221   0.670   5.074   0.469  0.5159  1.1415  0.3980
  131MOL   C16234222   0.743   5.230   0.270 -0.6742  0.0003 -0.1882
  131MOL   H16334223   0.336   5.247   0.461 -0.7584 -0.7808  1.2653
  131MOL   H16434224   0.440   5.167   0.569 -0.2126  0.3088  0.8752
  131MOL   H16534225   0.527   5.359   0.348  0.9622  1.1910  2.4907
  131MOL   H16634226   0.657   5.099   0.574 -0.5583  0.5239  0.4118
  131MOL   H16734227   0.772   5.035   0.457  0.2842 -0.0583  2.1664
  131MOL   H16834228   0.593   5.003   0.441  0.5960  1.3905 -0.4613
  131MOL   H16934229   0.721   5.322   0.216  0.5320 -0.2089 -1.0738
  131MOL   H17034230   0.730   5.153   0.194 -1.0547 -0.6973  0.5786
  131MOL   C17134231   0.886   5.254   0.308 -0.3667 -0.0943 -0.0708
  131MOL   C17234232   0.917   5.365   0.402 -0.4136 -0.3021  0.7122
  131MOL   C17334233   1.040   5.416   0.431  0.2264  0.1546 -0.6545
  131MOL   C17434234   1.167   5.369   0.356  0.0716 -0.4574  0.3439
  131MOL   C17534235   1.056   5.515   0.537 -0.0464  0.4229  0.1104
  131MOL   H17634236   0.935   5.277   0.213  1.2426 -1.5137  0.3886
  131MOL   H17734237   0.940   5.170   0.352  1.4337 -1.3286 -4.3318
  131MOL   H17834238   0.833   5.402   0.460 -1.4502  0.1163 -1.0361
  131MOL   H17934239   1.239   5.319   0.421  0.8025  1.6893  1.2022
  131MOL   H18034240   1.221   5.452   0.312  2.3562 -1.5561  1.0292
  131MOL   H18134241   1.146   5.298   0.275  1.9267  0.1575 -0.6991
  131MOL   H18234242   0.959   5.561   0.558 -0.2893  0.8415 -1.8408
  131MOL   H18334243   1.114   5.595   0.493  1.1280  0.1551  1.1621
  131MOL   C18434244   1.113   5.441   0.657 -0.0616  0.1059  0.6194
  131MOL   C18534245   1.033   5.338   0.726  1.0458  0.0871  0.4173
  131MOL   C18634246   1.064   5.287   0.852 -0.1868 -0.0446 -0.2652
  131MOL   C18734247   1.197   5.314   0.929 -0.2000  0.2607 -0.4116
  131MOL   C18834248   0.982   5.179   0.917  0.4752  0.3167  0.5535
  131MOL   H18934249   1.140   5.523   0.724  0.6225 -0.0617  0.5553
  131MOL   H19034250   1.202   5.388   0.625 -0.3265  0.1239 -0.1412
  131MOL   H19134251   0.945   5.304   0.675  2.1879 -3.3147  0.5946
  131MOL   H19234252   1.269   5.233   0.910 -1.2533 -1.0192  0.9294
  131MOL   H19334253   1.166   5.320   1.033 -2.9868  1.8419 -1.2928
  131MOL   H19434254   1.251   5.408   0.919 -0.7829  0.6514  0.1414
  131MOL   H19534255   0.931   5.218   1.005  0.5783 -1.2317  1.3065
  131MOL   H19634256   1.060   5.117   0.961  1.7076 -0.5223 -2.6899
  131MOL   C19734257   0.877   5.106   0.831 -0.4303  0.6919  0.1708
  131MOL   C19834258   0.791   5.020   0.915  0.6407  0.5896 -0.1502
  131MOL   C19934259   0.659   5.041   0.948 -0.0699 -0.0412 -0.4308
  131MOL   C20034260   0.576   5.162   0.917  0.0799  0.0386  0.4908
  131MOL   C20134261   0.595   4.951   1.049  0.3839 -0.3224  0.4501
  131MOL   H20234262   0.925   5.051   0.750 -0.0736  0.3857  0.5868
  131MOL   H20334263   0.810   5.175   0.780  1.2463  0.5433 -2.3405
  131MOL   H20434264   0.841   4.927   0.939 -1.4329 -0.5021  0.1431
  131MOL   H20534265   0.521   5.205   1.002 -2.6858 -0.6871 -0.8738
  131MOL   H20634266   0.501   5.108   0.859 -1.2340 -0.0991  2.2640
  131MOL   H20734267   0.614   5.249   0.864 -1.0214 -1.0580 -2.1482
  131MOL   H20834268   0.620   4.847   1.026  0.8134 -0.0617 -0.2852
  131MOL   H20934269   0.486   4.953   1.044  0.3252  1.9445  2.2835
  131MOL   C21034270   0.652   4.974   1.188 -0.6051 -0.0182 -0.2960
  131MOL   C21134271   0.559   4.909   1.288  0.1318 -0.3244 -0.5524
  131MOL   C21234272   0.558   4.790   1.345 -0.7094  0.9678  0.4919
  131MOL   C21334273   0.665   4.687   1.321 -0.2103  0.3052 -0.8921
  131MOL   C21434274   0.449   4.749   1.441 -0.0853  0.4206  0.6111
  131MOL   H21534275   0.652   5.082   1.204  2.1369 -0.0718  0.2405
  131MOL   H21634276   0.748   4.923   1.195 -1.1203 -1.2315 -1.8705
  131MOL   H21734277   0.475   4.976   1.298  1.0409  0.4438  2.2866
  131MOL   H21834278   0.677   4.638   1.418  0.6032 -0.7558 -1.5203
  131MOL   H21934279   0.763   4.730   1.299  0.0002  0.5753  0.5359
  131MOL   H22034280   0.633   4.628   1.235  0.6979  1.4389 -2.0249
  131MOL   H22134281   0.379   4.827   1.471 -1.6300 -0.5265 -0.3943
  131MOL   H22234282   0.500   4.710   1.528  0.6870  0.6651  0.2713
  131MOL   C22334283   0.359   4.643   1.373 -0.0197 -0.3288  0.3534
  131MOL   C22434284   0.245   4.589   1.455  0.1663  0.4650 -0.2900
  131MOL   C22534285   0.114   4.584   1.423 -0.6350  0.6369  0.7823
  131MOL   C22634286   0.059   4.631   1.282  0.3182  0.3430 -0.3482
  131MOL   C22734287   0.007   4.523   1.512  0.0647 -0.2274  0.7874
  131MOL   H22834288   0.422   4.558   1.349 -1.4769 -0.9657 -1.3771
  131MOL   H22934289   0.329   4.692   1.280  1.0467  0.5312  0.4656
  131MOL   H23034290   0.286   4.553   1.548 -0.7468  0.2311  0.0289
  131MOL   H23134291   0.123   4.635   1.193  1.5420 -0.1637  0.5010
  131MOL   H23234292   0.031   4.736   1.295  0.1495  0.1906  0.5234
  131MOL   H23334293   7.862   4.565   1.248  0.2000  0.3172 -0.0223
  131MOL   H23434294   0.054   4.509   1.609  0.7183 -2.2870  0.1943
  131MOL   H23534295   7.858   4.427   1.469  1.9200 -0.5812  0.1928
  131MOL   C23634296   7.766   4.619   1.525  0.2802 -0.2502 -0.1087
  131MOL   C23734297   7.683   4.609   1.656 -0.0264 -0.1207 -0.0489
  131MOL   C23834298   7.602   4.704   1.699 -0.3889  0.0586  0.2357
  131MOL   C23934299   7.559   4.818   1.606 -0.4432 -0.4743  0.2817
  131MOL   C24034300   7.537   4.717   1.836 -0.1609 -0.8702 -0.4193
  131MOL   H24134301   7.706   4.605   1.435  0.9873  0.5786 -0.7116
  131MOL   H24234302   7.789   4.725   1.522  0.9591 -0.3184  2.0285
  131MOL   H24334303   7.722   4.534   1.723  0.4865  1.2754  1.2484
  131MOL   H24434304   7.588   4.814   1.502  0.2167  0.7489  0.4175
  131MOL   H24534305   7.601   4.913   1.636  1.1642 -0.7637 -1.0170
  131MOL   H24634306   7.450   4.832   1.606 -0.4493 -0.5423 -0.3650
  131MOL   H24734307   7.562   4.630   1.898  0.8632  0.8484  1.6819
  131MOL   H24834308   7.430   4.728   1.823  0.0608  0.5011 -1.1289
  131MOL   C24934309   7.577   4.845   1.912 -0.1286  0.0688  1.2024
  131MOL   C25034310   7.504   4.873   2.043 -0.5404  0.0386  0.0234
  131MOL   C25134311   7.495   4.989   2.109  0.1213  0.2872 -0.1710
  131MOL   C25234312   7.585   5.100   2.074 -0.0913 -0.0465  0.5671
  131MOL   C25334313   7.410   5.004   2.227  0.4179 -0.6283 -0.7341
  131MOL   H25434314   7.557   4.935   1.854 -0.4051 -2.3381 -2.5732
  131MOL   H25534315   7.684   4.853   1.931 -0.0277  2.8446 -0.2652
  131MOL   H25634316   7.446   4.790   2.079  0.3920 -1.0102 -0.8731
  131MOL   H25734317   7.665   5.084   2.002 -1.4786 -0.5894 -0.8721
  131MOL   H25834318   7.619   5.146   2.167 -0.9206  1.3181  0.2119
  131MOL   H25934319   7.521   5.171   2.022  1.5511  0.3783 -0.9167
  131MOL   H26034320   7.341   4.921   2.236 -0.0517 -0.1192  0.3911
  131MOL   H26134321   7.345   5.089   2.206 -0.3169 -1.2629 -1.0492
  131MOL   H26234322   7.476   5.032   2.310 -0.5853  2.8302 -0.9972
  132MOL     C134323   3.989   4.934   0.946 -0.2189  0.2784 -0.2119
  132MOL     C234324   3.992   4.782   0.919  0.6882 -0.7103 -0.1027
  132MOL     C334325   4.094   4.704   0.890 -0.1238 -0.0717  0.6391
  132MOL     C434326   4.234   4.752   0.876 -0.4232  0.5114  0.0480
  132MOL     C534327   4.071   4.553   0.851  0.4904  0.3096 -0.0394
  132MOL     H634328   3.988   4.969   1.049  1.6699 -0.4673  0.0856
  132MOL     H734329   4.083   4.977   0.911  1.3593 -1.9618  1.1039
  132MOL     H834330   3.891   4.745   0.926  0.5302 -0.2742 -0.0393
  132MOL     H934331   4.306   4.684   0.923 -0.0996  0.0103 -1.1532
  132MOL    H1034332   4.245   4.838   0.942  0.7364 -0.3866  1.0644
  132MOL    H1134333   4.257   4.782   0.774  1.4238  1.3643  0.6760
  132MOL    H1234334   3.969   4.535   0.887  0.1956 -1.4143 -1.6494
  132MOL    H1334335   4.137   4.496   0.916  1.4050  0.0134 -1.2168
  132MOL    H1434336   3.902   4.976   0.897  1.0927  1.4474 -1.5868
  132MOL    C1534337   4.096   4.528   0.707 -0.1921  0.0212 -0.1231
  132MOL    C1634338   4.066   4.389   0.666  0.6274 -0.3791  0.3857
  132MOL    C1734339   4.004   4.353   0.547 -0.0677  0.1988  0.1952
  132MOL    C1834340   3.957   4.455   0.445  0.4965  0.0814 -0.7045
  132MOL    C1934341   3.980   4.206   0.502  0.0363 -0.5343 -0.6682
  132MOL    H2034342   4.200   4.547   0.679 -0.4532 -0.0243 -1.1242
  132MOL    H2134343   4.037   4.600   0.651 -2.2595 -1.6079 -0.0948
  132MOL    H2234344   4.098   4.310   0.733 -0.8496 -0.3955  1.0921
  132MOL    H2334345   3.904   4.537   0.493  0.7448 -0.7085  0.9313
  132MOL    H2434346   3.907   4.403   0.363 -0.1146  1.1920 -1.0373
  132MOL    H2534347   4.046   4.490   0.394  0.4549 -1.1161 -1.6375
  132MOL    H2634348   3.879   4.188   0.467 -0.8982  0.1218  1.5580
  132MOL    H2734349   3.982   4.133   0.583  0.3142 -1.0775 -1.1665
  132MOL    C2834350   4.069   4.168   0.382 -0.3841  0.8345  0.0402
  132MOL    C2934351   4.039   4.025   0.340  0.2252 -0.4669 -0.3542
  132MOL    C3034352   4.125   3.942   0.281  0.1482  0.3801  0.0319
  132MOL    C3134353   4.256   3.985   0.238 -1.1002  0.5138 -0.4286
  132MOL    C3234354   4.101   3.790   0.253 -0.3340 -0.5091  0.3990
  132MOL    H3334355   4.170   4.161   0.423  0.0057 -2.1953 -1.2952
  132MOL    H3434356   4.076   4.236   0.297 -0.4525 -0.4324 -0.9965
  132MOL    H3534357   3.946   3.981   0.372 -0.6000 -0.2995 -2.4520
  132MOL    H3634358   4.265   3.967   0.131  0.7817 -1.1428 -0.0159
  132MOL    H3734359   4.326   3.921   0.290  0.0548  1.9473 -0.1789
  132MOL    H3834360   4.290   4.082   0.276  2.6903 -1.4256  1.3273
  132MOL    H3934361   4.180   3.744   0.312  0.5547 -0.9355 -1.0909
  132MOL    H4034362   4.121   3.765   0.149 -0.5109 -0.2360  0.2974
  132MOL    C4134363   3.967   3.730   0.287  0.4517 -0.0656 -0.4311
  132MOL    C4234364   3.956   3.589   0.247 -0.0679  0.4429  0.0388
  132MOL    C4334365   3.961   3.484   0.335 -0.2582 -0.8160  0.2762
  132MOL    C4434366   3.981   3.488   0.483  0.1482 -0.4490 -0.0653
  132MOL    C4534367   3.962   3.341   0.277 -0.1520 -0.0027  0.0360
  132MOL    H4634368   3.888   3.784   0.235  1.4956  1.6537 -0.2564
  132MOL    H4734369   3.950   3.750   0.393  0.6016 -1.6783 -0.0893
  132MOL    H4834370   3.946   3.568   0.142 -1.1047  3.6062 -0.5443
  132MOL    H4934371   3.932   3.577   0.523  0.5846  1.5214 -3.7099
  132MOL    H5034372   4.089   3.497   0.500  0.0074  0.0517  0.6163
  132MOL    H5134373   3.943   3.410   0.548  1.1807  1.2299  2.6898
  132MOL    H5234374   3.911   3.333   0.181 -1.8175  0.3460  0.8736
  132MOL    H5334375   3.902   3.275   0.339 -0.0620  1.6889  1.9512
  132MOL    C5434376   4.104   3.289   0.263  0.9075  0.2356 -0.1048
  132MOL    C5534377   4.105   3.138   0.244 -0.3722 -0.0366 -0.1604
  132MOL    C5634378   4.185   3.062   0.166 -0.3227  0.4538 -0.0072
  132MOL    C5734379   4.304   3.117   0.094 -0.3765  0.2738  0.7814
  132MOL    C5834380   4.163   2.907   0.164 -0.3218  0.2731 -0.7088
  132MOL    H5934381   4.163   3.310   0.353  0.6827 -2.2376  0.6558
  132MOL    H6034382   4.152   3.337   0.178  0.9782 -1.6586 -1.1613
  132MOL    H6134383   4.026   3.089   0.298  0.1560 -0.7475 -0.0348
  132MOL    H6234384   4.346   3.211   0.131  1.5037 -0.3169  0.1773
  132MOL    H6334385   4.280   3.137   7.872 -0.3435 -1.2801  0.4683
  132MOL    H6434386   4.384   3.044   0.095 -0.0036  0.6685  0.2328
  132MOL    H6534387   4.089   2.883   0.240  1.2615 -2.0686  0.1469
  132MOL    H6634388   4.244   2.844   0.201  0.3322  0.9462 -0.9873
  132MOL    C6734389   4.112   2.855   0.028  0.3984 -0.0614  0.1756
  132MOL    C6834390   4.114   2.701   0.014  1.0777  0.4662  0.1482
  132MOL    C6934391   4.070   2.633   7.787  0.7735 -0.4644 -0.8428
  132MOL    C7034392   4.005   2.695   7.666 -0.0772 -1.0160  0.4629
  132MOL    C7134393   4.081   2.483   7.779 -0.8257 -0.0773  0.5428
  132MOL    H7234394   4.171   2.895   7.828  1.4868 -0.7712  0.5952
  132MOL    H7334395   4.009   2.890   0.017  0.0589  0.0232  3.0719
  132MOL    H7434396   4.155   2.651   0.100  0.7570 -3.4595 -1.8721
  132MOL    H7534397   4.063   2.676   7.575 -4.7008 -0.5352 -2.7648
  132MOL    H7634398   3.996   2.804   7.668 -1.4755 -1.0769 -1.5983
  132MOL    H7734399   3.905   2.654   7.653 -0.6768  0.8518 -1.1893
  132MOL    H7834400   4.155   2.460   7.856 -2.2329 -3.5136  0.9456
  132MOL    H7934401   4.146   2.443   7.702  1.2284 -0.9994  2.6982
  132MOL    C8034402   3.946   2.407   7.789 -0.4849 -0.4907  0.1934
  132MOL    C8134403   3.969   2.260   7.821  0.7035 -0.7333 -0.6535
  132MOL    C8234404   3.906   2.181   0.031  0.3314  0.1732  0.6934
  132MOL    C8334405   3.792   2.215   0.127 -0.5180  0.6376 -0.1118
  132MOL    C8434406   3.940   2.034   0.031 -0.5034 -0.2715  0.2528
  132MOL    H8534407   3.896   2.415   7.692 -2.6348 -0.6218  1.2744
  132MOL    H8634408   3.874   2.455   7.856 -1.2696 -0.8731 -0.3712
  132MOL    H8734409   4.044   2.215   7.757  1.8163 -0.4046  0.4132
  132MOL    H8834410   3.705   2.163   0.087 -0.4934 -1.2606  2.1691
  132MOL    H8934411   3.756   2.317   0.122 -0.7063  0.6041  0.5333
  132MOL    H9034412   3.813   2.187   0.230 -0.0557  1.2162 -0.0487
  132MOL    H9134413   4.021   2.012   7.844  1.3128  1.7228  1.6809
  132MOL    H9234414   3.860   1.971   7.873 -1.9726  0.8314  1.3676
  132MOL    C9334415   4.002   1.989   0.167 -0.0349 -0.0415  0.0092
  132MOL    C9434416   4.041   1.846   0.159  0.4653 -0.1593  1.0630
  132MOL    C9534417   4.011   1.746   0.246 -0.3467 -0.5516  0.0436
  132MOL    C9634418   3.940   1.771   0.377 -0.6986 -1.2073 -0.2255
  132MOL    C9734419   4.061   1.603   0.208  0.0466 -0.3684  0.3883
  132MOL    H9834420   3.934   1.986   0.252 -0.7605  1.8047 -0.4894
  132MOL    H9934421   4.094   2.038   0.198  0.1938 -1.3828  1.4877
  132MOL   H10034422   4.103   1.816   0.075 -0.0621  0.2353  0.5365
  132MOL   H10134423   3.995   1.820   0.457 -0.6612  0.7114 -1.4119
  132MOL   H10234424   3.893   1.679   0.412 -1.4480 -1.2505 -1.3122
  132MOL   H10334425   3.859   1.843   0.377  0.2794  0.0450  3.9466
  132MOL   H10434426   4.082   1.593   0.101  0.0037  1.0149  0.2355
  132MOL   H10534427   3.979   1.533   0.222 -1.3297  1.3030  0.9899
  132MOL   C10634428   4.177   1.554   0.300  0.0212 -0.7767  0.1606
  132MOL   C10734429   4.217   1.408   0.298  0.2686  0.7455  0.4154
  132MOL   C10834430   4.178   1.321   0.390 -0.1045  0.3695  0.0969
  132MOL   C10934431   4.093   1.345   0.512  0.1054  0.1769  0.2596
  132MOL   C11034432   4.216   1.175   0.370 -0.3596 -0.3959 -0.0745
  132MOL   H11134433   4.168   1.583   0.405 -2.5216 -1.9997  0.3139
  132MOL   H11234434   4.266   1.611   0.271 -1.4216  1.4809  0.0585
  132MOL   H11334435   4.264   1.382   0.204 -1.3792 -0.2234 -0.1751
  132MOL   H11434436   4.039   1.440   0.512 -0.8485 -0.3564 -0.8297
  132MOL   H11534437   4.146   1.346   0.607 -0.2221 -0.0263  0.4453
  132MOL   H11634438   4.018   1.267   0.518 -0.1018  0.4417  1.2656
  132MOL   H11734439   4.202   1.122   0.464 -2.1123  0.6096  0.2511
  132MOL   H11834440   4.317   1.158   0.333  0.0762  1.2959  0.2936
  132MOL   C11934441   4.124   1.096   0.274  0.4114  0.6310 -0.9264
  132MOL   C12034442   4.177   0.960   0.249 -0.1247  0.0685 -0.4754
  132MOL   C12134443   4.165   0.878   0.134 -0.3287  0.3474 -0.1968
  132MOL   C12234444   4.094   0.924   0.011 -0.7941  0.5359 -0.3008
  132MOL   C12334445   4.254   0.756   0.111  0.1995 -0.3785  0.3499
  132MOL   H12434446   4.108   1.160   0.187 -2.0195  2.7466  0.9928
  132MOL   H12534447   4.022   1.097   0.313 -0.0569  0.6021 -2.1358
  132MOL   H12634448   4.240   0.937   0.334  1.7939 -1.1221 -2.1701
  132MOL   H12734449   4.028   0.845   7.857  0.8375 -2.3719  2.8259
  132MOL   H12834450   4.158   0.955   7.811  0.1573  2.9351  1.2766
  132MOL   H12934451   4.033   1.009   0.043 -1.4140 -0.5882  1.5394
  132MOL   H13034452   4.343   0.752   0.173  2.0058 -0.9013 -2.1872
  132MOL   H13134453   4.299   0.768   0.012 -2.7720  2.5226 -0.7623
  132MOL   C13234454   4.174   0.626   0.114  0.2139  0.7690  0.5434
  132MOL   C13334455   4.266   0.505   0.118  0.4637  0.2779  0.0829
  132MOL   C13434456   4.308   0.437   0.230  1.1901 -0.4557  0.1542
  132MOL   C13534457   4.259   0.479   0.374  0.3829  0.6624 -0.0053
  132MOL   C13634458   4.402   0.316   0.237 -0.7039 -1.0587 -0.3919
  132MOL   H13734459   4.120   0.616   0.020  1.3291  1.3208 -0.1700
  132MOL   H13834460   4.096   0.627   0.190 -1.2801  0.5897 -0.9447
  132MOL   H13934461   4.294   0.471   0.020  1.1386 -0.6914  0.6047
  132MOL   H14034462   4.332   0.526   0.441  1.1794 -1.0489  0.3551
  132MOL   H14134463   4.227   0.387   0.423  0.4686  1.2836  1.2170
  132MOL   H14234464   4.176   0.549   0.369 -0.4892 -0.4087 -0.5862
  132MOL   H14334465   4.401   0.274   0.137  1.2550  1.4362 -1.5091
  132MOL   H14434466   4.359   0.240   0.302  0.6932 -0.5724  1.1339
  132MOL   C14534467   4.543   0.346   0.294 -0.4971 -0.1194  0.2075
  132MOL   C14634468   4.648   0.229   0.266 -0.1211  0.0509 -0.2004
  132MOL   C14734469   4.750   0.240   0.182 -0.1816 -0.4383  0.7113
  132MOL   C14834470   4.795   0.371   0.120 -1.1475  0.1398 -0.1406
  132MOL   C14934471   4.819   0.112   0.151  0.2575 -0.3312  0.2307
  132MOL   H15034472   4.545   0.329   0.401 -0.0214 -1.5071 -0.0100
  132MOL   H15134473   4.581   0.446   0.276 -0.7921  0.0666  0.6372
  132MOL   H15234474   4.629   0.136   0.318  0.1730  0.2613  0.2944
  132MOL   H15334475   4.864   0.415   0.192 -1.9050 -1.8411  1.8775
  132MOL   H15434476   4.721   0.449   0.104 -0.8200  0.0176 -2.4687
  132MOL   H15534477   4.867   0.361   0.039 -0.1951 -1.4503  0.8678
  132MOL   H15634478   4.800   0.084   0.047 -0.7771  2.8658 -0.4791
  132MOL   H15734479   4.780   0.028   0.209  1.4478 -0.3944  0.9643
  132MOL   C15834480   4.971   0.112   0.178  0.0283  0.7118 -0.4862
  132MOL   C15934481   5.030   7.860   0.140  0.3744 -0.2363 -0.6807
  132MOL   C16034482   5.155   7.833   0.102 -0.1383  0.4433  0.2301
  132MOL   C16134483   5.258   0.058   0.072 -0.1105 -0.3752 -1.3042
  132MOL   C16234484   5.198   7.690   0.073 -0.0395  0.7434  0.4793
  132MOL   H16334485   4.991   0.122   0.284 -0.6575  2.5788 -0.5086
  132MOL   H16434486   5.015   0.196   0.124 -0.6378  1.5467  0.2601
  132MOL   H16534487   4.969   7.773   0.157 -0.0643  0.6180  2.4568
  132MOL   H16634488   5.278   0.059   7.848  0.0031  3.3473 -1.3100
  132MOL   H16734489   5.354   0.025   0.112 -0.8458 -0.6877  0.2531
  132MOL   H16834490   5.230   0.158   0.103 -0.7584 -1.2070  0.9743
  132MOL   H16934491   5.121   7.623   0.110  0.3822  0.1380  0.2817
  132MOL   H17034492   5.295   7.674   0.120 -1.2140 -0.7354  2.4934
  132MOL   C17134493   5.203   7.648   7.805  0.1585 -0.4399 -0.0278
  132MOL   C17234494   5.209   7.498   7.790 -0.3542  0.2021 -0.6089
  132MOL   C17334495   5.311   7.429   7.731  0.5964 -0.2389  0.6068
  132MOL   C17434496   5.440   7.496   7.688 -0.2241  0.5170 -0.1601
  132MOL   C17534497   5.301   7.281   7.695 -0.1597  0.5391  0.9134
  132MOL   H17634498   5.277   7.704   7.748 -0.1114 -0.5193 -0.4638
  132MOL   H17734499   5.109   7.677   7.756 -0.1175  0.3956  0.9752
  132MOL   H17834500   5.117   7.447   7.813 -0.1628  0.7001  1.3986
  132MOL   H17934501   5.526   7.458   7.744 -0.3521 -0.5110 -0.6379
  132MOL   H18034502   5.457   7.602   7.703 -0.0025  0.7060 -1.7025
  132MOL   H18134503   5.459   7.477   7.582  1.0157  0.2267  0.1059
  132MOL   H18234504   5.398   7.233   7.698 -0.7073 -0.6081  0.5201
  132MOL   H18334505   5.258   7.281   7.595 -1.1436 -1.0758  1.3105
  132MOL   C18434506   5.197   7.207   7.777 -0.3229 -0.0045 -0.0678
  132MOL   C18534507   5.168   7.064   7.739 -0.2096 -0.3060  0.2421
  132MOL   C18634508   5.129   6.973   7.832  0.2915 -0.1467 -0.0390
  132MOL   C18734509   5.115   7.004   0.094  0.4374 -0.0658 -0.1125
  132MOL   C18834510   5.109   6.824   7.796 -0.4107 -0.3653 -0.1775
  132MOL   H18934511   5.100   7.256   7.782 -0.4239 -0.1837 -0.2628
  132MOL   H19034512   5.236   7.215   7.878  0.3720  0.4458 -0.3721
  132MOL   H19134513   5.194   7.031   7.639  2.1258 -1.4489  1.1772
  132MOL   H19234514   5.206   7.045   0.138  1.4998  1.6481 -3.7392
  132MOL   H19334515   5.067   6.918   0.142 -0.1180 -0.2563 -0.9988
  132MOL   H19434516   5.042   7.085   0.102  1.0345  0.5601 -0.9857
  132MOL   H19534517   5.108   6.815   7.687 -3.0976  2.8463 -0.5336
  132MOL   H19634518   5.009   6.805   7.836 -0.0857  1.1468  1.4357
  132MOL   C19734519   5.216   6.736   7.862  1.0630 -0.7547 -0.1493
  132MOL   C19834520   5.208   6.593   7.829 -0.2385 -0.0827 -0.4445
  132MOL   C19934521   5.256   6.493   0.023 -0.9003 -0.8736  0.5575
  132MOL   C20034522   5.334   6.518   0.156 -0.1865  0.3740  0.8365
  132MOL   C20134523   5.258   6.346   7.857 -0.1679 -0.3390  0.0246
  132MOL   H20234524   5.213   6.748   0.088  0.2153  0.3548 -0.2796
  132MOL   H20334525   5.317   6.769   7.836  0.9026 -1.0163 -1.1059
  132MOL   H20434526   5.153   6.571   7.739 -0.1500 -0.7352 -0.3394
  132MOL   H20534527   5.287   6.467   0.240 -2.8468  0.7200 -0.3802
  132MOL   H20634528   5.341   6.622   0.190  2.8205  0.5292 -0.1304
  132MOL   H20734529   5.436   6.486   0.139 -1.0252 -1.8498 -0.1199
  132MOL   H20834530   5.190   6.352   7.772  0.3059  0.2484 -0.3224
  132MOL   H20934531   5.236   6.274   0.053  0.2000 -0.5028 -0.0182
  132MOL   C21034532   5.398   6.310   7.790 -0.5131  0.3201 -0.1699
  132MOL   C21134533   5.412   6.163   7.777  0.0361 -0.8699  0.4159
  132MOL   C21234534   5.431   6.088   7.666  0.3794  0.4577  0.3964
  132MOL   C21334535   5.427   6.140   7.530 -0.2540 -0.2766 -0.1123
  132MOL   C21434536   5.451   5.935   7.687  0.4660  0.3388  0.6798
  132MOL   H21534537   5.477   6.344   7.857  0.1765 -1.3236 -0.1361
  132MOL   H21634538   5.400   6.367   7.698  0.4322  0.5559 -0.0061
  132MOL   H21734539   5.420   6.111   7.871 -2.8488 -2.4172 -0.1422
  132MOL   H21834540   5.405   6.246   7.519 -1.6361 -0.3239  2.0169
  132MOL   H21934541   5.350   6.085   7.476 -0.3671 -1.1143  0.8945
  132MOL   H22034542   5.528   6.130   7.489 -0.0833 -0.0156  0.2423
  132MOL   H22134543   5.403   5.887   7.602  0.6886 -1.3334  1.4698
  132MOL   H22234544   5.381   5.900   7.763 -0.0922  0.2038  0.1060
  132MOL   C22334545   5.598   5.894   7.726  0.1517  0.0776  0.7873
  132MOL   C22434546   5.610   5.754   7.761  0.2571  0.2740  0.4791
  132MOL   C22534547   5.640   5.704   7.878 -0.2302 -0.5892 -0.7138
  132MOL   C22634548   5.688   5.777   0.119 -0.5746 -0.6913 -0.1449
  132MOL   C22734549   5.625   5.553   0.023 -0.2473  0.4457  0.1140
  132MOL   H22834550   5.629   5.960   7.807 -2.7106 -0.5461  2.4629
  132MOL   H22934551   5.655   5.911   7.634  1.2553 -1.3823  1.1917
  132MOL   H23034552   5.574   5.688   7.683  0.1256 -2.8353  3.1014
  132MOL   H23134553   5.622   5.753   0.202 -0.5283 -0.2833  0.0108
  132MOL   H23234554   5.692   5.885   0.107 -1.5584 -0.7238 -0.8236
  132MOL   H23334555   5.788   5.749   0.153 -0.1168  2.5529  1.4343
  132MOL   H23434556   5.557   5.514   7.830  1.4147 -0.7154 -0.8319
  132MOL   H23534557   5.567   5.538   0.113 -1.4548 -1.5757 -0.9491
  132MOL   C23634558   5.761   5.475   0.018  0.0906  0.5242  0.7769
  132MOL   C23734559   5.848   5.496   7.778 -0.4670 -0.1625  0.5503
  132MOL   C23834560   5.880   5.404   7.679 -0.5500  0.0304 -0.7078
  132MOL   C23934561   5.879   5.249   7.683  0.1556 -0.1940 -0.3179
  132MOL   C24034562   5.935   5.459   7.551  0.3042 -0.5613 -0.2179
  132MOL   H24134563   5.736   5.370   0.029 -1.2590  0.9869  2.4280
  132MOL   H24234564   5.813   5.497   0.111  3.4122  0.0522 -0.9058
  132MOL   H24334565   5.865   5.601   7.760 -0.8312  0.2576  2.5578
  132MOL   H24434566   5.821   5.218   7.771  1.7503  2.5289  1.7683
  132MOL   H24534567   5.983   5.216   7.686  1.3763  3.4774  0.2235
  132MOL   H24634568   5.847   5.193   7.595  0.1261  0.3345 -0.6414
  132MOL   H24734569   5.898   5.561   7.543  0.5523 -0.4192  0.4792
  132MOL   H24834570   5.898   5.410   7.461  1.6309  1.0667 -1.6891
  132MOL   C24934571   6.090   5.460   7.544  0.5683  0.3579  0.3075
  132MOL   C25034572   6.159   5.461   7.410 -0.6164  0.4898  0.0555
  132MOL   C25134573   6.291   5.496   7.391 -0.1400  0.5203 -0.0652
  132MOL   C25234574   6.391   5.539   7.504  0.1436  0.1314  0.5055
  132MOL   C25334575   6.344   5.470   7.256  0.8244 -0.0875 -0.7181
  132MOL   H25434576   6.141   5.380   7.598  0.6520  0.2921  0.1284
  132MOL   H25534577   6.130   5.537   7.611 -0.0135 -0.5945  1.7882
  132MOL   H25634578   6.100   5.427   7.326  2.2000 -0.8979 -1.4358
  132MOL   H25734579   6.465   5.461   7.520  1.1975  0.4528 -2.5723
  132MOL   H25834580   6.341   5.561   7.598  2.1548  3.9960  0.7322
  132MOL   H25934581   6.451   5.625   7.477  1.2943 -0.9016 -0.2789
  132MOL   H26034582   6.276   5.422   7.185  3.0116 -3.2015 -0.8427
  132MOL   H26134583   6.439   5.415   7.257 -0.1038 -1.7175  0.0879
  132MOL   H26234584   6.372   5.569   7.221 -1.4761  0.9643  0.3484
  133MOL     C134585   6.558   5.771   2.943  0.0840  0.5152  0.0642
  133MOL     C234586   6.686   5.803   3.024  0.4066 -0.8626 -0.2178
  133MOL     C334587   6.707   5.910   3.106  0.1413  0.1107 -0.6944
  133MOL     C434588   6.600   6.008   3.149 -0.1828  0.3229 -0.0703
  133MOL     C534589   6.840   5.921   3.186 -0.1280 -0.0178 -0.3370
  133MOL     H634590   6.552   5.852   2.871 -0.0837 -0.1927 -0.7253
  133MOL     H734591   6.566   5.672   2.900 -0.1796  0.9976 -1.0969
  133MOL     H834592   6.763   5.727   3.018  1.8899  0.5081  1.0356
  133MOL     H934593   6.556   5.969   3.241 -1.2159 -1.3110 -1.2293
  133MOL    H1034594   6.519   6.018   3.077 -0.3109  1.0538  0.1679
  133MOL    H1134595   6.644   6.108   3.155  1.0258 -0.1191 -1.4442
  133MOL    H1234596   6.870   6.023   3.214  1.5509 -0.1361 -1.5893
  133MOL    H1334597   6.922   5.885   3.125  0.0964 -1.6806  0.9162
  133MOL    H1434598   6.482   5.757   3.020 -0.0754 -0.6149 -0.2950
  133MOL    C1534599   6.846   5.848   3.320  0.4048 -0.6405  0.1562
  133MOL    C1634600   6.981   5.880   3.376  0.4009 -0.2200 -0.2828
  133MOL    C1734601   7.014   5.926   3.500  0.3181 -0.9927 -0.2965
  133MOL    C1834602   6.917   5.945   3.625  0.0904 -0.0379 -0.0741
  133MOL    C1934603   7.158   5.939   3.537 -0.2686 -0.1750  0.5269
  133MOL    H2034604   6.842   5.739   3.310  3.6074 -0.7963  0.1943
  133MOL    H2134605   6.771   5.884   3.391 -0.0953  1.0251 -1.2022
  133MOL    H2234606   7.065   5.872   3.309  1.3542 -0.5206  0.9289
  133MOL    H2334607   6.818   5.973   3.589  0.4938  0.4085 -0.8477
  133MOL    H2434608   6.956   6.026   3.686 -0.0749 -0.4559  0.5897
  133MOL    H2534609   6.919   5.863   3.697  2.5889 -0.2933 -0.3816
  133MOL    H2634610   7.159   6.034   3.592 -0.9126  0.7308 -0.9862
  133MOL    H2734611   7.210   5.950   3.442 -1.5392  0.0215 -0.1626
  133MOL    C2834612   7.213   5.814   3.605  0.3371  0.1670 -0.9795
  133MOL    C2934613   7.364   5.804   3.577 -0.0435  0.3213 -0.1495
  133MOL    C3034614   7.429   5.722   3.496 -0.0347 -0.8894 -0.6522
  133MOL    C3134615   7.364   5.605   3.423 -0.1634 -0.0274 -0.0289
  133MOL    C3234616   7.575   5.748   3.457 -1.0690  0.0201  0.7750
  133MOL    H3334617   7.166   5.723   3.567  1.8385 -1.0210  0.0049
  133MOL    H3434618   7.209   5.827   3.713  0.8756 -0.8610 -0.8365
  133MOL    H3534619   7.418   5.888   3.620 -0.8324 -0.8741  3.3938
  133MOL    H3634620   7.273   5.564   3.468 -1.0184  0.9638 -0.8438
  133MOL    H3734621   7.438   5.525   3.426 -0.2481 -0.0969  0.2656
  133MOL    H3834622   7.347   5.634   3.320  2.6321 -1.3197 -0.9250
  133MOL    H3934623   7.642   5.663   3.464 -1.0402  0.0999  1.5106
  133MOL    H4034624   7.608   5.815   3.537 -0.1211 -0.9931  1.2471
  133MOL    C4134625   7.586   5.822   3.324 -0.1427 -0.0243  0.1870
  133MOL    C4234626   7.727   5.852   3.279  0.4927 -0.1402  0.2601
  133MOL    C4334627   7.759   5.970   3.215  0.4663  0.9650 -0.5479
  133MOL    C4434628   7.670   6.080   3.175 -0.1707 -0.3215 -0.2640
  133MOL    C4534629   0.025   6.004   3.186 -0.1365 -0.5291  0.2197
  133MOL    H4634630   7.529   5.913   3.343 -0.1164  0.0474 -0.0840
  133MOL    H4734631   7.545   5.756   3.247 -1.5989  0.0690  0.8595
  133MOL    H4834632   7.797   5.775   3.307 -0.1464 -1.4489 -1.7000
  133MOL    H4934633   7.684   6.173   3.230 -1.3249  0.7233 -1.7031
  133MOL    H5034634   7.564   6.054   3.180 -0.6370  1.7123  0.6679
  133MOL    H5134635   7.685   6.110   3.071 -4.0114 -0.9249 -1.0657
  133MOL    H5234636   0.083   5.935   3.247  1.2518 -1.7925 -2.4617
  133MOL    H5334637   0.052   6.101   3.229 -0.4024 -1.8509  3.5129
  133MOL    C5434638   0.061   6.011   3.042  0.1489  0.1193 -0.8556
  133MOL    C5534639   0.207   5.992   3.007  0.4474 -0.1953 -0.0007
  133MOL    C5634640   0.269   6.056   2.905  0.2759  0.1574 -0.2760
  133MOL    C5734641   0.198   6.150   2.806  0.2610  0.1301  0.4880
  133MOL    C5834642   0.416   6.035   2.878  0.5482  0.0758  0.3463
  133MOL    H5934643   0.025   6.102   2.995  1.5671  2.0642  1.6935
  133MOL    H6034644   0.011   5.933   2.984 -2.2968  0.4724  0.7058
  133MOL    H6134645   0.269   5.933   3.072  0.8633 -0.6637 -0.8088
  133MOL    H6234646   0.120   6.088   2.761  0.9873  0.5898 -1.4080
  133MOL    H6334647   0.278   6.191   2.744 -0.6252  1.3829  0.1474
  133MOL    H6434648   0.155   6.232   2.864 -0.2026  1.8909 -2.2706
  133MOL    H6534649   0.461   5.963   2.947  2.8138 -0.7309 -1.8696
  133MOL    H6634650   0.473   6.126   2.898  0.2711  0.3028  0.1173
  133MOL    C6734651   0.433   5.982   2.731 -0.2117 -0.3330 -0.0667
  133MOL    C6834652   0.547   5.878   2.731  0.0588  0.4655 -0.2611
  133MOL    C6934653   0.552   5.745   2.696  1.2152  0.0996 -0.4569
  133MOL    C7034654   0.425   5.664   2.661  1.1853  0.5095 -0.1568
  133MOL    C7134655   0.681   5.667   2.712 -0.0404  0.4432  0.1734
  133MOL    H7234656   0.454   6.060   2.659 -0.2292  1.2604  1.6071
  133MOL    H7334657   0.346   5.927   2.697  0.4613 -0.9648 -0.7685
  133MOL    H7434658   0.643   5.925   2.751  0.0433  0.4582 -0.1685
  133MOL    H7534659   0.441   5.584   2.589  0.9225  0.2859  0.0312
  133MOL    H7634660   0.353   5.727   2.609  0.2465 -0.2618  0.1696
  133MOL    H7734661   0.377   5.623   2.751  0.8713  0.3027 -0.4161
  133MOL    H7834662   0.668   5.578   2.773  0.1731  1.0024  1.0401
  133MOL    H7934663   0.760   5.725   2.760  0.0482 -0.1577  0.7663
  133MOL    C8034664   0.735   5.621   2.577 -0.2591 -0.0455  0.5091
  133MOL    C8134665   0.859   5.534   2.600  0.3471  0.6399  0.2605
  133MOL    C8234666   0.913   5.451   2.512  0.0990 -0.7351 -0.5007
  133MOL    C8334667   0.867   5.420   2.371  0.3933 -0.3822 -0.2640
  133MOL    C8434668   1.030   5.371   2.561  0.2857 -0.3692  0.0667
  133MOL    H8534669   0.768   5.705   2.517 -2.2111 -0.2785 -0.9558
  133MOL    H8634670   0.661   5.563   2.521 -1.9501  1.4809  1.0992
  133MOL    H8734671   0.901   5.549   2.699 -0.8860  0.3109  0.8477
  133MOL    H8834672   0.815   5.324   2.374  1.6527 -1.0378  1.2144
  133MOL    H8934673   0.945   5.406   2.296 -0.8374 -2.9322 -1.1212
  133MOL    H9034674   0.792   5.492   2.337  0.8424 -0.6640 -1.9005
  133MOL    H9134675   1.040   5.390   2.668 -0.5769 -0.9065  0.2464
  133MOL    H9234676   1.123   5.415   2.525  0.5683 -0.3501  0.7998
  133MOL    C9334677   1.024   5.222   2.528 -0.0983  0.0610 -0.1976
  133MOL    C9434678   1.120   5.135   2.604  0.3708  0.8354 -0.0700
  133MOL    C9534679   1.082   5.044   2.693 -0.1382  0.3529 -0.1751
  133MOL    C9634680   0.937   5.000   2.730  0.5469  0.3392 -0.0253
  133MOL    C9734681   1.176   4.938   2.744  0.2966 -0.0021 -0.2828
  133MOL    H9834682   1.058   5.207   2.426  0.4205  0.1133 -0.0337
  133MOL    H9934683   0.922   5.185   2.522 -0.0113 -0.5938  1.7448
  133MOL   H10034684   1.224   5.159   2.588  0.3941  0.9353  0.2204
  133MOL   H10134685   0.910   4.968   2.831 -3.2534 -0.5751 -1.2496
  133MOL   H10234686   0.908   4.912   2.672 -0.7658  0.2245  0.7823
  133MOL   H10334687   0.857   5.071   2.710  0.6497 -0.0894 -2.0527
  133MOL   H10434688   1.266   4.934   2.683  0.7603  1.1553  0.2932
  133MOL   H10534689   1.129   4.841   2.728  0.4144  0.0843 -1.1429
  133MOL   C10634690   1.226   4.960   2.889  0.6903  0.5951 -0.8962
  133MOL   C10734691   1.303   4.840   2.949  0.1862 -0.1260  0.2187
  133MOL   C10834692   1.432   4.832   2.957 -0.0148 -0.3760  0.2533
  133MOL   C10934693   1.525   4.942   2.895 -0.3037 -0.3860  0.5789
  133MOL   C11034694   1.512   4.713   3.006  0.4569  0.0861  0.2647
  133MOL   H11134695   1.137   4.983   2.947 -0.1434 -1.4836 -1.2933
  133MOL   H11234696   1.289   5.047   2.907  0.8869  0.1211  0.7389
  133MOL   H11334697   1.241   4.761   2.987  1.9581 -1.4937  0.3215
  133MOL   H11434698   1.548   5.021   2.967  1.0756  0.0329 -0.2993
  133MOL   H11534699   1.482   5.000   2.814  1.7778  1.2293  0.5857
  133MOL   H11634700   1.609   4.891   2.848  0.6393 -0.2877  2.0932
  133MOL   H11734701   1.588   4.750   3.075  0.4786  0.6798 -0.0758
  133MOL   H11834702   1.558   4.662   2.921  0.8644 -1.4647  1.3938
  133MOL   C11934703   1.431   4.605   3.087  0.2826  0.5972 -0.3625
  133MOL   C12034704   1.533   4.542   3.186 -0.2446 -0.4024 -0.1648
  133MOL   C12134705   1.567   4.417   3.186 -0.0443  0.3830 -0.3056
  133MOL   C12234706   1.493   4.316   3.100 -0.0577 -0.6481  0.6837
  133MOL   C12334707   1.645   4.355   3.305 -0.1572 -0.1250 -0.5563
  133MOL   H12434708   1.382   4.535   3.018  0.2772  1.0263 -0.7974
  133MOL   H12534709   1.352   4.647   3.148 -1.8156  0.5694 -2.9577
  133MOL   H12634710   1.576   4.610   3.259  1.4929 -0.7224 -0.8772
  133MOL   H12734711   1.534   4.216   3.086  3.4780  0.7167  0.9578
  133MOL   H12834712   1.506   4.371   3.007 -0.2178 -2.2494 -0.3112
  133MOL   H12934713   1.391   4.311   3.138 -0.4509 -0.2073 -0.3038
  133MOL   H13034714   1.632   4.248   3.320 -0.9573 -0.0466 -0.7146
  133MOL   H13134715   1.607   4.403   3.395  1.9544 -0.7553  0.7021
  133MOL   C13234716   1.791   4.382   3.277  0.1385 -0.2839  0.7938
  133MOL   C13334717   1.882   4.291   3.356  0.3706  0.0353 -0.4615
  133MOL   C13434718   2.007   4.258   3.329 -0.1830  0.3326  0.1584
  133MOL   C13534719   2.080   4.313   3.209 -0.2615  0.2977  0.0810
  133MOL   C13634720   2.072   4.162   3.417  0.0109  0.0930 -0.7477
  133MOL   H13734721   1.812   4.488   3.286  0.2789 -0.2750  0.4076
  133MOL   H13834722   1.812   4.355   3.173  0.0662 -0.6112  0.8626
  133MOL   H13934723   1.831   4.245   3.439 -0.9892 -2.7264 -2.7067
  133MOL   H14034724   2.059   4.416   3.179 -3.3342 -0.4205 -0.4579
  133MOL   H14134725   2.050   4.239   3.135  2.2474  0.3285 -1.0087
  133MOL   H14234726   2.186   4.294   3.223 -0.7885 -2.6103  0.4374
  133MOL   H14334727   2.008   4.126   3.497  0.3831 -1.7822 -1.2700
  133MOL   H14434728   2.153   4.205   3.476 -1.4068  0.1861  1.1522
  133MOL   C14534729   2.138   4.041   3.340 -0.0134 -0.5557 -0.2182
  133MOL   C14634730   2.209   3.935   3.425  0.1896 -0.6969  0.2308
  133MOL   C14734731   2.152   3.824   3.465  0.9516  0.2883 -1.1842
  133MOL   C14834732   2.006   3.784   3.427  0.1687  0.2142 -0.4504
  133MOL   C14934733   2.223   3.723   3.554 -0.0372 -0.2602  0.4262
  133MOL   H15034734   2.210   4.075   3.266 -1.4534 -1.1543 -1.9139
  133MOL   H15134735   2.065   3.989   3.278 -0.0836 -0.7988  0.0652
  133MOL   H15234736   2.306   3.961   3.466 -0.3842 -0.1323  1.2595
  133MOL   H15334737   1.933   3.859   3.459 -0.2331 -1.2026  2.0454
  133MOL   H15434738   1.977   3.685   3.460  0.0409  0.7641  1.1514
  133MOL   H15534739   1.995   3.785   3.319  1.2713 -0.8714 -0.5803
  133MOL   H15634740   2.325   3.755   3.572 -0.6877  0.8694  2.3848
  133MOL   H15734741   2.223   3.625   3.506  0.3454 -0.0849  0.0736
  133MOL   C15834742   2.160   3.686   3.694  0.2202  0.9981 -0.2141
  133MOL   C15934743   2.251   3.593   3.778  0.0363  0.1508 -0.3100
  133MOL   C16034744   2.263   3.587   3.912 -0.6873  0.3683  0.4653
  133MOL   C16134745   2.208   3.691   4.002 -0.1485  0.1187  0.5407
  133MOL   C16234746   2.362   3.497   3.975  0.0451 -0.2002 -0.2463
  133MOL   H16334747   2.065   3.634   3.687 -0.3126  1.9834 -0.4012
  133MOL   H16434748   2.146   3.780   3.748 -1.5040  0.6939 -0.1231
  133MOL   H16534749   2.289   3.521   3.707 -1.3231  0.2191 -1.1477
  133MOL   H16634750   2.161   3.647   4.090 -1.1942 -1.1163 -0.6169
  133MOL   H16734751   2.127   3.746   3.952 -0.2682  1.1257  1.8033
  133MOL   H16834752   2.264   3.775   4.043  0.2707  0.9500 -1.6768
  133MOL   H16934753   2.412   3.555   4.053 -2.2558 -0.4122  1.4408
  133MOL   H17034754   2.431   3.468   3.896  0.4510 -0.5061  0.2168
  133MOL   C17134755   2.284   3.371   4.026  0.0588  0.0014 -0.1088
  133MOL   C17234756   2.381   3.266   4.077  0.2792 -0.3621  0.5996
  133MOL   C17334757   2.388   3.203   4.198  0.2897  0.0752 -0.4619
  133MOL   C17434758   2.280   3.233   4.310 -0.2070  0.5108  0.0638
  133MOL   C17534759   2.499   3.102   4.224 -0.6635 -0.0225  0.1789
  133MOL   H17634760   2.224   3.328   3.945  0.0672  0.0029 -0.1159
  133MOL   H17734761   2.227   3.401   4.114  0.7467 -0.9551  0.6657
  133MOL   H17834762   2.460   3.245   4.006 -1.0962 -2.8032 -0.2506
  133MOL   H17934763   2.241   3.137   4.344  1.0552  0.3227  1.0564
  133MOL   H18034764   2.193   3.288   4.275  0.2217  0.1490 -1.6382
  133MOL   H18134765   2.322   3.280   4.400  0.6982 -0.8754  0.3862
  133MOL   H18234766   2.528   3.094   4.329  1.3510  0.5403 -0.3046
  133MOL   H18334767   2.588   3.128   4.167  0.6128  2.0197  2.9924
  133MOL   C18434768   2.444   2.963   4.186  0.2051 -0.9202 -0.1921
  133MOL   C18534769   2.546   2.851   4.196  0.3277 -0.6166  0.3550
  133MOL   C18634770   2.638   2.811   4.106 -0.1914  0.1468  0.4313
  133MOL   C18734771   2.667   2.880   3.973  0.1386  0.3706  0.0406
  133MOL   C18834772   2.715   2.679   4.126  0.0485  0.1713  0.6081
  133MOL   H18934773   2.400   2.972   4.087  1.8321 -1.0877 -0.9420
  133MOL   H19034774   2.363   2.948   4.257 -0.6749  0.6116 -0.8471
  133MOL   H19134775   2.539   2.797   4.289  0.9046  3.0509  2.6102
  133MOL   H19234776   2.610   2.835   3.892  1.8518  0.6786 -1.3437
  133MOL   H19334777   2.772   2.870   3.946  0.6513 -1.2905  2.4519
  133MOL   H19434778   2.645   2.987   3.979  0.0777  0.3106  1.0546
  133MOL   H19534779   2.709   2.639   4.227 -2.1945 -2.3927 -0.4616
  133MOL   H19634780   2.821   2.701   4.114  0.0893  0.1802  0.9906
  133MOL   C19734781   2.662   2.572   4.027 -0.4665  0.4831 -0.0094
  133MOL   C19834782   2.706   2.430   4.071 -0.0580 -0.2271  0.6305
  133MOL   C19934783   2.820   2.373   4.040  0.0686 -0.6070  0.8184
  133MOL   C20034784   2.923   2.435   3.948  0.0287  0.1153 -0.0997
  133MOL   C20134785   2.857   2.235   4.082  0.5025  0.3661  0.4676
  133MOL   H20234786   2.688   2.598   3.924  0.3097  1.3157  0.3918
  133MOL   H20334787   2.553   2.569   4.024 -0.4116 -0.6615 -3.4950
  133MOL   H20434788   2.630   2.386   4.134  2.1104 -0.6328  3.0835
  133MOL   H20534789   2.907   2.419   3.841 -2.0945 -0.0609  0.2319
  133MOL   H20634790   3.021   2.394   3.974 -0.1932  0.0813  0.6878
  133MOL   H20734791   2.930   2.543   3.965  0.9755  0.0974 -0.3314
  133MOL   H20834792   2.877   2.179   3.990  3.2472  1.2945  0.4588
  133MOL   H20934793   2.774   2.188   4.135  1.0523  1.1840  2.0541
  133MOL   C21034794   2.985   2.222   4.167  0.3060 -0.0210  0.5995
  133MOL   C21134795   2.943   2.204   4.315  0.3517 -0.4039  0.1650
  133MOL   C21234796   2.916   2.306   4.405 -0.1281  0.5913 -0.2964
  133MOL   C21334797   2.922   2.454   4.368  0.5407  0.7069  0.1362
  133MOL   C21434798   2.875   2.276   4.544 -0.3612  0.1220 -0.2541
  133MOL   H21534799   3.037   2.317   4.175  0.3353 -0.0183  0.3849
  133MOL   H21634800   3.050   2.140   4.136  0.2276  0.3467 -0.5386
  133MOL   H21734801   2.931   2.104   4.354 -1.7199  0.5384  2.1026
  133MOL   H21834802   2.830   2.509   4.386 -0.6478 -1.1915  0.0630
  133MOL   H21934803   2.912   2.467   4.260  0.3787 -0.5939 -0.0154
  133MOL   H22034804   3.012   2.497   4.412  1.6056 -0.1568 -1.1536
  133MOL   H22134805   2.839   2.173   4.548 -1.1749  0.4574  1.4834
  133MOL   H22234806   2.795   2.342   4.577 -0.6675  0.6045 -1.9295
  133MOL   C22334807   2.993   2.307   4.639 -0.6246 -0.5396  1.7739
  133MOL   C22434808   2.953   2.277   4.779 -0.1366  0.1140 -0.6948
  133MOL   C22534809   3.032   2.293   4.885  0.3026 -0.8136  0.7023
  133MOL   C22634810   3.167   2.363   4.876 -0.5371  0.2892 -0.5493
  133MOL   C22734811   2.973   2.280   5.024 -0.8157  0.3975 -0.1490
  133MOL   H22834812   3.034   2.406   4.617  0.2589 -1.5183 -1.1796
  133MOL   H22934813   3.076   2.240   4.620 -1.1020 -0.4855 -0.7182
  133MOL   H23034814   2.851   2.243   4.793  0.1580  0.2656  2.0158
  133MOL   H23134815   3.155   2.469   4.895  0.4616  0.0515  1.5969
  133MOL   H23234816   3.220   2.349   4.782 -1.0125  0.6979 -0.8784
  133MOL   H23334817   3.236   2.316   4.947  0.4065  0.4916 -1.3145
  133MOL   H23434818   2.930   2.374   5.058  0.8200  0.8078  0.8758
  133MOL   H23534819   3.051   2.254   5.097 -0.8353  0.8207  0.0240
  133MOL   C23634820   2.854   2.179   5.039  0.1832 -0.0442  0.0266
  133MOL   C23734821   2.790   2.177   5.173  0.2220 -0.9007 -0.1778
  133MOL   C23834822   2.683   2.101   5.207 -0.2195 -0.2864  0.5666
  133MOL   C23934823   2.616   2.010   5.105 -0.5015 -0.1633  0.4683
  133MOL   C24034824   2.633   2.110   5.349 -0.3475  0.0967  0.2711
  133MOL   H24134825   2.901   2.085   5.011  2.5338  1.4901 -1.4586
  133MOL   H24234826   2.768   2.195   4.974 -1.5721 -0.9166  2.0869
  133MOL   H24334827   2.838   2.236   5.251 -0.1003 -1.2002  0.2514
  133MOL   H24434828   2.566   1.924   5.149 -1.7403  1.7670  2.9370
  133MOL   H24534829   2.690   1.972   5.035  1.8170  1.0663  2.1818
  133MOL   H24634830   2.540   2.065   5.049 -0.4365 -0.2396  0.3037
  133MOL   H24734831   2.531   2.146   5.340 -0.1784  0.7141  0.7945
  133MOL   H24834832   2.695   2.176   5.410 -0.3359  2.4226 -2.1505
  133MOL   C24934833   2.649   1.973   5.420  0.1308 -0.2980 -0.3667
  133MOL   C25034834   2.631   1.991   5.575  0.6406 -0.1157  0.4621
  133MOL   C25134835   2.721   1.984   5.674  0.5842  0.6551 -0.6645
  133MOL   C25234836   2.868   1.965   5.645  0.4453 -0.3344  0.4378
  133MOL   C25334837   2.676   2.009   5.818  0.0689 -0.3915 -0.3434
  133MOL   H25434838   2.746   1.929   5.398 -1.4359 -2.6129 -2.7904
  133MOL   H25534839   2.582   1.896   5.382 -0.8658  1.2562 -1.8446
  133MOL   H25634840   2.528   2.009   5.602  0.2517  1.8522 -2.0734
  133MOL   H25734841   2.918   2.062   5.653 -2.5700  1.4449 -1.5099
  133MOL   H25834842   2.886   1.911   5.552 -0.3100 -1.9847  1.2469
  133MOL   H25934843   2.925   1.907   5.717 -1.2473 -1.7764  0.6348
  133MOL   H26034844   2.731   2.084   5.874 -0.9074  0.2158 -0.1851
  133MOL   H26134845   2.688   1.912   5.866  1.0963 -0.2763 -0.3695
  133MOL   H26234846   2.569   2.028   5.818  0.2552  0.7970 -2.1204
  134MOL     C134847   0.992   2.197   7.747 -0.1310  0.2139 -0.8452
  134MOL     C234848   0.948   2.236   7.880  0.2571  0.1990  1.0410
  134MOL     C334849   0.969   2.352   0.059 -0.0182  0.5159 -0.4851
  134MOL     C434850   1.039   2.468   7.874 -0.1575  0.2631 -0.0959
  134MOL     C534851   0.922   2.375   0.201  0.5300  0.4272 -0.1622
  134MOL     H634852   0.981   2.277   7.674 -2.2023 -0.0439 -0.8493
  134MOL     H734853   1.093   2.155   7.743  0.3303  0.9198  2.3433
  134MOL     H834854   0.892   2.161   0.054 -0.5121 -0.4187 -0.5108
  134MOL     H934855   1.036   2.453   7.766 -0.2227 -1.6307  0.1457
  134MOL    H1034856   1.141   2.473   0.030  0.2283 -2.4950 -0.6608
  134MOL    H1134857   0.990   2.564   0.009 -2.0692 -0.6257 -0.4480
  134MOL    H1234858   0.816   2.348   0.199  0.4032  0.9377 -1.4044
  134MOL    H1334859   0.912   2.479   0.232  1.2535 -0.1877  2.1658
  134MOL    H1434860   0.917   2.124   7.717 -0.6411 -0.9029  2.8809
  134MOL    C1534861   1.003   2.288   0.298  0.3619 -0.7572 -0.4431
  134MOL    C1634862   0.937   2.292   0.443 -0.4274  0.1657  0.9312
  134MOL    C1734863   0.858   2.205   0.509 -0.2770  0.4956  0.9115
  134MOL    C1834864   0.818   2.070   0.454  0.3660 -0.4772 -0.6986
  134MOL    C1934865   0.790   2.239   0.640 -0.0533 -0.2882 -0.1658
  134MOL    H2034866   1.109   2.315   0.299  0.1901 -0.0625 -0.5247
  134MOL    H2134867   1.002   2.184   0.265 -2.3339 -1.2361  1.0044
  134MOL    H2234868   0.950   2.384   0.498 -0.5692  0.0549  1.1491
  134MOL    H2334869   0.881   1.988   0.490  0.4502  0.0759  0.4342
  134MOL    H2434870   0.833   2.059   0.347  1.9564  1.8370 -0.7431
  134MOL    H2534871   0.713   2.052   0.477  0.2817  2.4035  1.4706
  134MOL    H2634872   0.684   2.218   0.625 -0.4273  1.3326  0.0943
  134MOL    H2734873   0.789   2.348   0.647 -1.6403 -0.2396 -0.8559
  134MOL    C2834874   0.846   2.168   0.757 -0.1422 -0.5683 -0.1737
  134MOL    C2934875   0.779   2.231   0.882 -0.2107 -0.4643 -0.5242
  134MOL    C3034876   0.675   2.179   0.949  0.0616  0.1941 -0.1360
  134MOL    C3134877   0.621   2.043   0.920  0.6775 -0.4138 -0.4648
  134MOL    C3234878   0.608   2.258   1.060  0.0491  1.0523 -0.1139
  134MOL    H3334879   0.951   2.199   0.764 -0.1979 -0.5798  0.7498
  134MOL    H3434880   0.845   2.059   0.749 -0.5986 -0.5567 -0.2652
  134MOL    H3534881   0.810   2.329   0.912 -3.0604 -0.2498  2.0488
  134MOL    H3634882   0.698   1.966   0.917  2.0309  0.9861 -3.5832
  134MOL    H3734883   0.582   2.066   0.821  0.5504  1.8604  0.0787
  134MOL    H3834884   0.539   2.012   0.985  2.3992 -0.5572  1.7278
  134MOL    H3934885   0.646   2.360   1.053  1.5259  0.6331  1.2269
  134MOL    H4034886   0.637   2.220   1.158 -0.3049  0.4504 -0.2439
  134MOL    C4134887   0.456   2.263   1.051 -0.7215  0.9385  1.2451
  134MOL    C4234888   0.396   2.373   1.133 -0.4908  0.2603 -0.5697
  134MOL    C4334889   0.298   2.460   1.098  0.8996  0.2745 -0.2646
  134MOL    C4434890   0.231   2.453   0.962 -0.2083  0.3231  0.4256
  134MOL    C4534891   0.231   2.556   1.201 -0.2302  0.4098 -0.2062
  134MOL    H4634892   0.419   2.169   1.092 -0.8486  1.6626  2.8258
  134MOL    H4734893   0.431   2.277   0.946  0.4667 -1.4083  0.5981
  134MOL    H4834894   0.438   2.363   1.232  2.5264 -1.2845 -1.9438
  134MOL    H4934895   0.314   2.436   0.893  0.3728  1.6062  0.7844
  134MOL    H5034896   0.205   2.554   0.932  1.9180 -0.2275 -3.6786
  134MOL    H5134897   0.140   2.394   0.953 -0.1924  0.3082  0.3614
  134MOL    H5234898   0.246   2.518   1.301  0.6062 -1.3777 -0.9874
  134MOL    H5334899   0.125   2.553   1.173 -0.3470  0.2531  0.2578
  134MOL    C5434900   0.250   2.710   1.178 -0.3546 -0.0310  0.8309
  134MOL    C5534901   0.210   2.806   1.293  0.2015  0.3305 -0.0593
  134MOL    C5634902   0.102   2.893   1.303 -0.6227 -0.7307 -0.5148
  134MOL    C5734903   7.875   2.898   1.199  0.6424 -0.1649 -0.0837
  134MOL    C5834904   0.083   2.977   1.425 -0.3490 -0.4026 -0.1110
  134MOL    H5934905   0.202   2.733   1.082  1.1412  0.2306  0.1331
  134MOL    H6034906   0.357   2.712   1.157 -1.3621 -0.0094 -5.5235
  134MOL    H6134907   0.275   2.796   1.378 -0.7333  0.3647  0.6628
  134MOL    H6234908   0.023   2.856   1.103 -1.1667 -0.8985 -0.3703
  134MOL    H6334909   7.847   3.000   1.175 -0.9654 -0.9532 -1.7357
  134MOL    H6434910   7.785   2.843   1.229 -1.1712  1.8690 -1.6305
  134MOL    H6534911   0.077   3.082   1.398  2.4749 -0.1595  0.1025
  134MOL    H6634912   0.173   2.961   1.485 -0.0972  1.3912  0.0272
  134MOL    C6734913   7.833   2.939   1.500  0.3262  0.0180 -0.0919
  134MOL    C6834914   7.842   2.953   1.649 -0.0689  0.2548  0.8419
  134MOL    C6934915   7.777   3.042   1.733 -0.6967  0.2256  0.2196
  134MOL    C7034916   7.673   3.141   1.684  0.0433  0.1405  0.0214
  134MOL    C7134917   7.775   3.034   1.880 -0.2865  0.3896  0.2125
  134MOL    H7234918   7.807   2.836   1.480  1.6635 -0.3788  0.1431
  134MOL    H7334919   7.745   2.991   1.461  0.4468 -0.5307 -1.1137
  134MOL    H7434920   0.019   2.877   1.697  0.5199 -0.0886 -0.4071
  134MOL    H7534921   7.664   3.228   1.750 -0.7705  1.0704 -1.2877
  134MOL    H7634922   7.581   3.083   1.682 -0.8316  1.4138  1.9844
  134MOL    H7734923   7.692   3.176   1.582 -0.0406  0.1265  0.0005
  134MOL    H7834924   7.767   3.135   1.921 -1.1798 -0.2699  1.7102
  134MOL    H7934925   7.867   2.994   1.921 -0.7963 -0.2668  0.7257
  134MOL    C8034926   7.654   2.951   1.940 -0.2270 -0.4864 -0.2013
  134MOL    C8134927   7.660   2.958   2.092 -0.2870 -0.4068  0.4449
  134MOL    C8234928   7.594   3.044   2.171  0.1729 -0.3898 -0.9208
  134MOL    C8334929   7.515   3.157   2.115  0.2212 -0.1582  0.1629
  134MOL    C8434930   7.603   3.052   2.322  0.0807  0.0003 -0.1043
  134MOL    H8534931   7.665   2.847   1.910  0.5893  0.2272 -2.5237
  134MOL    H8634932   7.552   2.978   1.912 -0.9487 -1.9850  0.9313
  134MOL    H8734933   7.726   2.879   2.125  1.4000  0.0667 -1.6951
  134MOL    H8834934   7.522   3.239   2.186  1.1304 -0.4097  0.3612
  134MOL    H8934935   7.410   3.125   2.110  0.2309  0.0285 -1.7556
  134MOL    H9034936   7.546   3.184   2.014  1.3921  0.7245  0.7504
  134MOL    H9134937   7.655   3.145   2.345 -2.8968  1.7937 -0.2891
  134MOL    H9234938   7.662   2.969   2.360  1.9841  1.2590 -0.2595
  134MOL    C9334939   7.467   3.061   2.390  0.1739  0.0093  0.4317
  134MOL    C9434940   7.397   2.922   2.377  0.0757  0.2663  0.3284
  134MOL    C9534941   7.383   2.826   2.470  0.0306  0.4529 -0.1069
  134MOL    C9634942   7.457   2.824   2.601  0.6935 -0.6450  0.5867
  134MOL    C9734943   7.293   2.701   2.451  0.6925  0.8870 -0.0366
  134MOL    H9834944   7.394   3.131   2.351  1.2903  0.2546 -1.2950
  134MOL    H9934945   7.473   3.087   2.496 -2.0161 -2.5391  1.2283
  134MOL   H10034946   7.332   2.917   2.291  2.0512  3.1741 -1.3719
  134MOL   H10134947   7.382   2.812   2.679 -0.6156 -1.4092 -0.7475
  134MOL   H10234948   7.505   2.919   2.622 -0.9454  0.6839 -1.4499
  134MOL   H10334949   7.549   2.765   2.602  2.2755  1.7402 -0.2244
  134MOL   H10434950   7.352   2.616   2.486 -0.5121 -0.1061 -0.3942
  134MOL   H10534951   7.276   2.692   2.343  0.1694  4.2402 -0.2946
  134MOL   C10634952   7.169   2.690   2.539  0.3155  0.3030 -0.0439
  134MOL   C10734953   7.076   2.568   2.511  0.1073 -0.3151  0.4355
  134MOL   C10834954   7.026   2.480   2.601 -0.1381 -0.4424  0.1487
  134MOL   C10934955   7.076   2.472   2.744  0.5775  0.6366 -0.2005
  134MOL   C11034956   6.918   2.376   2.564 -0.4561  0.2318  0.3447
  134MOL   H11134957   7.118   2.785   2.525  1.2366  0.8642  0.3584
  134MOL   H11234958   7.196   2.684   2.644  2.9668 -1.1932 -0.7532
  134MOL   H11334959   7.043   2.572   2.409  1.1329  0.8961  0.1410
  134MOL   H11434960   7.169   2.416   2.740  0.5611  0.3870  2.0032
  134MOL   H11534961   7.010   2.411   2.806  0.5568 -0.1099 -0.9476
  134MOL   H11634962   7.091   2.568   2.793  1.6070  0.4871 -0.2089
  134MOL   H11734963   6.860   2.418   2.482  0.9069  1.8492  0.1716
  134MOL   H11834964   6.839   2.378   2.640 -2.1318 -0.8867 -1.3376
  134MOL   C11934965   6.974   2.237   2.538 -0.8930 -0.8126  0.4297
  134MOL   C12034966   6.874   2.124   2.570 -0.0643  0.6863 -0.1028
  134MOL   C12134967   6.915   2.015   2.641 -0.5152 -0.0691  0.0032
  134MOL   C12234968   7.062   1.997   2.689 -0.1671 -1.0846  0.4725
  134MOL   C12334969   6.820   1.901   2.674  0.5571  0.3098  0.2421
  134MOL   H12434970   7.075   2.233   2.581 -0.1908 -0.4216 -1.1587
  134MOL   H12534971   6.986   2.218   2.432  1.0175  1.1877  0.2441
  134MOL   H12634972   6.772   2.137   2.537 -0.1107  4.2092  1.2351
  134MOL   H12734973   7.128   2.000   2.601  0.6512 -0.2312  1.1026
  134MOL   H12834974   7.084   1.905   2.743  0.0533 -1.7016 -0.6397
  134MOL   H12934975   7.074   2.087   2.749 -1.5458  1.6656 -3.1864
  134MOL   H13034976   6.853   1.801   2.649  2.1350  0.7302  0.6165
  134MOL   H13134977   6.733   1.904   2.608  0.2637  3.7933  0.6654
  134MOL   C13234978   6.755   1.911   2.813 -0.3929  0.5407  0.5027
  134MOL   C13334979   6.700   1.780   2.853  0.3208  0.1324 -0.1931
  134MOL   C13434980   6.606   1.764   2.947  0.3230  0.2905  0.4702
  134MOL   C13534981   6.539   1.882   3.014 -0.0502 -0.8330  0.3000
  134MOL   C13634982   6.564   1.629   3.002 -0.1187  0.2605  0.2713
  134MOL   H13734983   6.678   1.988   2.813 -1.0059 -0.0652 -0.4027
  134MOL   H13834984   6.837   1.933   2.881 -0.8364  0.8973  0.9227
  134MOL   H13934985   6.743   1.694   2.803  1.1817  0.3054  0.2304
  134MOL   H14034986   6.494   1.853   3.110  0.7998  0.6179  1.1551
  134MOL   H14134987   6.469   1.915   2.938  1.8346 -3.6542 -2.7573
  134MOL   H14234988   6.612   1.962   3.023 -0.5501 -0.4555  1.1284
  134MOL   H14334989   6.595   1.624   3.107 -0.6495 -1.7310  0.3658
  134MOL   H14434990   6.622   1.552   2.952  0.1525  1.1359 -0.7656
  134MOL   C14534991   6.414   1.590   2.981  0.2124 -0.9009 -0.1402
  134MOL   C14634992   6.373   1.450   3.031 -0.7832  0.9581  0.0432
  134MOL   C14734993   6.308   1.434   3.146 -0.3199  0.7178 -0.0788
  134MOL   C14834994   6.270   1.552   3.233 -0.1583 -0.4233 -0.0232
  134MOL   C14934995   6.291   1.296   3.202  0.1140  0.0601 -0.2619
  134MOL   H15034996   6.402   1.597   2.873 -1.9876  0.8193  0.1957
  134MOL   H15134997   6.358   1.672   3.024  2.6043 -1.0783  3.4922
  134MOL   H15234998   6.407   1.359   2.983 -1.2285  1.1693 -0.6778
  134MOL   H15334999   6.177   1.599   3.200  0.4177  1.0868  0.4578
  134MOL   H15435000   6.344   1.629   3.256 -2.3141  1.5423  0.5302
  134MOL   H15535001   6.266   1.520   3.337 -2.5375  3.8683  1.3396
  134MOL   H15635002   6.369   1.271   3.274  2.0361  0.2598 -2.2399
  134MOL   H15735003   6.309   1.224   3.123  0.6216 -0.7296  0.5680
  134MOL   C15835004   6.153   1.261   3.248  0.4328 -0.0511  0.2955
  134MOL   C15935005   6.140   1.116   3.294 -0.5948  0.2753 -0.2591
  134MOL   C16035006   6.098   1.071   3.411  1.1396  0.3696 -0.0872
  134MOL   C16135007   6.050   1.155   3.528 -0.4545 -0.7126 -0.2551
  134MOL   C16235008   6.097   0.922   3.436  0.1432  0.2339 -0.6505
  134MOL   H16335009   6.079   1.283   3.171 -0.7813 -2.6928  0.6765
  134MOL   H16435010   6.132   1.329   3.331  1.5993  2.0717 -1.0764
  134MOL   H16535011   6.180   1.042   3.227  0.3311  1.0090 -0.5180
  134MOL   H16635012   6.068   1.108   3.625 -2.1614  0.6659  0.7591
  134MOL   H16735013   5.941   1.164   3.526 -0.1793  3.6928 -2.7491
  134MOL   H16835014   6.091   1.256   3.532 -1.1440 -0.4181 -0.4843
  134MOL   H16935015   6.117   0.872   3.341  0.2957  3.1011 -2.1714
  134MOL   H17035016   5.998   0.893   3.469 -0.2579  2.0388 -0.2129
  134MOL   C17135017   6.200   0.859   3.526 -0.3870  0.2709  0.2367
  134MOL   C17235018   6.338   0.876   3.482 -0.4297  0.1831  0.2423
  134MOL   C17335019   6.403   0.792   3.391  0.3408 -0.5728 -0.1269
  134MOL   C17435020   6.342   0.675   3.323 -0.5795 -0.9786 -0.0408
  134MOL   C17535021   6.549   0.816   3.363  0.6421 -0.2616  0.3212
  134MOL   H17635022   6.186   0.752   3.535  3.0254 -0.2029  0.4238
  134MOL   H17735023   6.185   0.907   3.623  1.2365 -2.2130  1.7798
  134MOL   H17835024   6.380   0.964   3.529 -1.1299 -0.0174  1.2461
  134MOL   H17935025   6.380   0.577   3.351  1.4927 -0.0064  0.6824
  134MOL   H18035026   6.360   0.682   3.215 -0.6306  1.0442  0.0653
  134MOL   H18135027   6.234   0.665   3.334 -0.2507 -3.1581  1.4402
  134MOL   H18235028   6.577   0.919   3.383 -2.0790  0.5743  0.0942
  134MOL   H18335029   6.575   0.805   3.257 -0.5000 -2.3899  0.2251
  134MOL   C18435030   6.648   0.737   3.453 -0.0441 -0.3054 -0.0123
  134MOL   C18535031   6.794   0.746   3.417 -0.1193 -0.3906  0.0805
  134MOL   C18635032   6.893   0.801   3.488 -0.4869 -0.2819 -0.1848
  134MOL   C18735033   6.876   0.868   3.625  0.0854  0.0301  0.2264
  134MOL   C18835034   7.035   0.825   3.436 -0.3855  0.2295  0.7773
  134MOL   H18935035   6.622   0.632   3.437 -1.7670 -0.1054  1.2620
  134MOL   H19035036   6.629   0.742   3.561  1.9366 -0.0433  0.3493
  134MOL   H19135037   6.814   0.720   3.314 -0.4977  1.6425 -0.5188
  134MOL   H19235038   6.795   0.827   3.685  0.4919  0.4064  1.0521
  134MOL   H19335039   6.853   0.974   3.610 -1.1343 -0.2902 -0.1953
  134MOL   H19435040   6.975   0.855   3.669  1.0710  0.9922 -1.6324
  134MOL   H19535041   7.096   0.755   3.493 -0.2686 -0.4200 -0.1375
  134MOL   H19635042   7.057   0.927   3.468 -0.2859  0.6044 -0.4779
  134MOL   C19735043   7.059   0.807   3.283  0.2361 -0.0536  0.4230
  134MOL   C19835044   7.210   0.846   3.247  0.3023  0.3713 -0.2951
  134MOL   C19935045   7.254   0.942   3.171  0.3834  0.1542  0.7148
  134MOL   C20035046   7.168   1.049   3.105 -0.6442  0.2928 -0.2642
  134MOL   C20135047   7.404   0.959   3.146  0.7649 -0.4731  0.4064
  134MOL   H20235048   6.985   0.858   3.222 -0.5632 -1.2620  0.3725
  134MOL   H20335049   7.050   0.701   3.259  0.9169  0.0214 -0.1986
  134MOL   H20435050   7.285   0.787   3.298 -1.9504 -1.5149  0.9096
  134MOL   H20535051   7.208   1.150   3.116 -1.2006  0.7519 -2.2020
  134MOL   H20635052   7.066   1.049   3.142 -0.5181  0.8318  0.0950
  134MOL   H20735053   7.164   1.030   2.998 -2.5563 -1.2100  0.0484
  134MOL   H20835054   7.407   0.964   3.037 -0.9369 -3.1481  0.1765
  134MOL   H20935055   7.451   0.864   3.171  1.2628 -0.3216  0.0558
  134MOL   C21035056   7.459   1.083   3.219  0.0398 -0.5343 -0.1550
  134MOL   C21135057   7.608   1.096   3.194  0.5033  0.1673  0.3213
  134MOL   C21235058   7.670   1.170   3.104 -0.5165  0.1846  0.6402
  134MOL   C21335059   7.591   1.257   3.010  0.5624  0.0386 -0.6097
  134MOL   C21435060   7.825   1.170   3.072  0.2788 -0.0029 -0.7397
  134MOL   H21535061   7.457   1.083   3.328  0.0629 -1.1249 -0.1534
  134MOL   H21635062   7.409   1.174   3.187  1.6966  0.4172 -0.0882
  134MOL   H21735063   7.672   1.021   3.238 -0.1005 -0.7690 -0.3807
  134MOL   H21835064   7.605   1.232   2.904 -1.1830 -2.6142 -0.2547
  134MOL   H21935065   7.623   1.360   3.024  0.4520 -0.1049  0.7412
  134MOL   H22035066   7.484   1.263   3.031  0.4642  1.3133 -1.4478
  134MOL   H22135067   7.833   1.176   2.963  2.0639 -2.6101 -0.7808
  134MOL   H22235068   7.870   1.081   3.116 -1.9824 -0.6761  0.2706
  134MOL   C22335069   0.022   1.284   3.131  0.3274 -0.1767  0.2850
  134MOL   C22435070   0.171   1.256   3.125  0.0018 -0.3080  0.2196
  134MOL   C22535071   0.269   1.250   3.220 -0.4412 -0.6306 -0.2648
  134MOL   C22635072   0.241   1.264   3.364 -0.5291 -0.0809  0.0089
  134MOL   C22735073   0.410   1.219   3.186 -0.8351 -0.3026 -0.3216
  134MOL   H22835074   7.879   1.310   3.234  2.8045  0.0760  0.8781
  134MOL   H22935075   7.882   1.380   3.086  1.2038 -0.2867 -0.4036
  134MOL   H23035076   0.206   1.237   3.025 -1.9913 -0.8849 -0.3811
  134MOL   H23135077   0.291   1.182   3.415  1.6705  2.0526  1.3905
  134MOL   H23235078   0.132   1.257   3.370 -0.4638 -0.2340  0.9550
  134MOL   H23335079   0.268   1.359   3.409  0.5602  0.2636 -1.3153
  134MOL   H23435080   0.415   1.181   3.084  1.6739  1.0002 -0.7385
  134MOL   H23535081   0.460   1.142   3.245  0.5607  0.1383 -0.8924
  134MOL   C23635082   0.505   1.345   3.203 -0.2059  0.2009  0.9419
  134MOL   C23735083   0.462   1.450   3.099  0.1219 -0.0050  0.3478
  134MOL   C23835084   0.546   1.491   2.999  0.3491 -0.4882 -0.5035
  134MOL   C23935085   0.688   1.446   2.996 -0.3506  0.0463  0.0171
  134MOL   C24035086   0.514   1.585   2.889 -0.8669  0.3782 -0.1098
  134MOL   H24135087   0.607   1.312   3.185 -0.1216  1.3713 -0.8672
  134MOL   H24235088   0.503   1.397   3.299  2.0815  1.8720  0.1378
  134MOL   H24335089   0.360   1.486   3.104 -0.6872 -2.1956  0.0212
  134MOL   H24435090   0.729   1.450   3.096  2.0283  1.7884 -0.9945
  134MOL   H24535091   0.742   1.507   2.924 -0.4574  1.1649  0.8761
  134MOL   H24635092   0.702   1.346   2.954  3.0536  0.5059 -0.0429
  134MOL   H24735093   0.520   1.540   2.790  0.1629  1.3202 -0.4924
  134MOL   H24835094   0.593   1.661   2.888 -0.7929  0.3851 -4.1265
  134MOL   C24935095   0.379   1.663   2.903  0.4320  0.3600  0.0317
  134MOL   C25035096   0.358   1.772   2.797 -0.3868  0.1208  0.7427
  134MOL   C25135097   0.326   1.900   2.824  0.0831 -0.0796  0.6510
  134MOL   C25235098   0.284   1.953   2.962  0.0953  0.1036 -0.5716
  134MOL   C25335099   0.319   2.005   2.709 -0.3045 -0.1633  0.1707
  134MOL   H25435100   0.373   1.712   3.001 -1.3735  0.6147 -0.1957
  134MOL   H25535101   0.293   1.598   2.898 -0.4378  1.3767  1.4249
  134MOL   H25635102   0.383   1.746   2.695 -0.0914  1.5648  0.4321
  134MOL   H25735103   0.179   1.960   2.988  0.2097 -1.2427  0.3213
  134MOL   H25835104   0.330   2.052   2.962 -2.8942  1.5499  1.1830
  134MOL   H25935105   0.317   1.894   3.047  1.0442 -0.4930 -1.3290
  134MOL   H26035106   0.222   2.053   2.710 -0.1113  0.3320 -1.5994
  134MOL   H26135107   0.341   1.958   2.613  2.1558 -0.3207  0.7677
  134MOL   H26235108   0.399   2.077   2.728 -0.2310  0.0498 -0.8945
  135MOL     C135109   6.836   2.130   1.387 -0.0388 -0.5763 -0.1731
  135MOL     C235110   6.884   2.275   1.387 -0.2151  0.4580  0.3529
  135MOL     C335111   6.831   2.372   1.461  0.0412 -0.0463 -0.1777
  135MOL     C435112   6.717   2.354   1.556  0.4534 -0.2495 -0.1238
  135MOL     C535113   6.887   2.511   1.466  0.1429 -0.3735  0.8470
  135MOL     H635114   6.809   2.085   1.292 -0.0735  1.0930 -0.9743
  135MOL     H735115   6.914   2.064   1.427  0.3877 -0.4524 -0.7910
  135MOL     H835116   6.966   2.297   1.320  0.7681 -2.0882  0.6867
  135MOL     H935117   6.684   2.455   1.581  0.5062 -0.4554  0.8157
  135MOL    H1035118   6.748   2.314   1.653  0.1754  2.5569  1.1878
  135MOL    H1135119   6.634   2.299   1.511 -0.8114  1.5799 -0.0592
  135MOL    H1235120   6.804   2.579   1.450  0.2953 -0.2340  0.6517
  135MOL    H1335121   6.957   2.519   1.382 -0.6645  1.5215  0.3307
  135MOL    H1435122   6.748   2.117   1.449 -1.2574 -0.4620 -1.8522
  135MOL    C1535123   6.952   2.544   1.606 -0.0642  0.0106  0.5145
  135MOL    C1635124   6.992   2.693   1.613 -0.1285 -0.1109  0.0757
  135MOL    C1735125   6.924   2.796   1.671  0.6278  0.5056  0.8915
  135MOL    C1835126   6.785   2.765   1.726  0.4485  0.0961  0.3210
  135MOL    C1935127   6.955   2.946   1.650 -0.2526  0.4561  0.3415
  135MOL    H2035128   7.038   2.479   1.616  2.4950  2.9070 -1.6861
  135MOL    H2135129   6.893   2.506   1.690 -1.0049 -0.7822 -0.4916
  135MOL    H2235130   7.076   2.732   1.557 -1.1889  2.1586  0.0391
  135MOL    H2335131   6.769   2.668   1.773 -1.8505  0.3155  0.0394
  135MOL    H2435132   6.717   2.782   1.643  0.9056 -0.0909 -0.0970
  135MOL    H2535133   6.760   2.841   1.800 -2.5123  1.0695 -1.6121
  135MOL    H2635134   6.875   3.008   1.611 -0.5329  0.9204  1.6300
  135MOL    H2735135   7.028   2.960   1.571 -1.6310 -0.2757 -1.0767
  135MOL    C2835136   7.019   2.999   1.779 -0.8671  0.1331 -0.2279
  135MOL    C2935137   7.041   3.148   1.797  0.1095  0.3431 -0.0024
  135MOL    C3035138   7.146   3.210   1.740  0.1898  0.7018 -0.0538
  135MOL    C3135139   7.239   3.143   1.648 -0.2073  0.2320 -0.1897
  135MOL    C3235140   7.171   3.357   1.770  0.0338 -0.1834  0.1141
  135MOL    H3335141   7.108   2.937   1.795 -0.4691  0.5852 -0.6717
  135MOL    H3435142   6.954   2.974   1.862 -0.3213  0.1817  0.2163
  135MOL    H3535143   6.967   3.200   1.856  0.9512  2.0311 -0.4016
  135MOL    H3635144   7.341   3.146   1.685 -1.2282 -0.8349  2.7979
  135MOL    H3735145   7.238   3.192   1.550 -2.1318 -1.0302 -0.8375
  135MOL    H3835146   7.233   3.034   1.645  0.5513  0.2103 -2.7127
  135MOL    H3935147   7.085   3.401   1.822  0.0828 -0.1282  0.1506
  135MOL    H4035148   7.161   3.418   1.681  1.8781  1.3276  0.8986
  135MOL    C4135149   7.312   3.379   1.823  0.8765 -0.3122  0.0286
  135MOL    C4235150   7.327   3.523   1.856 -0.1945  0.1516  0.1370
  135MOL    C4335151   7.414   3.610   1.805 -0.4423 -0.5789  0.1962
  135MOL    C4435152   7.524   3.560   1.708 -0.0284  0.6007  0.5164
  135MOL    C4535153   7.411   3.758   1.846  0.7880  0.4136  1.1818
  135MOL    H4635154   7.390   3.338   1.759 -0.8912 -1.9883 -1.0957
  135MOL    H4735155   7.317   3.335   1.922  0.0987  1.3934  0.8547
  135MOL    H4835156   7.257   3.578   1.917  1.5693  1.7932  0.7279
  135MOL    H4935157   7.541   3.643   1.640 -1.6282  0.3635 -0.1973
  135MOL    H5035158   7.488   3.476   1.649 -0.1287 -0.4309  1.9918
  135MOL    H5135159   7.610   3.544   1.773 -0.1655  0.3627  0.6413
  135MOL    H5235160   7.317   3.785   1.894 -1.4696  0.9592 -3.3189
  135MOL    H5335161   7.413   3.823   1.759 -1.2221  1.8058  2.1368
  135MOL    C5435162   7.524   3.799   1.939 -0.2817  0.1899 -0.2734
  135MOL    C5535163   7.515   3.943   1.982 -0.2158  0.3034  0.3727
  135MOL    C5635164   7.618   4.030   1.991 -0.0014 -0.0296  0.0419
  135MOL    C5735165   7.766   3.994   1.962 -0.4321  0.1533 -0.3164
  135MOL    C5835166   7.603   4.177   2.026  0.3506  0.3420  0.1928
  135MOL    H5935167   7.623   3.768   1.905 -0.0348 -0.4797  1.0399
  135MOL    H6035168   7.510   3.733   2.024  0.3299 -0.2367 -0.4978
  135MOL    H6135169   7.417   3.980   2.008  0.0642  0.6856  0.8894
  135MOL    H6235170   7.839   3.989   2.044 -2.6606  0.2459  1.7376
  135MOL    H6335171   7.808   4.061   1.887 -1.2681  0.9894 -0.0513
  135MOL    H6435172   7.779   3.892   1.926  0.0162 -0.3136  1.1000
  135MOL    H6535173   7.496   4.196   2.037  0.5710  1.6917  0.0525
  135MOL    H6635174   7.642   4.237   1.944 -1.6469  1.3919 -0.0324
  135MOL    C6735175   7.664   4.224   2.153  0.2561 -0.1214 -0.3345
  135MOL    C6835176   7.617   4.364   2.189  0.0122  0.2730  0.0737
  135MOL    C6935177   7.498   4.408   2.233  0.6461  0.1605  0.4334
  135MOL    C7035178   7.370   4.319   2.251  0.0318  0.1932  0.5156
  135MOL    C7135179   7.467   4.550   2.281  0.0404 -0.4631 -0.4187
  135MOL    H7235180   7.771   4.209   2.167  0.5922  1.2456 -1.2514
  135MOL    H7335181   7.623   4.161   2.231  2.4852 -0.8062  0.3307
  135MOL    H7435182   7.692   4.442   2.180 -1.7082  1.9890  0.3099
  135MOL    H7535183   7.398   4.218   2.220 -1.3102 -0.0600  0.0867
  135MOL    H7635184   7.284   4.344   2.190 -1.2336 -1.3757  1.6187
  135MOL    H7735185   7.347   4.315   2.358  3.5024  1.0902  1.3586
  135MOL    H7835186   7.374   4.588   2.241  0.5345  0.0802 -1.0603
  135MOL    H7935187   7.530   4.628   2.238 -2.2905  1.5368 -0.2949
  135MOL    C8035188   7.478   4.559   2.436  0.5964 -0.2347 -0.3230
  135MOL    C8135189   7.460   4.697   2.492 -0.1754 -0.3586 -0.7116
  135MOL    C8235190   7.377   4.736   2.589  0.1168 -0.1570  1.0486
  135MOL    C8335191   7.306   4.635   2.677  0.0989 -0.0026  0.0589
  135MOL    C8435192   7.347   4.882   2.625 -0.7246  1.0057 -0.8896
  135MOL    H8535193   7.574   4.529   2.478 -0.9741 -1.0893  2.8042
  135MOL    H8635194   7.403   4.488   2.471  0.8732 -0.7370 -0.7383
  135MOL    H8735195   7.520   4.771   2.440  1.9279  0.4756  2.7271
  135MOL    H8835196   7.319   4.673   2.778 -1.9813  2.3328 -0.5160
  135MOL    H8935197   7.359   4.539   2.677  0.3114  0.0797  2.1386
  135MOL    H9035198   7.204   4.607   2.653  0.3056 -0.0747 -0.7311
  135MOL    H9135199   7.400   4.948   2.556  0.8925  0.2921 -0.3384
  135MOL    H9235200   7.390   4.900   2.723  1.1599 -0.6157 -1.3680
  135MOL    C9335201   7.200   4.898   2.617 -0.4835 -0.1613 -0.3600
  135MOL    C9435202   7.168   5.046   2.656  0.5551 -0.0435  1.0017
  135MOL    C9535203   7.062   5.098   2.727 -0.4955 -0.4807  0.4236
  135MOL    C9635204   6.945   5.012   2.782  0.6018  0.4139  0.2129
  135MOL    C9735205   7.058   5.245   2.756 -0.2876 -0.2325 -0.3063
  135MOL    H9835206   7.140   4.834   2.681  0.5101  0.7116  1.5032
  135MOL    H9935207   7.169   4.873   2.515  0.8055 -3.2390 -0.0366
  135MOL   H10035208   7.250   5.110   2.625  0.3309 -0.4378 -0.4568
  135MOL   H10135209   6.857   5.037   2.723  0.9787 -1.3936 -1.1772
  135MOL   H10235210   6.930   5.048   2.883  0.7369  0.2466  0.2935
  135MOL   H10335211   6.970   4.907   2.766  1.6104  0.5459  0.8638
  135MOL   H10435212   7.155   5.289   2.733  0.0098 -1.4655 -1.5255
  135MOL   H10535213   7.053   5.256   2.864  0.2460 -0.9773 -0.1970
  135MOL   C10635214   6.949   5.311   2.676  0.2303  0.4446  0.1294
  135MOL   C10735215   6.923   5.450   2.728 -0.7081  0.2895 -0.0921
  135MOL   C10835216   6.987   5.560   2.695  0.2197 -0.2794 -0.1880
  135MOL   C10935217   7.107   5.563   2.601  0.1270 -0.9549 -0.0912
  135MOL   C11035218   6.955   5.692   2.759  0.4944  0.5918  0.5602
  135MOL   H11135219   6.853   5.262   2.694 -0.3000  1.7685  1.0313
  135MOL   H11235220   6.974   5.310   2.570  1.9746 -0.9236  0.5267
  135MOL   H11335221   6.853   5.445   2.811 -0.9420 -1.8620 -0.3981
  135MOL   H11435222   7.126   5.470   2.548  3.3138  0.1419 -0.9593
  135MOL   H11535223   7.202   5.583   2.650 -0.5700  0.2355  0.8212
  135MOL   H11635224   7.105   5.644   2.528 -0.0803  0.8622  1.8564
  135MOL   H11735225   7.046   5.746   2.784  1.2175  0.9796 -2.6870
  135MOL   H11835226   6.897   5.675   2.850  0.9286  0.8391  0.8824
  135MOL   C11935227   6.862   5.788   2.679  0.0514 -0.0882  0.0714
  135MOL   C12035228   6.808   5.914   2.753 -0.4687 -0.0240 -0.2596
  135MOL   C12135229   6.743   6.017   2.696  0.5116 -0.1844 -0.5655
  135MOL   C12235230   6.694   6.015   2.555 -0.7579 -0.0717  0.1513
  135MOL   C12335231   6.719   6.148   2.770 -0.4375 -0.1203 -0.3473
  135MOL   H12435232   6.781   5.730   2.635 -0.0602  0.4885 -0.4742
  135MOL   H12535233   6.925   5.821   2.596  0.3463 -1.1355 -0.1323
  135MOL   H12635234   6.849   5.923   2.852 -0.3775  1.2313 -0.4035
  135MOL   H12735235   6.736   6.103   2.507 -0.3079 -0.1134  0.4605
  135MOL   H12835236   6.586   6.027   2.564 -0.5098  1.3854  1.3585
  135MOL   H12935237   6.710   5.918   2.507  0.0122  2.0483 -4.0780
  135MOL   H13035238   6.732   6.219   2.688  0.4910 -1.4665 -1.4088
  135MOL   H13135239   6.780   6.154   2.859 -0.7462  2.0221 -0.2637
  135MOL   C13235240   6.575   6.171   2.816 -0.6384 -0.4300  0.0184
  135MOL   C13335241   6.550   6.307   2.874 -0.6929  0.5707  0.2951
  135MOL   C13435242   6.434   6.346   2.921  0.3858 -1.4847 -0.7408
  135MOL   C13535243   6.301   6.263   2.921 -0.0081  0.8724 -0.7185
  135MOL   C13635244   6.420   6.486   2.984 -0.5344  0.4115  0.4549
  135MOL   H13735245   6.545   6.091   2.883 -0.9975 -0.0145  0.3513
  135MOL   H13835246   6.503   6.152   2.736 -1.5029  3.8704 -0.3243
  135MOL   H13935247   6.634   6.375   2.885  1.2986 -1.5781 -1.1505
  135MOL   H14035248   6.286   6.219   3.019 -3.3416 -0.1996 -1.6530
  135MOL   H14135249   6.292   6.185   2.845 -3.6413  2.3574 -1.8987
  135MOL   H14235250   6.216   6.326   2.894  0.9077  2.4213 -0.0480
  135MOL   H14335251   6.326   6.530   2.950  0.4907  2.4645  0.1810
  135MOL   H14435252   6.498   6.550   2.942 -0.4753  0.5442  0.7643
  135MOL   C14535253   6.442   6.489   3.130  0.3909 -0.8295  1.0411
  135MOL   C14635254   6.392   6.621   3.196  0.4920  0.2256 -0.3338
  135MOL   C14735255   6.277   6.644   3.261  0.3742  0.0335 -0.2013
  135MOL   C14835256   6.166   6.535   3.281 -0.6134  0.4465 -0.2734
  135MOL   C14935257   6.248   6.784   3.315  0.4512 -0.7452 -0.3946
  135MOL   H15035258   6.548   6.486   3.155  0.4391  0.7606  1.0781
  135MOL   H15135259   6.397   6.407   3.185 -1.1522 -1.0151 -0.4857
  135MOL   H15235260   6.460   6.705   3.195  0.8228 -0.0415 -0.4766
  135MOL   H15335261   6.165   6.496   3.382  0.9549  2.4010  0.5290
  135MOL   H15435262   6.179   6.447   3.218  0.1643  1.0741 -0.9950
  135MOL   H15535263   6.071   6.584   3.256 -0.4839  1.0197  0.3428
  135MOL   H15635264   6.348   6.825   3.329 -0.0423  0.1935  0.4881
  135MOL   H15735265   6.208   6.762   3.414  1.7347  0.9415  0.5251
  135MOL   C15835266   6.152   6.867   3.228  0.1503 -0.8160  0.4220
  135MOL   C15935267   6.128   7.011   3.260  0.0871 -0.5952 -0.7553
  135MOL   C16035268   6.018   7.057   3.317  0.3039  0.7841  0.0611
  135MOL   C16135269   5.892   6.978   3.343  0.0896  0.3471 -0.3625
  135MOL   C16235270   5.997   7.198   3.348  0.2535 -0.2009  0.0453
  135MOL   H16335271   6.060   6.809   3.219  0.3137 -1.1903  1.1496
  135MOL   H16435272   6.195   6.871   3.128 -1.0340 -0.4305 -0.0861
  135MOL   H16535273   6.201   7.087   3.235 -1.6763  1.0386 -1.0541
  135MOL   H16635274   5.888   6.887   3.284 -0.6109 -1.4257  2.3098
  135MOL   H16735275   5.799   7.034   3.329 -2.1096 -3.1296 -0.1204
  135MOL   H16835276   5.888   6.948   3.448 -0.3424  0.1131 -0.4449
  135MOL   H16935277   6.095   7.246   3.347 -0.1596  0.6458 -0.4626
  135MOL   H17035278   5.949   7.215   3.444 -0.2599  0.4272 -0.3152
  135MOL   C17135279   5.917   7.276   3.240 -0.1237  1.0077 -0.0255
  135MOL   C17235280   5.984   7.270   3.101  0.0844 -1.2434 -0.2089
  135MOL   C17335281   6.041   7.367   3.030  0.3154 -0.9523 -0.8054
  135MOL   C17435282   6.026   7.517   3.061 -0.7584 -0.2914 -0.1604
  135MOL   C17535283   6.106   7.347   2.891  0.1117 -0.1028 -0.0245
  135MOL   H17635284   5.904   7.380   3.269 -1.7964  0.4121  1.4818
  135MOL   H17735285   5.817   7.233   3.231  0.0668  0.0964  1.9090
  135MOL   H17835286   6.003   7.172   3.060 -0.7209 -2.7193  2.7786
  135MOL   H17935287   6.125   7.559   3.042 -1.1308  0.4661 -0.4049
  135MOL   H18035288   5.989   7.526   3.163 -1.4174 -2.6672 -0.1547
  135MOL   H18135289   5.963   7.564   2.986  0.9052  1.4943 -0.4689
  135MOL   H18235290   6.195   7.407   2.874  0.0765 -0.0914 -0.1697
  135MOL   H18335291   6.035   7.395   2.824 -1.4409  0.2580  1.8392
  135MOL   C18435292   6.130   7.210   2.846 -0.7873  0.6067  0.5626
  135MOL   C18535293   6.214   7.201   2.718  0.3818 -0.3460 -0.1245
  135MOL   C18635294   6.317   7.125   2.687  0.2248  0.2836 -0.7034
  135MOL   C18735295   6.376   7.034   2.791  0.7156  0.2868  0.3747
  135MOL   C18835296   6.372   7.123   2.542  0.1994  0.0364 -0.6918
  135MOL   H18935297   6.036   7.161   2.820 -0.4376  0.4343 -0.4070
  135MOL   H19035298   6.177   7.148   2.923 -0.3824  0.8334  0.4998
  135MOL   H19135299   6.157   7.254   2.643 -1.9074  1.3236  2.7127
  135MOL   H19235300   6.441   6.964   2.738  1.2666  0.5954  0.6464
  135MOL   H19335301   6.297   6.970   2.829 -0.7729  0.1075 -2.8429
  135MOL   H19435302   6.423   7.079   2.878  0.7576  1.2691 -0.1383
  135MOL   H19535303   6.477   7.153   2.550  0.8166 -2.0062 -0.8688
  135MOL   H19635304   6.324   7.202   2.485 -0.1150  0.6664  0.4206
  135MOL   C19735305   6.355   6.989   2.468 -0.3202 -0.5414 -0.5949
  135MOL   C19835306   6.443   6.982   2.346  0.4348 -0.0000 -0.0701
  135MOL   C19935307   6.411   7.000   2.216 -0.0517  0.5741  0.0629
  135MOL   C20035308   6.273   7.026   2.157  0.0049  0.5358  0.0355
  135MOL   C20135309   6.523   6.982   2.116 -0.1662 -0.0467  0.6209
  135MOL   H20235310   6.255   6.949   2.450 -0.7682 -0.5878  1.8934
  135MOL   H20335311   6.403   6.916   2.534 -2.2744 -1.1929  0.1279
  135MOL   H20435312   6.545   6.963   2.378  1.1873  2.0678 -1.1387
  135MOL   H20535313   6.270   7.110   2.087 -0.3275  0.7982  0.3640
  135MOL   H20635314   6.202   7.054   2.234 -0.4248  2.3865 -0.9902
  135MOL   H20735315   6.229   6.937   2.110 -0.2158  0.0401  1.1770
  135MOL   H20835316   6.617   6.966   2.169  1.3699 -0.0519 -2.0217
  135MOL   H20935317   6.537   7.070   2.054  1.0206  1.0007  2.3450
  135MOL   C21035318   6.499   6.862   2.023  0.7058  0.1172 -0.7618
  135MOL   C21135319   6.614   6.848   1.923 -0.7494  0.0321 -0.9064
  135MOL   C21235320   6.677   6.736   1.877 -0.2046  0.6560  0.1816
  135MOL   C21335321   6.645   6.600   1.928  0.0541  0.2534 -0.4747
  135MOL   C21435322   6.789   6.749   1.772 -0.0771  0.2961 -0.3525
  135MOL   H21535323   6.407   6.885   1.969  1.3489  1.8490 -1.1582
  135MOL   H21635324   6.473   6.770   2.075  1.0092  0.7900  0.6192
  135MOL   H21735325   6.652   6.943   1.887 -1.3030 -0.1965 -2.1453
  135MOL   H21835326   6.719   6.522   1.908  0.4820  0.3510  0.6712
  135MOL   H21935327   6.555   6.555   1.886 -1.1158  0.9697  1.2257
  135MOL   H22035328   6.628   6.604   2.035  0.5023  2.2752 -0.4439
  135MOL   H22135329   6.787   6.845   1.721  0.4039 -0.5384 -1.9662
  135MOL   H22235330   6.757   6.677   1.697  1.3910 -0.1539 -0.5658
  135MOL   C22335331   6.940   6.721   1.810  0.5689  1.0254 -0.2100
  135MOL   C22435332   6.964   6.573   1.819  0.2735 -0.3277  0.3117
  135MOL   C22535333   7.019   6.505   1.923  0.5664 -0.1074 -0.2291
  135MOL   C22635334   7.077   6.566   2.052  0.4181  0.3024 -0.1078
  135MOL   C22735335   7.030   6.351   1.925 -0.4163  0.3476 -0.6247
  135MOL   H22835336   6.970   6.773   1.901  0.7277  2.5144 -1.0911
  135MOL   H22935337   7.012   6.748   1.731  0.7490  1.0719 -0.0312
  135MOL   H23035338   6.919   6.515   1.739  1.4116 -2.2027  0.9965
  135MOL   H23135339   7.124   6.498   2.123 -1.0599 -0.3290  0.2877
  135MOL   H23235340   7.005   6.622   2.112 -0.0506 -1.9579  1.5111
  135MOL   H23335341   7.152   6.638   2.020  0.0422  0.4864 -0.5804
  135MOL   H23435342   7.007   6.304   2.021  2.9056 -2.4550 -1.1076
  135MOL   H23535343   7.134   6.323   1.910 -0.2924  0.2637  0.3700
  135MOL   C23635344   6.943   6.271   1.819 -0.0683 -0.1210 -0.6262
  135MOL   C23735345   6.957   6.123   1.830 -0.2575 -0.3376 -0.2540
  135MOL   C23835346   7.043   6.037   1.767 -0.3036  0.0090  0.1452
  135MOL   C23935347   7.150   6.086   1.675 -0.3644 -0.2305 -0.1718
  135MOL   C24035348   7.034   5.892   1.794  0.0103 -0.3808 -0.2740
  135MOL   H24135349   6.974   6.301   1.719  1.7963  2.7924  0.7618
  135MOL   H24235350   6.837   6.290   1.838  0.4963 -0.1555  3.0457
  135MOL   H24335351   6.894   6.074   1.902  0.3102 -0.1665  0.3571
  135MOL   H24435352   7.159   6.192   1.700 -0.8753 -0.7443  2.3169
  135MOL   H24535353   7.115   6.072   1.572 -2.4234  5.0524 -0.3805
  135MOL   H24635354   7.240   6.027   1.684 -0.7938 -0.7982  0.4430
  135MOL   H24735355   6.970   5.879   1.882 -2.2034 -0.1413 -1.8065
  135MOL   H24835356   7.134   5.869   1.831  0.9070  0.1359 -2.3301
  135MOL   C24935357   6.998   5.800   1.676  0.8344 -0.6188 -0.7484
  135MOL   C25035358   6.847   5.779   1.664 -0.2241 -0.1222 -0.1521
  135MOL   C25135359   6.771   5.671   1.669 -0.0165 -0.3716 -0.1871
  135MOL   C25235360   6.825   5.528   1.699  0.1448 -0.6184 -0.1000
  135MOL   C25335361   6.620   5.671   1.633  0.5439  0.3416  0.9340
  135MOL   H25435362   7.042   5.703   1.698  2.0157  0.2528  0.8612
  135MOL   H25535363   7.047   5.830   1.584  0.7712  0.2040 -0.5216
  135MOL   H25635364   6.794   5.868   1.634  2.0806  1.0388 -0.8160
  135MOL   H25735365   6.745   5.462   1.733  0.6286 -0.5862  1.1120
  135MOL   H25835366   6.910   5.526   1.767 -0.5252  0.9027  0.8139
  135MOL   H25935367   6.867   5.490   1.606 -0.5022 -1.2151 -0.1494
  135MOL   H26035368   6.565   5.615   1.708  1.5482  0.5826  1.8586
  135MOL   H26135369   6.610   5.627   1.533 -2.6639  2.4649  0.2234
  135MOL   H26235370   6.586   5.774   1.623  2.3236  0.9774  1.2965
  136MOL     C135371   2.085   1.771   5.678  0.0597 -0.5606  0.0804
  136MOL     C235372   2.133   1.772   5.824 -0.6453 -0.0381  0.7407
  136MOL     C335373   2.217   1.675   5.875  0.0120  0.0814 -0.5162
  136MOL     C435374   2.271   1.548   5.809  0.1175  0.0115  0.1235
  136MOL     C535375   2.258   1.684   6.027 -0.1508 -0.4725  0.7009
  136MOL     H635376   1.977   1.769   5.666  0.0105  2.1593 -0.2447
  136MOL     H735377   2.111   1.863   5.626  0.4913 -1.9063 -2.1422
  136MOL     H835378   2.092   1.847   5.889 -1.1139  0.7613 -0.4694
  136MOL     H935379   2.374   1.521   5.833 -0.5572 -2.7756  0.1162
  136MOL    H1035380   2.272   1.560   5.700 -3.4187 -1.6700 -0.1479
  136MOL    H1135381   2.217   1.457   5.834  0.2668  0.0691  0.6558
  136MOL    H1235382   2.273   1.583   6.064 -1.9878 -0.0576  2.7023
  136MOL    H1335383   2.176   1.714   6.092  0.9277  0.6504  1.5564
  136MOL    H1435384   2.112   1.686   5.615  0.3991 -1.8783  1.9524
  136MOL    C1535385   2.392   1.768   6.044  0.7794 -0.7329 -0.4837
  136MOL    C1635386   2.419   1.767   6.195 -0.3133 -1.0517 -0.0465
  136MOL    C1735387   2.413   1.879   6.274 -0.3886 -0.0035 -0.7618
  136MOL    C1835388   2.423   2.022   6.218 -0.1416  0.5804 -0.2846
  136MOL    C1935389   2.445   1.875   6.422  0.7504  0.4480  0.2805
  136MOL    H2035390   2.367   1.864   5.998  0.3566  1.1214  3.3862
  136MOL    H2135391   2.475   1.725   5.988  1.1424 -1.7937  0.8575
  136MOL    H2235392   2.417   1.670   6.242 -1.1803 -1.1113 -0.2038
  136MOL    H2335393   2.394   2.034   6.114 -1.2502 -0.7771 -0.1470
  136MOL    H2435394   2.525   2.058   6.231 -1.0146  2.6226  1.1663
  136MOL    H2535395   2.364   2.091   6.279 -1.6644 -0.6278 -0.3469
  136MOL    H2635396   2.543   1.921   6.436  0.1640  1.2410  1.7852
  136MOL    H2735397   2.472   1.774   6.455  1.0423  0.3295 -0.2967
  136MOL    C2835398   2.343   1.946   6.518 -0.2794  1.0515 -0.1345
  136MOL    C2935399   2.365   1.904   6.659 -0.5349 -0.4322  0.7951
  136MOL    C3035400   2.441   1.971   6.750  0.4815  0.5571 -0.8435
  136MOL    C3135401   2.525   2.093   6.711  0.3868  0.9144 -0.1154
  136MOL    C3235402   2.460   1.912   6.889  0.1746  0.2238 -0.9528
  136MOL    H3335403   2.241   1.925   6.487 -0.3160 -0.9945  1.2592
  136MOL    H3435404   2.353   2.054   6.511  0.2520  1.1413  1.8159
  136MOL    H3535405   2.304   1.824   6.699 -0.5354 -1.5784 -1.4347
  136MOL    H3635406   2.630   2.067   6.722  0.2455  0.2475 -0.3666
  136MOL    H3735407   2.495   2.178   6.774  1.0407  0.4090  0.8858
  136MOL    H3835408   2.513   2.135   6.611 -0.0519  0.2342 -0.3524
  136MOL    H3935409   2.556   1.933   6.935 -0.6897 -1.1557  1.5906
  136MOL    H4035410   2.446   1.804   6.879  0.8728  0.1794 -1.4524
  136MOL    C4135411   2.359   1.972   6.982  0.0907  0.0866 -0.4211
  136MOL    C4235412   2.392   1.955   7.129  0.1372  0.7083 -0.4935
  136MOL    C4335413   2.301   1.932   7.228 -0.1534 -0.0401 -0.1452
  136MOL    C4435414   2.154   1.903   7.202  0.0508 -0.2674  0.4288
  136MOL    C4535415   2.335   1.940   7.378  0.3794 -0.3556 -0.5236
  136MOL    H4635416   2.255   1.953   6.956  0.5799  0.2109 -2.5623
  136MOL    H4735417   2.364   2.079   6.962 -0.5215  0.3829  0.9335
  136MOL    H4835418   2.493   1.975   7.160 -0.7147 -0.4038  3.2002
  136MOL    H4935419   2.098   1.996   7.191  1.1485  0.3206 -0.3019
  136MOL    H5035420   2.121   1.843   7.287  0.3978 -0.7280  0.2412
  136MOL    H5135421   2.142   1.856   7.105 -2.2701 -2.5676  1.7757
  136MOL    H5235422   2.442   1.952   7.397  0.4492 -2.6503  0.6162
  136MOL    H5335423   2.295   1.852   7.427 -2.9035  0.9989 -0.6462
  136MOL    C5435424   2.283   2.071   7.444 -0.1235  0.0109 -0.0305
  136MOL    C5535425   2.306   2.071   7.592  0.1364  0.0451  0.0947
  136MOL    C5635426   2.348   2.175   7.664 -0.3046 -0.8885 -0.5974
  136MOL    C5735427   2.369   2.312   7.597  0.0563  0.1783  0.0898
  136MOL    C5835428   2.363   2.172   7.809 -0.9829  0.1289 -0.6268
  136MOL    H5935429   2.175   2.071   7.433 -0.2187  0.1561  0.8630
  136MOL    H6035430   2.318   2.155   7.384  3.1756  0.5133  2.4199
  136MOL    H6135431   2.290   1.973   7.635  1.9227  1.3095  3.9370
  136MOL    H6235432   2.469   2.308   7.556 -1.0798  1.1938 -2.9006
  136MOL    H6335433   2.352   2.395   7.665 -1.4898  0.9175 -1.1499
  136MOL    H6435434   2.306   2.317   7.508  0.5497 -0.2131 -0.2861
  136MOL    H6535435   2.309   2.084   7.843  1.0209 -1.9198 -2.5863
  136MOL    H6635436   2.321   2.263   7.851 -1.3104 -0.3344  0.0715
  136MOL    C6735437   2.510   2.168   7.856 -0.0839 -0.1690  0.0522
  136MOL    C6835438   2.542   2.186   0.121 -0.0091 -0.2739 -0.5422
  136MOL    C6935439   2.667   2.171   0.172  0.1592 -0.4163  0.2768
  136MOL    C7035440   2.788   2.124   0.097  0.1989 -0.0692  0.2477
  136MOL    C7135441   2.703   2.213   0.313  0.0959 -0.3953  0.4767
  136MOL    H7235442   2.566   2.248   7.808 -2.0062  0.1904 -1.6331
  136MOL    H7335443   2.555   2.073   7.826  0.8802  0.8937 -1.9407
  136MOL    H7435444   2.468   2.234   0.184  1.6323  1.3786  0.1782
  136MOL    H7535445   2.838   2.040   0.144  1.3172  0.4280 -0.0473
  136MOL    H7635446   2.863   2.202   0.093  0.1902 -0.0826 -0.2590
  136MOL    H7735447   2.770   2.092   7.877  2.2355  2.0871 -0.8312
  136MOL    H7835448   2.630   2.284   0.351  0.8485  0.8845 -0.4272
  136MOL    H7935449   2.792   2.274   0.298  0.0269 -0.2941  0.4773
  136MOL    C8035450   2.735   2.094   0.407 -0.3839  0.3144  0.7311
  136MOL    C8135451   2.740   2.138   0.546  0.2365  0.5078  0.5950
  136MOL    C8235452   2.841   2.147   0.637  0.3203  0.5668  0.5423
  136MOL    C8335453   2.985   2.119   0.600 -0.4178  0.0729 -0.0394
  136MOL    C8435454   2.825   2.209   0.775  0.2871  0.2059  0.6408
  136MOL    H8535455   2.829   2.060   0.365  0.0438  2.2772  0.0527
  136MOL    H8635456   2.653   2.022   0.400  0.4044 -0.5646  0.5532
  136MOL    H8735457   2.641   2.168   0.576  0.0411  0.7910 -0.3048
  136MOL    H8835458   3.017   2.027   0.651  2.3835  1.3603  0.6517
  136MOL    H8935459   3.047   2.196   0.647  1.2798 -2.0945  1.4203
  136MOL    H9035460   3.003   2.117   0.493 -2.8049  0.1323 -0.4474
  136MOL    H9135461   2.728   2.258   0.778  0.7804  1.3943 -1.7450
  136MOL    H9235462   2.908   2.279   0.787 -0.0712  0.9507 -1.0606
  136MOL    C9335463   2.840   2.100   0.876  0.0931  0.1502 -0.0263
  136MOL    C9435464   2.873   2.141   1.017  0.7987 -0.0586  0.2185
  136MOL    C9535465   2.785   2.146   1.113 -0.2309  0.7084 -0.2924
  136MOL    C9635466   2.632   2.127   1.089  0.4914 -0.6995  0.1390
  136MOL    C9735467   2.830   2.162   1.259  0.0184 -0.3854 -0.1343
  136MOL    H9835468   2.924   2.033   0.856  0.5978  1.3495 -2.0618
  136MOL    H9935469   2.750   2.040   0.869 -0.8835  1.5069  0.7953
  136MOL   H10035470   2.977   2.161   1.038  0.3650  2.6443  0.0104
  136MOL   H10135471   2.567   2.171   1.165  0.2273 -1.4448  0.3495
  136MOL   H10235472   2.601   2.023   1.080  0.6272 -0.6240 -1.2101
  136MOL   H10335473   2.604   2.178   0.997  0.0070 -0.3052  0.5024
  136MOL   H10435474   2.778   2.095   1.328 -1.6265  0.8472 -0.1639
  136MOL   H10535475   2.789   2.261   1.277  0.0910 -0.3159 -0.3504
  136MOL   C10635476   2.980   2.161   1.290 -0.2097  0.2244 -0.0173
  136MOL   C10735477   3.013   2.159   1.432  0.1870  0.2357 -0.0695
  136MOL   C10835478   3.104   2.078   1.484  0.2155 -0.1319 -0.3638
  136MOL   C10935479   3.183   1.978   1.406 -0.2463  0.0377 -0.5101
  136MOL   C11035480   3.124   2.069   1.636 -0.5189 -0.6311  0.2610
  136MOL   H11135481   3.017   2.257   1.256 -0.4428  0.0074 -0.8868
  136MOL   H11235482   3.027   2.084   1.228 -1.1545  0.9160 -1.6149
  136MOL   H11335483   2.963   2.229   1.498 -0.9679 -1.8618  1.3588
  136MOL   H11435484   3.114   1.908   1.358  0.1430  0.0444 -1.0860
  136MOL   H11535485   3.244   1.921   1.476 -1.0355  0.4242  0.5149
  136MOL   H11635486   3.252   2.030   1.339 -1.0365  1.5036 -0.2058
  136MOL   H11735487   3.103   1.966   1.663  0.9717 -0.6192  1.5512
  136MOL   H11835488   3.052   2.136   1.684 -0.2838  0.1202 -0.4202
  136MOL   C11935489   3.272   2.103   1.689 -0.9098  0.1071  0.2723
  136MOL   C12035490   3.287   2.111   1.836  1.3610  0.2446  0.1751
  136MOL   C12135491   3.249   2.217   1.913 -0.3437 -0.6414  0.0398
  136MOL   C12235492   3.188   2.340   1.847 -0.1345 -0.5011  0.1133
  136MOL   C12335493   3.257   2.217   2.068  0.1766 -0.0641  0.3377
  136MOL   H12435494   3.302   2.205   1.666 -0.9237  0.5150  1.9685
  136MOL   H12535495   3.342   2.026   1.656  0.7325  2.2851 -1.4917
  136MOL   H12635496   3.330   2.029   1.892 -2.6494 -0.8197  1.8792
  136MOL   H12735497   3.149   2.413   1.917 -1.4156  0.1044 -1.1956
  136MOL   H12835498   3.117   2.324   1.766  1.8993 -1.9566 -1.4263
  136MOL   H12935499   3.260   2.400   1.791  2.1519 -1.5339  1.8803
  136MOL   H13035500   3.272   2.114   2.101 -1.4798  0.1841  1.9341
  136MOL   H13135501   3.164   2.257   2.109  0.2935  0.5403  0.0255
  136MOL   C13235502   3.372   2.305   2.111 -0.4363  0.6144  0.2471
  136MOL   C13335503   3.399   2.304   2.260 -0.1592 -0.5539  0.2101
  136MOL   C13435504   3.493   2.238   2.326  0.1501  0.1257  0.8569
  136MOL   C13535505   3.582   2.133   2.259  0.3372  0.6670 -0.2758
  136MOL   C13635506   3.502   2.258   2.475 -0.2755 -0.1357 -0.2857
  136MOL   H13735507   3.348   2.409   2.092 -0.3916  0.3303 -1.4863
  136MOL   H13835508   3.452   2.278   2.042  1.0171  0.8747  1.8116
  136MOL   H13935509   3.329   2.369   2.309  0.2429  1.7404 -2.1551
  136MOL   H14035510   3.538   2.113   2.162 -1.4208 -0.0432  0.6482
  136MOL   H14135511   3.587   2.038   2.313 -1.8068 -1.2512 -3.3255
  136MOL   H14235512   3.687   2.164   2.253  0.9646 -1.0971  0.7928
  136MOL   H14335513   3.473   2.360   2.502 -0.6005 -0.0239 -1.0332
  136MOL   H14435514   3.610   2.261   2.489 -0.4797  1.9826  1.0789
  136MOL   C14535515   3.442   2.146   2.560 -0.4375  0.4904 -0.1822
  136MOL   C14635516   3.470   2.166   2.707 -0.6055 -0.5353 -0.6295
  136MOL   C14735517   3.459   2.080   2.811  0.2655 -0.2207 -0.0292
  136MOL   C14835518   3.402   1.943   2.777 -0.0963  0.5576  0.1391
  136MOL   C14935519   3.496   2.124   2.958 -0.5751 -0.7087 -0.1097
  136MOL   H15035520   3.467   2.048   2.519  1.4903  1.3970 -1.2296
  136MOL   H15135521   3.333   2.149   2.553 -0.2610  3.4313 -2.5357
  136MOL   H15235522   3.485   2.268   2.739 -0.9217 -0.6340 -0.1638
  136MOL   H15335523   3.377   1.926   2.673 -3.2335  1.7745  0.6263
  136MOL   H15435524   3.321   1.912   2.844 -1.1708 -0.3674 -1.5463
  136MOL   H15535525   3.482   1.870   2.785  2.4971  3.3818  0.8989
  136MOL   H15635526   3.402   2.127   3.014 -0.5493  0.0951 -0.1081
  136MOL   H15735527   3.523   2.229   2.950 -0.8798 -0.6928 -1.0778
  136MOL   C15835528   3.603   2.045   3.038  0.1735 -0.1578  0.2326
  136MOL   C15935529   3.550   1.917   3.102  0.8825  0.9712  0.4364
  136MOL   C16035530   3.539   1.902   3.234  0.1607  0.5395 -0.1214
  136MOL   C16135531   3.580   1.992   3.349 -0.7250 -0.2268 -0.2637
  136MOL   C16235532   3.460   1.785   3.292 -0.2858  0.9663  1.0509
  136MOL   H16335533   3.657   2.105   3.111  1.1726 -0.0049 -0.6031
  136MOL   H16435534   3.683   2.015   2.970  0.1571  0.9677 -0.3085
  136MOL   H16535535   3.498   1.847   3.038 -0.8188  0.5846  2.1807
  136MOL   H16635536   3.615   1.935   3.435  0.5992 -0.1621 -0.7531
  136MOL   H16735537   3.499   2.059   3.375  0.1008  0.8500 -0.4493
  136MOL   H16835538   3.665   2.053   3.318 -0.0533 -1.3592 -0.6836
  136MOL   H16935539   3.532   1.743   3.361  2.3515  0.3134 -1.9531
  136MOL   H17035540   3.433   1.712   3.215 -1.0575  1.4225  0.8772
  136MOL   C17135541   3.327   1.821   3.358  0.3517  0.2984 -0.7625
  136MOL   C17235542   3.225   1.868   3.254 -0.3756 -0.3579 -0.5604
  136MOL   C17335543   3.118   1.803   3.200 -0.2893  0.3595  0.3081
  136MOL   C17435544   3.084   1.658   3.234 -0.1688  0.5122  0.1560
  136MOL   C17535545   3.029   1.869   3.097  0.9506  0.1435  0.4027
  136MOL   H17635546   3.335   1.896   3.437  1.4331 -2.5579  1.9761
  136MOL   H17735547   3.296   1.732   3.413  0.1277 -0.1725 -1.6452
  136MOL   H17835548   3.251   1.964   3.213  1.3474 -0.3792  0.4548
  136MOL   H17935549   3.074   1.603   3.141 -0.6713 -0.5163  0.8113
  136MOL   H18035550   2.988   1.657   3.287 -0.1044  2.6605  0.3901
  136MOL   H18135551   3.162   1.602   3.285 -1.5483 -1.3705  0.2420
  136MOL   H18235552   3.054   1.975   3.083 -0.7332  0.5216  0.1416
  136MOL   H18335553   2.929   1.862   3.140  0.1585  0.1050 -1.3985
  136MOL   C18435554   3.044   1.796   2.964 -0.1723 -0.2940 -0.6241
  136MOL   C18535555   2.985   1.866   2.847  0.7462 -0.0480 -0.0271
  136MOL   C18635556   3.008   1.849   2.715  0.4633 -0.0597  0.4489
  136MOL   C18735557   3.107   1.752   2.655 -0.1120 -0.8852 -0.1405
  136MOL   C18835558   2.943   1.935   2.612 -0.4773 -0.1869  0.2232
  136MOL   H18935559   3.021   1.690   2.957  0.8922 -0.4472 -1.9874
  136MOL   H19035560   3.151   1.800   2.946 -0.2385 -0.1006 -0.9756
  136MOL   H19135561   2.915   1.943   2.876  1.3049  0.0647  1.0463
  136MOL   H19235562   3.199   1.810   2.642 -0.3517  0.4950  3.5762
  136MOL   H19335563   3.073   1.704   2.564  1.5533  0.7600 -1.6792
  136MOL   H19435564   3.127   1.675   2.730 -4.1438 -1.7336  0.1286
  136MOL   H19535565   2.898   2.017   2.667 -0.1510  0.1572 -0.0242
  136MOL   H19635566   2.866   1.879   2.558 -0.8345 -0.0281  0.5661
  136MOL   C19735567   3.041   2.002   2.520 -0.2291  0.0492 -0.3259
  136MOL   C19835568   2.987   2.066   2.399 -0.4007  0.5182 -0.0984
  136MOL   C19935569   2.987   2.197   2.363  0.1029  0.1393  0.0402
  136MOL   C20035570   3.044   2.300   2.454  0.0437  0.0695  0.3622
  136MOL   C20135571   2.921   2.244   2.236 -0.8352  0.1924 -0.1954
  136MOL   H20235572   3.102   1.924   2.476  1.3242  1.7433 -1.2330
  136MOL   H20335573   3.110   2.069   2.572 -2.1290 -0.3116  2.8474
  136MOL   H20435574   2.938   1.999   2.330  1.0786  0.6037 -1.2569
  136MOL   H20535575   3.003   2.301   2.555 -0.1077 -0.0512  0.3026
  136MOL   H20635576   3.043   2.395   2.402 -0.9888 -0.1090  0.0512
  136MOL   H20735577   3.150   2.279   2.472  0.0665  2.3096  3.4239
  136MOL   H20835578   2.991   2.307   2.181 -0.7049 -1.2674 -1.7402
  136MOL   H20935579   2.842   2.313   2.265 -1.0916  1.0825 -2.8576
  136MOL   C21035580   2.880   2.130   2.136 -0.0215  0.5550  0.8544
  136MOL   C21135581   2.845   2.184   2.002  0.0093  0.3203  0.7119
  136MOL   C21235582   2.777   2.121   1.900 -0.6715 -0.5629 -0.4813
  136MOL   C21335583   2.731   1.972   1.912 -0.7416 -0.6750  0.5489
  136MOL   C21435584   2.751   2.186   1.768  0.5627  0.6126  0.2041
  136MOL   H21535585   2.801   2.066   2.173 -0.2772 -0.9406 -2.0769
  136MOL   H21635586   2.962   2.063   2.110 -0.5677  0.5624 -1.0222
  136MOL   H21735587   2.882   2.284   1.982  1.2629 -0.0116  1.3119
  136MOL   H21835588   2.628   1.962   1.877 -1.3503  0.3956  2.0449
  136MOL   H21935589   2.735   1.930   2.012  2.0137  2.3429  1.7848
  136MOL   H22035590   2.788   1.911   1.841 -1.0337  1.4942 -1.5951
  136MOL   H22135591   2.782   2.123   1.685  1.5588  0.7960  0.4273
  136MOL   H22235592   2.813   2.276   1.766 -1.7776  2.2502 -2.6373
  136MOL   C22335593   2.608   2.231   1.749  0.5695  0.6499 -0.1693
  136MOL   C22435594   2.598   2.327   1.630 -0.1769  0.3001 -0.0210
  136MOL   C22535595   2.506   2.318   1.532 -0.4075  0.3034 -0.0840
  136MOL   C22635596   2.407   2.207   1.526  0.2824  0.1269  0.3799
  136MOL   C22735597   2.502   2.420   1.415  0.0951 -0.1764  0.5738
  136MOL   H22835598   2.579   2.289   1.837  0.6986 -0.8193  0.8519
  136MOL   H22935599   2.538   2.148   1.751  0.9520  0.2878 -1.5701
  136MOL   H23035600   2.663   2.414   1.627  1.4165 -0.8115  1.5583
  136MOL   H23135601   2.432   2.139   1.444 -1.4506 -0.9052  0.6871
  136MOL   H23235602   2.310   2.256   1.517  0.8674  1.7291  2.3391
  136MOL   H23335603   2.395   2.140   1.610  1.3450 -2.1846 -1.2579
  136MOL   H23435604   2.526   2.359   1.328  0.7813  1.4005 -0.3576
  136MOL   H23535605   2.586   2.490   1.418 -2.1930  2.8519 -2.5583
  136MOL   C23635606   2.378   2.498   1.389  0.4902 -0.2862  0.0317
  136MOL   C23735607   2.345   2.600   1.496 -0.3288  0.2061  0.4834
  136MOL   C23835608   2.359   2.734   1.499  0.1622  0.3079 -0.1779
  136MOL   C23935609   2.408   2.817   1.383  0.0432 -0.3562 -0.1433
  136MOL   C24035610   2.331   2.825   1.622  0.5218 -0.0475 -0.7665
  136MOL   H24135611   2.285   2.442   1.382  0.9540 -1.0150 -0.4016
  136MOL   H24235612   2.378   2.559   1.299 -0.1008 -1.4395 -0.7569
  136MOL   H24335613   2.305   2.548   1.582  0.2338  0.0420  0.6477
  136MOL   H24435614   2.467   2.755   1.315  0.0351  1.0985 -1.5020
  136MOL   H24535615   2.476   2.891   1.425  1.5656 -1.7777 -0.0341
  136MOL   H24635616   2.318   2.863   1.342 -1.1218 -2.1142  0.3833
  136MOL   H24735617   2.413   2.894   1.641  1.5857 -1.1737 -1.1349
  136MOL   H24835618   2.330   2.757   1.707  2.3053  1.5727  0.5695
  136MOL   C24935619   2.197   2.898   1.602 -0.1003  0.0279 -0.0150
  136MOL   C25035620   2.143   2.954   1.730  0.6681 -0.6404 -0.0817
  136MOL   C25135621   2.078   2.887   1.829  0.4033  0.1237 -0.6465
  136MOL   C25235622   2.028   2.744   1.811  0.1890  0.1311  0.2605
  136MOL   C25335623   2.055   2.943   1.968  0.1338 -0.8019  0.1251
  136MOL   H25435624   2.115   2.836   1.565  1.3233 -1.8704 -0.0671
  136MOL   H25535625   2.193   2.981   1.532  0.7748  0.9825  1.0341
  136MOL   H25635626   2.163   3.058   1.749  2.5940 -0.2619 -3.8030
  136MOL   H25735627   1.939   2.729   1.873  0.8759  0.0656  1.2446
  136MOL   H25835628   2.109   2.685   1.854  1.0183  1.1034  0.0418
  136MOL   H25935629   2.011   2.715   1.707 -0.1564  1.9205 -0.2014
  136MOL   H26035630   2.124   2.885   2.029  1.2534 -1.5321 -1.7766
  136MOL   H26135631   1.951   2.933   2.000 -0.4209  2.5957 -0.4118
  136MOL   H26235632   2.083   3.048   1.978  0.8618 -0.6536 -2.9134
  137MOL     C135633   4.205   6.018   1.188  0.2960 -0.3809 -0.4690
  137MOL     C235634   4.147   5.982   1.054 -0.3573  0.4212 -0.1087
  137MOL     C335635   4.214   5.978   0.934  0.1619  0.2288  0.1799
  137MOL     C435636   4.359   6.013   0.930  0.0295  0.1537  0.0326
  137MOL     C535637   4.148   5.938   0.799  0.2588  0.1227  0.0854
  137MOL     H635638   4.185   6.121   1.216 -0.2707  0.3262 -3.3377
  137MOL     H735639   4.164   5.962   1.273 -0.0376  3.3490  1.9560
  137MOL     H835640   4.040   5.970   1.049 -0.1334 -1.8512 -0.0321
  137MOL     H935641   4.383   6.091   1.003 -0.8825  0.5099 -0.0423
  137MOL    H1035642   4.382   6.054   0.832 -1.7903 -0.8700 -0.8558
  137MOL    H1135643   4.428   5.934   0.959  0.8526  1.0377  0.5142
  137MOL    H1235644   4.057   5.882   0.821  1.4234 -2.6041 -1.7800
  137MOL    H1335645   4.224   5.871   0.759  0.8052  0.2051  0.9543
  137MOL    H1435646   4.314   6.010   1.196  0.2052 -2.0609 -0.7450
  137MOL    C1535647   4.123   6.054   0.702  0.3264 -0.1758  0.1520
  137MOL    C1635648   4.041   6.007   0.579 -0.3465 -0.1389  0.3796
  137MOL    C1735649   4.051   6.049   0.450 -0.3698 -0.0843  0.0474
  137MOL    C1835650   4.154   6.150   0.384 -0.6017  0.1433  0.0675
  137MOL    C1935651   3.945   5.993   0.353  0.0126  0.7316  0.5653
  137MOL    H2035652   4.219   6.089   0.665  1.3939 -1.7565  1.3874
  137MOL    H2135653   4.076   6.139   0.751 -1.9359 -1.4323  0.2432
  137MOL    H2235654   3.977   5.922   0.594 -1.4327  0.4356 -0.9321
  137MOL    H2335655   4.111   6.241   0.341  2.2542  1.2432 -0.5425
  137MOL    H2435656   4.201   6.088   0.307  1.3256 -0.3530  1.5974
  137MOL    H2535657   4.230   6.189   0.452 -1.0651  0.5677  0.3544
  137MOL    H2635658   3.885   5.923   0.411 -1.0207  1.9734  1.0340
  137MOL    H2735659   3.990   5.926   0.280 -1.7428 -1.1768  1.1891
  137MOL    C2835660   3.848   6.110   0.303 -0.0129  0.1175 -0.2496
  137MOL    C2935661   3.743   6.059   0.214 -0.0839  0.2076  0.2959
  137MOL    C3035662   3.724   6.073   0.081 -0.3532 -0.9550  0.6599
  137MOL    C3135663   3.820   6.148   7.871  0.2224  0.3679  0.7206
  137MOL    C3235664   3.603   6.006   0.013 -0.4393  1.0913 -0.5512
  137MOL    H3335665   3.909   6.189   0.259  1.0956 -0.8551 -0.4853
  137MOL    H3435666   3.796   6.166   0.381  2.3109 -1.2225  2.3537
  137MOL    H3535667   3.674   5.992   0.263 -1.0218  1.3665  0.5772
  137MOL    H3635668   3.909   6.199   0.025  1.4019 -0.4844 -0.9370
  137MOL    H3735669   3.762   6.203   7.797 -0.1451  0.2920  0.9512
  137MOL    H3835670   3.866   6.070   7.811  0.7634 -1.3897  3.3315
  137MOL    H3935671   3.558   6.078   7.827 -0.1240  1.3567 -0.4800
  137MOL    H4035672   3.528   5.970   0.083 -3.2387  2.3626 -2.8282
  137MOL    C4135673   3.651   5.906   7.792  0.2157 -0.0175 -0.8148
  137MOL    C4235674   3.744   5.798   7.849  0.3330 -0.0368 -0.0477
  137MOL    C4335675   3.734   5.662   7.836 -0.4120 -0.4874  0.3013
  137MOL    C4435676   3.614   5.599   7.765 -0.4845  0.2647 -0.0380
  137MOL    C4535677   3.837   5.570   0.010 -0.3292  0.1548 -0.0584
  137MOL    H4635678   3.687   5.955   7.702  1.3436  1.3761  0.3875
  137MOL    H4735679   3.556   5.869   7.751 -0.0807  1.2681 -1.3017
  137MOL    H4835680   3.830   5.834   0.020 -1.1688 -1.2828  3.2882
  137MOL    H4935681   3.635   5.524   7.688  0.5115 -2.2476  2.6180
  137MOL    H5035682   3.568   5.679   7.706  1.7082  2.5565  1.2393
  137MOL    H5135683   3.553   5.557   7.844  2.5301  1.0594  2.8156
  137MOL    H5235684   3.933   5.617   0.033 -0.3402 -0.2506  0.8536
  137MOL    H5335685   3.856   5.486   7.825 -0.3759  1.3055 -1.5237
  137MOL    C5435686   3.783   5.509   0.144 -0.1536  0.2639 -0.2998
  137MOL    C5535687   3.895   5.437   0.216 -0.0754 -0.2197 -0.7300
  137MOL    C5635688   3.961   5.491   0.322  0.1581  0.3686 -0.7654
  137MOL    C5735689   3.922   5.619   0.389  0.3830  0.0925 -0.0867
  137MOL    C5835690   4.067   5.417   0.391  0.1125  0.1527 -0.0711
  137MOL    H5935691   3.697   5.443   0.137  2.0006 -2.7119  0.2412
  137MOL    H6035692   3.746   5.596   0.199  0.3882  0.8364 -0.8173
  137MOL    H6135693   3.940   5.349   0.173  1.0828  0.5438 -1.1353
  137MOL    H6235694   3.977   5.643   0.480  2.8399 -2.0610 -0.9200
  137MOL    H6335695   3.817   5.614   0.415 -0.2297  2.2121 -2.0070
  137MOL    H6435696   3.930   5.697   0.314 -0.0930 -0.6269 -0.8987
  137MOL    H6535697   4.146   5.492   0.393  0.8581 -0.5271 -2.3460
  137MOL    H6635698   4.108   5.336   0.330 -0.3829 -0.5875  0.5787
  137MOL    C6735699   4.029   5.373   0.530  0.6964 -0.2659  0.3020
  137MOL    C6835700   4.153   5.348   0.621 -0.1480 -0.3959  1.0198
  137MOL    C6935701   4.197   5.227   0.665 -0.0413 -0.1922 -0.3924
  137MOL    C7035702   4.119   5.094   0.651 -0.7813  0.2509  0.4772
  137MOL    C7135703   4.332   5.227   0.735  0.6419 -0.1889 -0.3914
  137MOL    H7235704   3.953   5.295   0.537 -1.0397  1.5842  2.6354
  137MOL    H7335705   3.976   5.456   0.577 -1.1158 -0.5015 -1.2690
  137MOL    H7435706   4.223   5.430   0.630 -0.6526  0.0439  0.9418
  137MOL    H7535707   4.175   5.018   0.706 -0.7011  1.1583  1.6703
  137MOL    H7635708   4.127   5.069   0.545 -0.7374  0.9741  0.3050
  137MOL    H7735709   4.019   5.118   0.688 -0.0678  1.7107  1.5200
  137MOL    H7835710   4.324   5.180   0.833  1.0855 -1.2551 -0.8566
  137MOL    H7935711   4.358   5.331   0.755  1.0897 -0.2424 -0.6990
  137MOL    C8035712   4.439   5.166   0.645  0.0164 -0.0218 -0.4068
  137MOL    C8135713   4.568   5.151   0.725 -0.7645  0.3489 -0.5022
  137MOL    C8235714   4.591   5.068   0.824 -0.1959  0.7475  0.4104
  137MOL    C8335715   4.480   4.966   0.871 -0.2369 -0.0841  0.2177
  137MOL    C8435716   4.724   5.062   0.894 -0.4011 -0.1308 -0.4547
  137MOL    H8535717   4.465   5.223   0.556  1.2946 -1.9415 -1.2927
  137MOL    H8635718   4.416   5.065   0.611 -0.6755 -0.4769  1.3353
  137MOL    H8735719   4.652   5.205   0.685 -0.0823 -0.8001 -0.6453
  137MOL    H8835720   4.388   4.969   0.812 -0.7683 -4.5305  0.6308
  137MOL    H8935721   4.454   4.986   0.975  1.8540  0.3927  0.6770
  137MOL    H9035722   4.518   4.864   0.867  1.4685  0.5696 -0.4596
  137MOL    H9135723   4.708   5.088   0.999 -1.3473  1.5814 -0.9956
  137MOL    H9235724   4.791   5.135   0.851  2.5780 -2.5081 -0.0130
  137MOL    C9335725   4.793   4.929   0.887 -1.3368 -0.1516  0.1566
  137MOL    C9435726   4.918   4.914   0.972  0.2089 -0.2542 -0.1023
  137MOL    C9535727   5.023   4.829   0.945 -0.1507  0.2107  0.5131
  137MOL    C9635728   5.025   4.733   0.823  0.6059  0.7006 -0.1012
  137MOL    C9735729   5.145   4.827   1.033 -0.0918 -0.4020  1.1583
  137MOL    H9835730   4.816   4.914   0.782 -0.1749  2.6471 -0.0293
  137MOL    H9935731   4.723   4.849   0.911 -2.7520  1.0798  0.2016
  137MOL   H10035732   4.919   4.946   1.075 -1.9310  1.2511 -0.5102
  137MOL   H10135733   4.941   4.749   0.754  0.9783  1.1004 -0.4622
  137MOL   H10235734   5.012   4.626   0.844 -0.9688  0.9414  0.1995
  137MOL   H10335735   5.117   4.757   0.771  1.0971 -0.3579  0.2544
  137MOL   H10435736   5.155   4.920   1.089  2.8761 -1.7111  2.9186
  137MOL   H10535737   5.222   4.822   0.956 -0.3717 -2.2564  0.9849
  137MOL   C10635738   5.150   4.705   1.131 -0.0525 -0.8325  0.4702
  137MOL   C10735739   5.011   4.663   1.181 -0.1898 -0.4935 -0.4815
  137MOL   C10835740   4.965   4.539   1.204  0.7968 -0.2727  0.3417
  137MOL   C10935741   5.045   4.409   1.196  0.0156  0.2384  0.1021
  137MOL   C11035742   4.812   4.517   1.230 -0.3167  0.3110  0.0807
  137MOL   H11135743   5.226   4.720   1.208  0.5125  1.8887 -0.5481
  137MOL   H11235744   5.187   4.620   1.074 -0.9657 -0.5254 -0.6139
  137MOL   H11335745   4.941   4.746   1.183 -0.1730 -0.4316 -1.7931
  137MOL   H11435746   5.111   4.410   1.109  0.9534  3.5974  0.8010
  137MOL   H11535747   4.992   4.314   1.185  0.9586 -0.4348  1.1694
  137MOL   H11635748   5.117   4.399   1.278  1.4833 -1.0750 -1.2991
  137MOL   H11735749   4.776   4.454   1.149 -1.0883  0.0670  0.5990
  137MOL   H11835750   4.762   4.614   1.225  1.3285  1.1957  0.3866
  137MOL   C11935751   4.776   4.456   1.370  0.4990  0.3156 -0.2000
  137MOL   C12035752   4.816   4.548   1.481 -0.0379  0.4891  0.1583
  137MOL   C12135753   4.732   4.602   1.569  0.7378 -0.2059 -0.2903
  137MOL   C12235754   4.580   4.606   1.549 -0.1888  0.3627 -0.7455
  137MOL   C12335755   4.778   4.697   1.678 -0.1984  0.3044 -0.1757
  137MOL   H12435756   4.823   4.362   1.398  0.5354 -0.1005 -1.5804
  137MOL   H12535757   4.669   4.435   1.365  0.5040  0.5112 -1.4862
  137MOL   H12635758   4.920   4.573   1.495  0.3469 -0.5401 -0.8415
  137MOL   H12735759   4.538   4.572   1.454 -3.6068  2.3637 -0.0177
  137MOL   H12835760   4.537   4.704   1.566 -2.1396 -1.0272  2.9826
  137MOL   H12935761   4.526   4.551   1.626  0.6473  0.5797  0.0033
  137MOL   H13035762   4.721   4.789   1.669 -0.7956  0.2847  2.9402
  137MOL   H13135763   4.884   4.724   1.668 -1.0420  3.1590 -1.8442
  137MOL   C13235764   4.749   4.646   1.819 -0.3569  0.3439  0.5393
  137MOL   C13335765   4.764   4.757   1.919  0.0172 -0.5161  0.8469
  137MOL   C13435766   4.853   4.758   2.019 -0.0729  0.4529  0.5538
  137MOL   C13535767   4.939   4.638   2.053 -0.0064 -0.1238  0.8383
  137MOL   C13635768   4.871   4.884   2.099 -0.4625  0.0356  0.6247
  137MOL   H13735769   4.817   4.565   1.846  0.1233 -0.3285 -2.5888
  137MOL   H13835770   4.649   4.601   1.816 -1.0044  1.7998 -0.3813
  137MOL   H13935771   4.701   4.843   1.900  1.7708  0.8590  1.0461
  137MOL   H14035772   5.028   4.641   1.991 -2.0596 -1.0959 -2.2350
  137MOL   H14135773   4.893   4.541   2.038  0.6783 -0.5202  1.2729
  137MOL   H14235774   4.966   4.643   2.159 -1.3872  2.6085  1.1362
  137MOL   H14335775   4.849   4.974   2.040  0.4893 -0.9114 -1.2368
  137MOL   H14435776   4.978   4.896   2.121 -1.0009 -1.2511  4.2717
  137MOL   C14535777   4.801   4.868   2.239  0.2097 -0.7361 -0.2716
  137MOL   C14635778   4.841   4.977   2.338  0.0648  0.4844 -0.8526
  137MOL   C14735779   4.887   4.963   2.465 -0.3274  0.0177 -0.4618
  137MOL   C14835780   4.892   4.835   2.545 -0.2588 -0.6797  0.2803
  137MOL   C14935781   4.936   5.084   2.545  0.0245  0.0699  0.3121
  137MOL   H15035782   4.819   4.768   2.279 -0.4180 -1.3117 -1.3998
  137MOL   H15135783   4.694   4.876   2.219  0.3548  3.4158  0.2103
  137MOL   H15235784   4.859   5.076   2.298 -0.8779  1.1124  0.2582
  137MOL   H15335785   4.859   4.744   2.496 -0.6046  0.0925 -0.9393
  137MOL   H15435786   4.848   4.832   2.645  0.6341 -0.7463  0.6755
  137MOL   H15535787   4.997   4.821   2.572 -0.3182  0.1252  0.9668
  137MOL   H15635788   4.876   5.091   2.636  0.5346  1.1242  0.5689
  137MOL   H15735789   4.916   5.182   2.502 -0.2415  0.1736  0.6712
  137MOL   C15835790   5.078   5.088   2.573 -0.4629 -0.5682 -0.2653
  137MOL   C15935791   5.105   5.207   2.672 -0.8096  0.6616  0.4402
  137MOL   C16035792   5.130   5.202   2.804  0.8167  0.0128  1.0834
  137MOL   C16135793   5.125   5.074   2.893  0.3897 -0.7966  0.3154
  137MOL   C16235794   5.160   5.332   2.872 -0.3460  0.0776 -0.1343
  137MOL   H16335795   5.155   5.098   2.497  1.0518  0.2401  1.3498
  137MOL   H16435796   5.102   4.993   2.622  2.5104  0.1352 -0.3125
  137MOL   H16535797   5.117   5.292   2.607 -0.2428 -0.7303 -1.3209
  137MOL   H16635798   5.224   5.050   2.933 -0.1944 -1.1074  1.6003
  137MOL   H16735799   5.098   4.990   2.830 -1.4176  1.1110 -1.5456
  137MOL   H16835800   5.053   5.075   2.975  1.3721  1.3853  1.1911
  137MOL   H16935801   5.097   5.346   2.960 -0.8952  0.3736 -0.5704
  137MOL   H17035802   5.138   5.419   2.810 -0.3882 -0.6275 -1.1138
  137MOL   C17135803   5.308   5.346   2.904 -0.2635  0.3272 -0.7931
  137MOL   C17235804   5.337   5.435   3.026  0.1185 -0.0590 -0.0752
  137MOL   C17335805   5.378   5.560   3.025 -0.0859  0.9328  0.0916
  137MOL   C17435806   5.394   5.636   2.899 -0.2279 -0.0367 -0.8631
  137MOL   C17535807   5.425   5.631   3.152  0.5644 -0.6288  0.1234
  137MOL   H17635808   5.365   5.363   2.812  1.2805 -1.9079 -0.2878
  137MOL   H17735809   5.344   5.251   2.943  1.7668  1.6135  0.5718
  137MOL   H17835810   5.322   5.390   3.123  1.0737 -1.6249 -0.6350
  137MOL   H17935811   5.495   5.672   2.883  0.4687 -2.1909 -1.4292
  137MOL   H18035812   5.338   5.729   2.904  1.9127  1.3038 -1.5777
  137MOL   H18135813   5.361   5.582   2.810  0.7145 -1.1677 -0.5313
  137MOL   H18235814   5.512   5.693   3.130 -0.1927 -0.4169 -2.4158
  137MOL   H18335815   5.455   5.560   3.230 -0.1527 -1.8249 -0.6894
  137MOL   C18435816   5.312   5.717   3.212 -0.8492  0.3359  0.2129
  137MOL   C18535817   5.202   5.637   3.279  0.2706  0.4946 -0.1943
  137MOL   C18635818   5.072   5.630   3.245  0.0225  0.1516 -0.2496
  137MOL   C18735819   5.022   5.668   3.107  0.1106 -0.6531 -0.6948
  137MOL   C18835820   4.974   5.569   3.338  0.1835  0.1907 -0.4608
  137MOL   H18935821   5.269   5.788   3.141  0.5914  1.9986  0.9775
  137MOL   H19035822   5.352   5.786   3.287 -0.6733 -0.2360  0.6456
  137MOL   H19135823   5.219   5.598   3.378 -0.5324  1.7474  0.4592
  137MOL   H19235824   4.917   5.641   3.095  0.3529 -0.6497 -2.9070
  137MOL   H19335825   5.081   5.618   3.030 -0.1130 -1.0048 -0.6363
  137MOL   H19435826   5.034   5.777   3.106  0.1988 -0.6676 -2.1800
  137MOL   H19535827   4.883   5.627   3.321 -0.2061 -0.5002 -0.7438
  137MOL   H19635828   4.996   5.585   3.444  0.4019 -0.5839 -0.3887
  137MOL   C19735829   4.938   5.425   3.306 -0.2333  0.0292 -0.5391
  137MOL   C19835830   5.058   5.337   3.273  0.3716 -0.1349  0.4550
  137MOL   C19935831   5.089   5.226   3.341  0.7072 -0.0912  1.4344
  137MOL   C20035832   5.035   5.183   3.476 -0.3077 -0.3427  0.4296
  137MOL   C20135833   5.190   5.134   3.279  0.0160 -0.5422  0.3765
  137MOL   H20235834   4.876   5.412   3.217 -0.3857  2.6284 -0.8362
  137MOL   H20335835   4.875   5.374   3.379  0.4785 -2.1784 -1.4253
  137MOL   H20435836   5.106   5.364   3.180 -0.6769  0.6303  0.1284
  137MOL   H20535837   4.955   5.112   3.458 -0.5173 -0.0386  0.1558
  137MOL   H20635838   4.996   5.268   3.532  1.0028  1.0689 -0.7489
  137MOL   H20735839   5.116   5.143   3.537  1.8419  1.4063 -1.1793
  137MOL   H20835840   5.181   5.132   3.170 -1.6168 -0.7969  0.4994
  137MOL   H20935841   5.166   5.033   3.312 -0.3194 -1.5757 -2.8394
  137MOL   C21035842   5.331   5.169   3.321 -0.4020 -0.1660  0.2985
  137MOL   C21135843   5.414   5.043   3.331 -0.7086  0.2480 -0.1805
  137MOL   C21235844   5.478   4.997   3.437  0.3214 -0.2357 -0.2778
  137MOL   C21335845   5.481   5.062   3.578  0.6238  0.1777  0.3644
  137MOL   C21435846   5.548   4.858   3.439 -1.0507 -0.1872  0.1393
  137MOL   H21535847   5.329   5.221   3.417 -1.0705 -3.7242  2.3196
  137MOL   H21635848   5.374   5.235   3.246 -3.2833  0.0013 -1.2671
  137MOL   H21735849   5.404   4.978   3.245  0.1511 -2.9520  2.0866
  137MOL   H21835850   5.545   5.005   3.646  0.4294  0.3705  0.7091
  137MOL   H21935851   5.380   5.040   3.611 -0.7110 -0.4939 -3.8996
  137MOL   H22035852   5.497   5.170   3.580  0.2733  0.2785 -1.4499
  137MOL   H22135853   5.647   4.862   3.486 -0.5466  2.3297 -1.0320
  137MOL   H22235854   5.570   4.829   3.336  1.5540 -1.7805  1.0644
  137MOL   C22335855   5.466   4.744   3.498  0.5608  0.2115 -0.1705
  137MOL   C22435856   5.342   4.713   3.414 -0.2931 -0.2991  0.2308
  137MOL   C22535857   5.209   4.732   3.439  0.6295 -0.4569 -0.4996
  137MOL   C22635858   5.159   4.769   3.575 -0.2039  0.1086 -0.5431
  137MOL   C22735859   5.099   4.715   3.339  0.6631  0.0060 -0.2259
  137MOL   H22835860   5.429   4.767   3.599  0.0492 -0.7069 -0.1468
  137MOL   H22935861   5.527   4.654   3.499  0.7332  0.3248 -0.4530
  137MOL   H23035862   5.364   4.679   3.313 -0.9678  2.3048 -0.8282
  137MOL   H23135863   5.237   4.773   3.651 -0.4452 -3.5201 -0.0301
  137MOL   H23235864   5.074   4.706   3.603 -0.3795  1.2965  1.7654
  137MOL   H23335865   5.131   4.875   3.574  2.9643  0.9898 -0.9337
  137MOL   H23435866   5.067   4.611   3.339 -3.6934  1.2063 -0.9952
  137MOL   H23535867   5.143   4.730   3.240  1.0187 -1.6377 -0.3286
  137MOL   C23635868   4.968   4.801   3.353 -0.1713  0.1391  0.1644
  137MOL   C23735869   4.862   4.741   3.266 -0.2487  0.8714  0.2946
  137MOL   C23835870   4.805   4.789   3.154  0.3956 -0.3453 -0.6046
  137MOL   C23935871   4.869   4.909   3.094 -0.6479  0.9125  0.1548
  137MOL   C24035872   4.682   4.741   3.076  0.3544 -0.1111 -1.1427
  137MOL   H24135873   4.980   4.906   3.326  1.3011  0.0489  0.4122
  137MOL   H24235874   4.924   4.796   3.452 -1.2125 -0.3659 -0.3097
  137MOL   H24335875   4.815   4.655   3.311 -1.5490  1.4241  0.0295
  137MOL   H24435876   4.845   4.940   2.992 -0.1152  0.3279 -0.1548
  137MOL   H24535877   4.973   4.889   3.068 -0.9595  0.8103 -1.0526
  137MOL   H24635878   4.851   4.994   3.160  1.2123  2.7329 -1.5520
  137MOL   H24735879   4.601   4.814   3.070 -0.4434 -0.9056 -0.2854
  137MOL   H24835880   4.638   4.658   3.131  2.8576 -2.2543 -2.2611
  137MOL   C24935881   4.733   4.681   2.935 -0.2009  0.1941  0.1838
  137MOL   C25035882   4.612   4.633   2.870  0.3058  0.2326  0.0349
  137MOL   C25135883   4.581   4.513   2.835  0.2805 -0.2294  0.3553
  137MOL   C25235884   4.677   4.401   2.860 -0.2492 -0.0628 -0.1129
  137MOL   C25335885   4.458   4.471   2.746 -0.2716 -0.4897  0.2482
  137MOL   H25435886   4.808   4.602   2.933  1.3385  1.6751 -2.9347
  137MOL   H25535887   4.769   4.749   2.858  0.9046 -2.8494 -2.0636
  137MOL   H25635888   4.535   4.706   2.848 -2.4412 -2.5921 -0.0352
  137MOL   H25735889   4.623   4.306   2.849  2.0612 -1.6583  1.7835
  137MOL   H25835890   4.710   4.397   2.964  2.3264  0.0144 -0.9087
  137MOL   H25935891   4.762   4.407   2.793  1.2383  1.0029  1.8251
  137MOL   H26035892   4.403   4.381   2.769 -1.0340  0.1865  1.1104
  137MOL   H26135893   4.512   4.437   2.658  3.9702  1.7790  1.7888
  137MOL   H26235894   4.399   4.555   2.711  0.8680 -0.5931 -2.0359
  138MOL     C135895   3.342   3.656   2.049  0.0943 -0.6411  0.4294
  138MOL     C235896   3.320   3.808   2.074  0.3094  0.4681 -0.2134
  138MOL     C335897   3.291   3.898   1.977  0.2531  0.3277 -0.9137
  138MOL     C435898   3.258   3.876   1.834 -0.3153 -0.7025  0.1610
  138MOL     C535899   3.289   4.046   2.014  0.1466  0.1673  0.3563
  138MOL     H635900   3.450   3.645   2.039 -0.0342 -0.1231 -1.7104
  138MOL     H735901   3.316   3.599   2.138 -2.6066 -2.0177 -1.1953
  138MOL     H835902   3.343   3.838   2.175 -1.8384  0.2368  0.3549
  138MOL     H935903   3.285   3.777   1.796  2.1261  0.3035 -0.8394
  138MOL    H1035904   3.310   3.938   1.760 -0.8438 -1.3874 -0.8028
  138MOL    H1135905   3.154   3.885   1.803 -0.2387  0.7768  0.2986
  138MOL    H1235906   3.366   4.107   1.966 -2.0338  1.5689 -1.4687
  138MOL    H1335907   3.304   4.068   2.120  1.8150  0.3777  0.0938
  138MOL    H1435908   3.280   3.624   1.966  0.6835 -0.3319 -0.1287
  138MOL    C1535909   3.163   4.123   1.981  0.2094  0.0003 -0.7575
  138MOL    C1635910   3.043   4.073   2.068  0.2485 -0.5265  0.0331
  138MOL    C1735911   2.978   4.123   2.176 -0.1933 -0.0883 -0.1172
  138MOL    C1835912   3.009   4.265   2.229 -0.2492  0.3849 -0.1069
  138MOL    C1935913   2.854   4.058   2.239  0.1369  0.3440 -0.0248
  138MOL    H2035914   3.148   4.116   1.874  2.2130  0.2049 -1.0726
  138MOL    H2135915   3.177   4.230   1.998  0.4464 -0.1185 -0.1757
  138MOL    H2235916   2.995   3.981   2.039 -2.0457  0.9564 -1.0682
  138MOL    H2335917   3.057   4.276   2.326 -0.5512  2.1565 -0.1315
  138MOL    H2435918   2.911   4.313   2.227 -0.9987 -0.9818  2.4670
  138MOL    H2535919   3.055   4.329   2.154 -0.4254  1.4196  0.6568
  138MOL    H2635920   2.804   3.996   2.165  0.7138  1.1298 -1.0765
  138MOL    H2735921   2.779   4.135   2.254 -0.7969 -0.7143  0.8487
  138MOL    C2835922   2.892   4.011   2.382  0.0221  0.0636 -0.4919
  138MOL    C2935923   2.979   3.891   2.386 -0.0193  0.4663 -0.1405
  138MOL    C3035924   2.953   3.777   2.458 -0.2441 -0.1953  0.4302
  138MOL    C3135925   2.819   3.746   2.520 -0.0563 -0.4672  0.0488
  138MOL    C3235926   3.045   3.662   2.447  0.0932 -0.6286  0.4884
  138MOL    H3335927   2.802   3.988   2.439  1.9396  0.5195  2.8710
  138MOL    H3435928   2.947   4.090   2.433  0.3324 -1.7958  2.1290
  138MOL    H3535929   3.079   3.911   2.349  0.5361  1.1526  1.7015
  138MOL    H3635930   2.738   3.763   2.448 -2.7023 -2.7230  2.3431
  138MOL    H3735931   2.796   3.808   2.606  0.5213 -0.1037 -0.0583
  138MOL    H3835932   2.813   3.642   2.553 -3.6846 -0.3903 -0.1173
  138MOL    H3935933   3.124   3.695   2.379 -1.6669 -0.2372 -1.3954
  138MOL    H4035934   2.993   3.582   2.394 -2.1809  0.3362  1.1959
  138MOL    C4135935   3.103   3.604   2.572 -0.1810  0.0437 -0.3874
  138MOL    C4235936   3.213   3.499   2.561 -0.2664 -0.4005 -0.7588
  138MOL    C4335937   3.190   3.367   2.575  0.3665  0.5752  0.9844
  138MOL    C4435938   3.049   3.313   2.574  0.1081  0.0712 -0.1850
  138MOL    C4535939   3.305   3.260   2.574  0.1073  0.4658  0.3198
  138MOL    H4635940   3.029   3.562   2.640 -1.1876 -0.7189 -1.9328
  138MOL    H4735941   3.134   3.683   2.641  0.6940 -1.3310  0.8132
  138MOL    H4835942   3.313   3.539   2.547 -1.1211  1.7045 -1.0210
  138MOL    H4935943   2.970   3.384   2.551  0.0165  0.1105  0.2441
  138MOL    H5035944   3.028   3.274   2.674 -1.3281 -2.7864 -1.5479
  138MOL    H5135945   3.060   3.243   2.492 -0.7473  0.9041 -1.0286
  138MOL    H5235946   3.273   3.159   2.550 -0.3470  0.8887 -0.9078
  138MOL    H5335947   3.363   3.255   2.666  0.4561  1.4679  0.1650
  138MOL    C5435948   3.419   3.291   2.471 -0.6374  0.0792 -0.9766
  138MOL    C5535949   3.529   3.185   2.459 -0.3179 -0.6975 -0.4915
  138MOL    C5635950   3.616   3.161   2.359 -0.2172  0.0645 -0.6248
  138MOL    C5735951   3.593   3.238   2.224 -0.2736  0.7743  0.3498
  138MOL    C5835952   3.713   3.048   2.362  0.3299 -1.0783  0.0152
  138MOL    H5935953   3.472   3.376   2.515 -1.2550  0.1441 -0.3561
  138MOL    H6035954   3.376   3.313   2.373 -0.4643  1.6293 -0.7251
  138MOL    H6135955   3.544   3.129   2.551 -0.0579 -0.5434 -0.4377
  138MOL    H6235956   3.560   3.177   2.140  1.3724  0.6852 -0.2531
  138MOL    H6335957   3.696   3.262   2.199 -0.5749  1.2912 -0.4129
  138MOL    H6435958   3.529   3.327   2.218  1.2770  1.9370  0.6649
  138MOL    H6535959   3.708   2.999   2.460  3.1641 -1.1389  0.1644
  138MOL    H6635960   3.815   3.084   2.355 -0.3442  0.8467 -0.1163
  138MOL    C6735961   3.677   2.952   2.248 -0.2399 -0.6334  0.1662
  138MOL    C6835962   3.753   2.824   2.252  0.2080 -0.6814 -0.3435
  138MOL    C6935963   3.701   2.704   2.246  0.3549 -1.1353  0.2441
  138MOL    C7035964   3.556   2.677   2.259 -0.3952  0.1487  0.1263
  138MOL    C7135965   3.801   2.583   2.258 -0.1478 -0.0068  0.8151
  138MOL    H7235966   3.704   2.995   2.151  0.3292 -0.8223  0.2395
  138MOL    H7335967   3.569   2.941   2.242 -0.4002  0.0585  1.5753
  138MOL    H7435968   3.859   2.837   2.269 -0.1214  0.4955  0.8181
  138MOL    H7535969   3.525   2.606   2.182 -4.2043  0.2042  1.4948
  138MOL    H7635970   3.486   2.760   2.250 -1.4546 -0.8698 -1.2954
  138MOL    H7735971   3.527   2.621   2.348 -0.7821 -1.7589 -1.1556
  138MOL    H7835972   3.802   2.548   2.361  1.4670  0.5613  1.0009
  138MOL    H7935973   3.901   2.619   2.233 -0.0448 -0.7204  0.1466
  138MOL    C8035974   3.781   2.472   2.152 -0.4364  0.3496 -1.5463
  138MOL    C8135975   3.894   2.370   2.174  0.5226 -0.2966 -0.2645
  138MOL    C8235976   3.983   2.318   2.087 -0.1821 -0.4336  0.3774
  138MOL    C8335977   3.974   2.348   1.938 -1.1112  0.0092 -0.2289
  138MOL    C8435978   4.098   2.224   2.122 -0.2864  0.7186  0.1725
  138MOL    H8535979   3.793   2.520   2.055 -1.2658  0.7836 -1.4393
  138MOL    H8635980   3.681   2.430   2.167  0.8084 -1.3521  2.5288
  138MOL    H8735981   3.909   2.338   2.276  1.8447  1.1875  0.0396
  138MOL    H8835982   4.007   2.450   1.917  0.1871 -0.4165 -0.2727
  138MOL    H8935983   3.877   2.340   1.888 -0.7647 -2.1072 -0.5947
  138MOL    H9035984   4.044   2.284   1.885 -1.1150  0.0744 -0.3131
  138MOL    H9135985   4.190   2.265   2.080  0.8643 -0.7061  1.2698
  138MOL    H9235986   4.094   2.132   2.065  2.9753  0.7852 -0.2851
  138MOL    C9335987   4.119   2.196   2.272 -0.3133  0.1075  0.2599
  138MOL    C9435988   4.252   2.129   2.299 -0.6024  0.0493  0.6973
  138MOL    C9535989   4.278   1.998   2.298  0.7224 -0.0169 -0.6006
  138MOL    C9635990   4.171   1.888   2.291 -0.1720 -0.1916 -0.0718
  138MOL    C9735991   4.416   1.945   2.310 -0.2197  0.5846  1.1376
  138MOL    H9835992   4.036   2.139   2.316 -2.4672  0.4017 -3.1934
  138MOL    H9935993   4.115   2.288   2.330  1.7229 -0.3078  1.0887
  138MOL   H10035994   4.337   2.194   2.315 -2.3686  2.2491  1.2594
  138MOL   H10135995   4.159   1.841   2.193 -1.9360 -1.5050  0.7585
  138MOL   H10235996   4.073   1.929   2.314 -1.8814 -2.9201 -2.1462
  138MOL   H10335997   4.189   1.800   2.352 -0.1441 -1.5914 -2.0360
  138MOL   H10435998   4.431   1.894   2.405  3.1969 -0.4261  0.0949
  138MOL   H10535999   4.478   2.034   2.316  0.6165 -0.1149  2.9843
  138MOL   C10636000   4.458   1.867   2.188 -0.8863  0.3089  1.4707
  138MOL   C10736001   4.473   1.956   2.066 -0.2640  0.1216  0.6640
  138MOL   C10836002   4.523   1.918   1.946 -0.5273 -0.4856  0.3133
  138MOL   C10936003   4.588   1.782   1.915 -0.2781  0.0107  0.0701
  138MOL   C11036004   4.520   2.011   1.830 -0.6418  0.0045  0.3343
  138MOL   H11136005   4.388   1.787   2.165 -0.7612  0.9558 -1.2325
  138MOL   H11236006   4.555   1.821   2.212 -0.2970  1.0351  0.4855
  138MOL   H11336007   4.429   2.055   2.067  0.3628  0.4045  1.4465
  138MOL   H11436008   4.692   1.789   1.883 -0.2526 -1.0564 -0.1070
  138MOL   H11536009   4.541   1.712   1.845 -0.3304  1.5443 -1.4696
  138MOL   H11636010   4.609   1.735   2.011  1.7281 -0.3858 -0.5454
  138MOL   H11736011   4.437   2.081   1.837  1.1431  2.3228 -0.7913
  138MOL   H11836012   4.493   1.952   1.742  0.8877 -1.3916  0.7812
  138MOL   C11936013   4.651   2.094   1.828 -0.0334  0.4865 -0.2939
  138MOL   C12036014   4.675   2.174   1.703  0.2488  0.0632  0.1407
  138MOL   C12136015   4.758   2.140   1.604 -0.8177  0.0069 -0.0190
  138MOL   C12236016   4.828   2.008   1.601 -0.5330 -0.1893 -0.2599
  138MOL   C12336017   4.792   2.232   1.497 -0.0289 -0.2259  0.9090
  138MOL   H12436018   4.735   2.027   1.849  0.9912  1.8467  0.0302
  138MOL   H12536019   4.645   2.165   1.910  2.9899  2.0945 -1.3930
  138MOL   H12636020   4.627   2.271   1.701  1.1182  0.5196  0.6545
  138MOL   H12736021   4.826   1.971   1.498  1.0063 -0.3644 -0.2424
  138MOL   H12836022   4.789   1.929   1.666  0.6519 -0.3532  0.2819
  138MOL   H12936023   4.934   2.018   1.625 -0.6247  0.6986 -0.2310
  138MOL   H13036024   4.898   2.250   1.477 -0.3178  1.5450  0.8702
  138MOL   H13136025   4.753   2.327   1.533  1.2515  1.1383 -1.2222
  138MOL   C13236026   4.725   2.189   1.359 -1.2030 -1.0225 -0.4544
  138MOL   C13336027   4.725   2.316   1.262 -0.0386 -1.0866 -0.1724
  138MOL   C13436028   4.629   2.411   1.262 -0.3884 -0.2484 -0.2204
  138MOL   C13536029   4.495   2.404   1.344  0.0065 -0.2361  0.7302
  138MOL   C13636030   4.644   2.527   1.178  0.2311  0.4764  0.6320
  138MOL   H13736031   4.624   2.150   1.371 -2.0758  0.9858 -0.9669
  138MOL   H13836032   4.783   2.110   1.312  1.8029  1.8989 -1.8693
  138MOL   H13936033   4.816   2.328   1.205  1.4755 -1.1365  2.1755
  138MOL   H14036034   4.499   2.309   1.397  0.5435 -1.2831 -1.1330
  138MOL   H14136035   4.420   2.408   1.265  1.1908  2.1936 -0.3412
  138MOL   H14236036   4.492   2.488   1.413 -0.4671  0.7933 -0.5039
  138MOL   H14336037   4.547   2.561   1.140  0.6857  0.8216 -0.2442
  138MOL   H14436038   4.704   2.502   1.091  0.1155 -1.3497  1.0601
  138MOL   C14536039   4.713   2.647   1.247  0.4578 -1.2217 -0.1043
  138MOL   C14636040   4.860   2.630   1.269 -0.0459 -0.9108 -0.0670
  138MOL   C14736041   4.929   2.607   1.382  0.4266  0.1268  0.0248
  138MOL   C14836042   4.867   2.596   1.520  0.2916  0.3762 -0.3205
  138MOL   C14936043   5.081   2.590   1.378  0.0820 -0.2642  0.1482
  138MOL   H15036044   4.665   2.676   1.340 -0.6980 -0.8822 -0.7975
  138MOL   H15136045   4.720   2.724   1.171 -1.4639  0.7636  1.6600
  138MOL   H15236046   4.925   2.617   1.184 -0.2638  2.6915 -0.8491
  138MOL   H15336047   4.759   2.584   1.529  0.4132  0.6979  1.7370
  138MOL   H15436048   4.884   2.688   1.576  3.4746 -1.5258  2.0169
  138MOL   H15536049   4.913   2.517   1.580 -0.0581 -0.1036 -0.6886
  138MOL   H15636050   5.106   2.521   1.298 -0.1661  0.3278 -0.4462
  138MOL   H15736051   5.119   2.530   1.461 -1.1084  2.0875  2.4592
  138MOL   C15836052   5.150   2.725   1.396  0.1575 -0.7183  0.8259
  138MOL   C15936053   5.294   2.702   1.350 -0.0147 -0.5018 -0.4610
  138MOL   C16036054   5.410   2.733   1.407 -0.0990 -0.0602 -0.3250
  138MOL   C16136055   5.432   2.808   1.536 -0.1331  0.2636  0.3446
  138MOL   C16236056   5.543   2.706   1.344 -0.3458  0.0592  0.2158
  138MOL   H16336057   5.143   2.773   1.494  0.2679 -1.9855  1.4548
  138MOL   H16436058   5.106   2.797   1.327 -0.6311 -1.7943  0.1970
  138MOL   H16536059   5.297   2.660   1.251 -1.4632  1.5209 -1.4016
  138MOL   H16636060   5.469   2.909   1.517  1.4738 -0.2208  0.8827
  138MOL   H16736061   5.508   2.757   1.594  0.7045  1.3276  0.2070
  138MOL   H16836062   5.340   2.813   1.594 -0.7532  0.2452 -0.6247
  138MOL   H16936063   5.590   2.796   1.305 -0.5800  0.0113 -0.1753
  138MOL   H17036064   5.528   2.649   1.253  0.7889  0.3157 -0.1381
  138MOL   C17136065   5.633   2.617   1.432 -0.4971 -0.0883 -0.0207
  138MOL   C17236066   5.731   2.533   1.347 -0.4390 -0.3278 -0.6013
  138MOL   C17336067   5.863   2.557   1.331  0.8748 -0.6854 -0.3720
  138MOL   C17436068   5.939   2.674   1.406  0.1760  0.9184 -0.0915
  138MOL   C17536069   5.953   2.455   1.257  0.3210 -0.4031 -0.5714
  138MOL   H17636070   5.583   2.540   1.489 -1.5082  0.7865  0.2914
  138MOL   H17736071   5.689   2.682   1.500 -1.4003 -0.4557  1.0866
  138MOL   H17836072   5.686   2.443   1.309 -1.2899 -0.0650 -0.2438
  138MOL   H17936073   5.955   2.650   1.511 -1.0894 -0.4990 -0.2085
  138MOL   H18036074   5.879   2.764   1.395 -2.0874 -0.4592  0.6111
  138MOL   H18136075   6.040   2.691   1.366  0.4837  1.0152  0.7179
  138MOL   H18236076   5.898   2.363   1.238  0.0438 -0.3913  0.1294
  138MOL   H18336077   6.033   2.419   1.321  2.1770  0.9378 -2.0579
  138MOL   C18436078   5.995   2.515   1.123 -0.4567 -0.3709  0.4819
  138MOL   C18536079   5.903   2.466   1.013  0.3035  0.2481 -0.6568
  138MOL   C18636080   5.902   2.503   0.886  0.8173  0.7657 -0.4008
  138MOL   C18736081   5.996   2.611   0.836  0.5404 -0.3122  0.2346
  138MOL   C18836082   5.807   2.456   0.779  0.2103 -0.2675  0.0386
  138MOL   H18936083   6.094   2.484   1.090 -0.5375  0.2758 -0.3905
  138MOL   H19036084   5.997   2.624   1.128  0.6652 -0.4393  2.0544
  138MOL   H19136085   5.833   2.388   1.041 -0.4442  0.7085 -1.2487
  138MOL   H19236086   6.070   2.652   0.905  0.7020 -1.7823  0.9764
  138MOL   H19336087   5.945   2.701   0.803  0.2291 -0.3014  0.7296
  138MOL   H19436088   6.053   2.574   0.751  1.6606 -0.4773  1.0479
  138MOL   H19536089   5.764   2.549   0.742 -0.5556 -0.3776  0.6261
  138MOL   H19636090   5.730   2.392   0.822 -0.8914  0.7428 -0.4174
  138MOL   C19736091   5.869   2.376   0.662 -0.4301 -0.3274 -0.6768
  138MOL   C19836092   5.763   2.340   0.559  0.3807  0.2131  0.5474
  138MOL   C19936093   5.770   2.239   0.472  0.1192  0.0846 -0.1933
  138MOL   C20036094   5.886   2.149   0.468 -0.4296  0.1478  0.2574
  138MOL   C20136095   5.664   2.214   0.363 -0.0767 -0.2081  0.6838
  138MOL   H20236096   5.920   2.290   0.704  0.9196  0.5768 -0.4318
  138MOL   H20336097   5.955   2.427   0.618  0.7638 -3.0262 -1.5889
  138MOL   H20436098   5.672   2.399   0.561 -0.4951 -1.0782 -0.3036
  138MOL   H20536099   5.863   2.044   0.485 -0.9805 -0.0723 -1.6431
  138MOL   H20636100   5.960   2.171   0.544  0.3646  1.3922 -0.8550
  138MOL   H20736101   5.939   2.159   0.373 -0.8075  1.1259  0.1518
  138MOL   H20836102   5.646   2.107   0.369 -0.7379 -0.1423 -0.2286
  138MOL   H20936103   5.704   2.232   0.264 -2.9125  0.6480 -0.3378
  138MOL   C21036104   5.527   2.293   0.384  0.2374  0.3111  0.0843
  138MOL   C21136105   5.441   2.254   0.273 -0.2159 -0.3759  0.4604
  138MOL   C21236106   5.347   2.164   0.282 -1.2564 -0.2544  0.0800
  138MOL   C21336107   5.313   2.085   0.404  0.1693 -0.2278 -0.4088
  138MOL   C21436108   5.254   2.148   0.163  0.3616  0.2702  0.3023
  138MOL   H21536109   5.536   2.402   0.384 -2.0808  0.5239  0.2742
  138MOL   H21636110   5.481   2.269   0.480 -0.7098 -0.5153 -0.5731
  138MOL   H21736111   5.460   2.310   0.183  1.8039 -0.9988  0.4681
  138MOL   H21836112   5.383   2.085   0.488 -1.4022 -0.9798  0.9226
  138MOL   H21936113   5.283   1.983   0.378 -0.6290 -0.0733 -0.1049
  138MOL   H22036114   5.235   2.144   0.453  0.7220  0.5845 -0.4998
  138MOL   H22136115   5.248   2.040   0.151 -0.5628  0.5440 -1.8219
  138MOL   H22236116   5.301   2.182   0.071  0.0275 -1.2805 -0.4500
  138MOL   C22336117   5.115   2.196   0.179  0.4457 -0.3426 -0.9263
  138MOL   C22436118   5.114   2.345   0.186  0.0702  0.6033 -0.0043
  138MOL   C22536119   5.009   2.427   0.202 -0.1346  0.6028  0.2846
  138MOL   C22636120   4.873   2.366   0.223 -0.0717  0.4964 -0.1361
  138MOL   C22736121   5.030   2.583   0.215 -0.0047  0.8380  0.2335
  138MOL   H22836122   5.075   2.157   0.272 -0.9398 -0.7862 -1.6950
  138MOL   H22936123   5.060   2.151   0.096  0.3985 -1.3069 -0.3866
  138MOL   H23036124   5.210   2.387   0.162  0.8272 -0.1491  1.6372
  138MOL   H23136125   4.818   2.398   0.135  0.5999 -3.2324 -2.0027
  138MOL   H23236126   4.832   2.404   0.317 -0.6867  3.3166 -1.4759
  138MOL   H23336127   4.879   2.258   0.237 -2.3671  0.3289 -0.2294
  138MOL   H23436128   5.134   2.614   0.205  0.4571 -0.9996 -0.7881
  138MOL   H23536129   4.999   2.623   0.311 -1.4510  0.3635 -0.0205
  138MOL   C23636130   4.968   2.663   0.099 -0.0979 -0.6986 -0.4041
  138MOL   C23736131   4.974   2.812   0.120  0.1868  0.4083 -0.9290
  138MOL   C23836132   5.068   2.898   0.073 -0.2807  0.4314  0.4138
  138MOL   C23936133   5.197   2.843   0.012  0.1151 -0.3210  0.0948
  138MOL   C24036134   5.064   3.050   0.080  0.1389 -0.7301  0.2625
  138MOL   H24136135   4.864   2.636   0.086 -0.4239  0.4039 -0.1835
  138MOL   H24236136   5.015   2.634   0.006 -1.1025  0.6687 -1.3644
  138MOL   H24336137   4.896   2.843   0.187  0.7714  2.2728 -1.0567
  138MOL   H24436138   5.268   2.836   0.094  0.3887 -0.9302 -0.1977
  138MOL   H24536139   5.236   2.910   7.818  1.4249  0.6423  1.5819
  138MOL   H24636140   5.200   2.752   7.835  1.1903  0.1991 -0.6567
  138MOL   H24736141   5.081   3.102   7.868 -1.5566  0.0764  0.3806
  138MOL   H24836142   5.141   3.087   0.148  1.3981  0.7911 -1.9235
  138MOL   C24936143   4.919   3.091   0.127 -0.4661 -0.9162 -0.0303
  138MOL   C25036144   4.908   3.243   0.136  0.2608 -0.7018  0.0978
  138MOL   C25136145   4.818   3.321   0.082  0.0397  0.7795  0.2212
  138MOL   C25236146   4.709   3.278   7.877  0.1071  0.5313  0.0331
  138MOL   C25336147   4.822   3.475   0.088 -0.3292  0.3158  0.4227
  138MOL   H25436148   4.907   3.053   0.228 -1.2199 -0.7811 -0.0676
  138MOL   H25536149   4.846   3.051   0.056 -0.6939 -0.3383 -0.1278
  138MOL   H25636150   4.982   3.299   0.190  1.1618 -1.8023  0.0170
  138MOL   H25736151   4.618   3.300   0.050  0.8081 -0.1223  1.4656
  138MOL   H25836152   4.712   3.181   7.828  0.0222  0.5206  0.0480
  138MOL   H25936153   4.702   3.345   7.791  1.6361 -0.2360 -0.6988
  138MOL   H26036154   4.725   3.509   0.125  0.7711  2.2073  1.6680
  138MOL   H26136155   4.840   3.518   7.873  0.6116 -2.8136 -0.8370
  138MOL   H26236156   4.898   3.514   0.157 -0.1572  0.7342 -0.0009
  139MOL     C136157   3.343   3.195   0.168  0.2271  0.9409 -0.9145
  139MOL     C236158   3.223   3.149   0.092 -0.0124 -0.8749 -0.1051
  139MOL     C336159   3.092   3.138   0.134 -0.0553  0.1270 -0.1235
  139MOL     C436160   3.056   3.193   0.272 -0.3894 -0.1368  0.4125
  139MOL     C536161   2.982   3.085   0.047  0.4729 -0.1565 -0.0029
  139MOL     H636162   3.383   3.117   0.232 -0.6696  1.8701  0.8015
  139MOL     H736163   3.419   3.222   0.094 -0.1802  0.1210 -1.6387
  139MOL     H836164   3.256   3.097   0.003  1.3676  1.2020 -0.8354
  139MOL     H936165   3.023   3.122   0.348  1.3244  0.5968  1.8712
  139MOL    H1036166   2.976   3.264   0.253  1.5648  1.9855 -0.0524
  139MOL    H1136167   3.128   3.252   0.328  0.1852 -1.0405  0.6351
  139MOL    H1236168   2.910   3.163   0.021  0.2583 -1.0062 -2.0930
  139MOL    H1336169   2.926   3.008   0.099  0.1447  0.0361 -0.0670
  139MOL    H1436170   3.318   3.282   0.229  0.6280 -0.3320  1.1060
  139MOL    C1536171   3.016   3.034   7.794 -0.4718  0.2539  0.8587
  139MOL    C1636172   2.905   3.053   7.695 -0.3183 -0.0949  0.0030
  139MOL    C1736173   2.810   2.965   7.653 -0.4109  0.6555  0.5344
  139MOL    C1836174   2.797   2.826   7.707  0.4168  0.0980 -0.1376
  139MOL    C1936175   2.708   3.000   7.554 -0.0124 -0.2087  0.4678
  139MOL    H2036176   3.048   2.930   7.800  0.2200  0.4106  0.0946
  139MOL    H2136177   3.102   3.084   7.748 -0.5341 -1.1597 -0.8233
  139MOL    H2236178   2.896   3.152   7.654  1.6772  0.8252  1.6939
  139MOL    H2336179   2.717   2.816   7.780 -0.2751 -4.3526 -1.3802
  139MOL    H2436180   2.886   2.771   7.735 -0.0159 -0.3706  0.3236
  139MOL    H2536181   2.777   2.762   7.621 -1.2593  0.9570 -0.4151
  139MOL    H2636182   2.680   2.909   7.499  1.0834 -0.2333 -0.0659
  139MOL    H2736183   2.748   3.058   7.471  0.9820 -1.2754  0.1724
  139MOL    C2836184   2.589   3.075   7.616  0.4518 -0.5094  0.1507
  139MOL    C2936185   2.617   3.216   7.656 -0.1716  0.5340  0.7689
  139MOL    C3036186   2.631   3.255   7.785 -0.3854  0.0968  0.3037
  139MOL    C3136187   2.600   3.160   0.014 -0.1735 -0.4224 -1.1347
  139MOL    C3236188   2.654   3.397   7.830  0.1716  0.8892 -0.2788
  139MOL    H3336189   2.542   3.022   7.699 -0.2371  0.0499  0.1188
  139MOL    H3436190   2.515   3.074   7.536 -0.0171 -0.0075  0.5727
  139MOL    H3536191   2.625   3.285   7.574 -1.7754 -1.0945 -0.7843
  139MOL    H3636192   2.673   3.078   0.012 -0.3140 -0.6156  0.8543
  139MOL    H3736193   2.498   3.122   0.006 -0.8812  1.7857 -3.2076
  139MOL    H3836194   2.608   3.212   0.110  0.9570 -1.1726 -0.8052
  139MOL    H3936195   2.579   3.420   0.023  0.3050 -2.9774  1.1331
  139MOL    H4036196   2.640   3.467   7.747 -1.0643 -1.5498 -2.1838
  139MOL    C4136197   2.790   3.415   0.012  0.1274 -0.5058 -0.2950
  139MOL    C4236198   2.819   3.561   0.044  0.4878  0.0027 -0.3422
  139MOL    C4336199   2.826   3.615   0.167  0.1847 -0.1815 -0.3609
  139MOL    C4436200   2.812   3.538   0.296 -0.0256 -0.9847  0.0577
  139MOL    C4536201   2.866   3.758   0.182  0.3529  0.3580 -0.0137
  139MOL    H4636202   2.880   3.383   7.842  0.7171 -0.6731  0.7982
  139MOL    H4736203   2.789   3.345   0.096 -0.2477  0.3229  0.4096
  139MOL    H4836204   2.829   3.620   7.836 -1.6037 -0.6624 -1.0231
  139MOL    H4936205   2.902   3.553   0.355 -1.0578 -0.6977  1.5986
  139MOL    H5036206   2.809   3.430   0.279 -1.7286 -0.8855 -0.3470
  139MOL    H5136207   2.720   3.576   0.341  0.4797 -0.1863  0.4292
  139MOL    H5236208   2.870   3.811   0.087 -2.3121  1.2512  0.3345
  139MOL    H5336209   2.964   3.764   0.229  0.1854  0.2366  0.3545
  139MOL    C5436210   2.763   3.841   0.262 -0.3154  0.7640  0.2130
  139MOL    C5536211   2.799   3.986   0.245 -1.0198 -0.1645 -0.3410
  139MOL    C5636212   2.721   4.075   0.183 -0.5382 -0.2900  0.2622
  139MOL    C5736213   2.586   4.040   0.113 -0.7374 -0.8016 -0.1432
  139MOL    C5836214   2.764   4.219   0.174 -0.2396 -0.7755 -0.4207
  139MOL    H5936215   2.763   3.810   0.367  0.7464  0.4668  0.1389
  139MOL    H6036216   2.669   3.806   0.219 -0.1118  0.4625  0.0080
  139MOL    H6136217   2.897   4.006   0.285 -1.4517  0.3092  0.4871
  139MOL    H6236218   2.552   3.938   0.134 -2.1409 -0.5954 -1.3113
  139MOL    H6336219   2.588   4.054   0.005 -1.5048  1.4368  0.0930
  139MOL    H6436220   2.512   4.113   0.146 -0.5884 -0.6098 -0.2362
  139MOL    H6536221   2.859   4.234   0.226  0.7881 -0.1630 -2.3953
  139MOL    H6636222   2.687   4.275   0.226 -1.6472  0.4966 -3.6969
  139MOL    C6736223   2.791   4.268   0.033 -0.0725  0.2597  0.0052
  139MOL    C6836224   2.850   4.397   0.030 -0.2259 -0.1901  0.5087
  139MOL    C6936225   2.788   4.509   7.878 -0.1239  0.4015 -0.1413
  139MOL    C7036226   2.643   4.521   7.843  0.0690 -0.8476  0.2954
  139MOL    C7136227   2.861   4.646   7.865 -0.1243 -0.2694 -0.1421
  139MOL    H7236228   2.697   4.263   7.860 -0.5185  0.4135  0.7418
  139MOL    H7336229   2.851   4.195   7.861 -0.4089 -0.6960  0.8858
  139MOL    H7436230   2.956   4.404   0.054 -0.1977  1.4243 -0.0795
  139MOL    H7536231   2.625   4.526   7.736  0.0855 -0.7333  0.2978
  139MOL    H7636232   2.593   4.606   0.007  1.7052 -0.6189  1.6807
  139MOL    H7736233   2.579   4.438   7.874 -4.0465  1.1520 -2.4097
  139MOL    H7836234   2.791   4.717   0.027 -1.6956 -2.8800  1.7146
  139MOL    H7936235   2.869   4.677   7.761 -0.6013  0.8357  0.1435
  139MOL    C8036236   3.009   4.653   0.029 -0.1457 -0.2133  0.2564
  139MOL    C8136237   3.076   4.783   0.009 -0.0967  0.3180 -0.1593
  139MOL    C8236238   3.147   4.856   0.101  0.2874  0.0059 -0.5329
  139MOL    C8336239   3.198   4.816   0.243 -0.1137  0.8378 -0.0901
  139MOL    C8436240   3.191   4.997   0.063 -1.0067  0.0368 -0.2060
  139MOL    H8536241   3.058   4.578   7.849  1.4587  1.8359 -1.0192
  139MOL    H8636242   3.010   4.627   0.135 -1.1210  0.8959  0.5416
  139MOL    H8736243   3.051   4.830   7.797 -0.2188  0.6785  0.0485
  139MOL    H8836244   3.148   4.861   0.328 -0.1926 -2.6682  1.7994
  139MOL    H8936245   3.307   4.820   0.248 -0.0878 -0.0004  0.0166
  139MOL    H9036246   3.178   4.709   0.250 -0.2602  0.9872  2.0710
  139MOL    H9136247   3.191   5.031   7.842  0.1445  3.1475  0.7501
  139MOL    H9236248   3.298   4.998   0.087 -1.2855  2.3508  1.0478
  139MOL    C9336249   3.132   5.113   0.154  0.0843 -0.1255  0.2634
  139MOL    C9436250   3.168   5.247   0.092 -0.8176 -0.0631  0.4485
  139MOL    C9536251   3.089   5.356   0.077  0.4586 -0.1750  0.1740
  139MOL    C9636252   2.946   5.377   0.133 -0.3374  0.4809  0.2217
  139MOL    C9736253   3.141   5.479   0.003 -0.1650 -0.0762 -0.5395
  139MOL    H9836254   3.170   5.108   0.256 -0.2885  1.0096  0.4733
  139MOL    H9936255   3.023   5.106   0.154  0.0645  0.2214  1.3248
  139MOL   H10036256   3.273   5.262   0.071 -0.4175 -0.8876  1.7974
  139MOL   H10136257   2.903   5.292   0.186  2.3307 -0.0116  1.6613
  139MOL   H10236258   2.888   5.410   0.047 -0.2832  3.6473  1.3476
  139MOL   H10336259   2.949   5.460   0.204 -1.6025  0.7823 -0.0691
  139MOL   H10436260   3.067   5.487   7.806  1.0192 -0.2978 -1.6809
  139MOL   H10536261   3.240   5.461   7.843  0.0849 -0.4210  0.1796
  139MOL   C10636262   3.152   5.608   0.083  0.2733 -0.3499  0.4289
  139MOL   C10736263   3.220   5.718   0.002  0.5340  0.2299 -1.0769
  139MOL   C10836264   3.150   5.814   7.818 -0.5511 -0.0536 -0.3600
  139MOL   C10936265   3.000   5.824   7.827 -1.0052  0.8019 -0.3655
  139MOL   C11036266   3.222   5.925   7.743 -0.2602  0.3624  0.1981
  139MOL   H11136267   3.226   5.588   0.160  2.8985 -0.2030 -1.9844
  139MOL   H11236268   3.066   5.654   0.132  0.6295 -1.0082  1.6742
  139MOL   H11336269   3.328   5.714   0.012  0.4260 -1.6041 -0.4487
  139MOL   H11436270   2.963   5.880   0.031  0.1497 -1.7821  1.8926
  139MOL   H11536271   2.954   5.727   7.842 -0.0339  0.2243 -1.0969
  139MOL   H11636272   2.954   5.852   7.733 -1.1890  0.6239 -0.3283
  139MOL   H11736273   3.329   5.902   7.754 -0.9834 -3.7072 -0.4632
  139MOL   H11836274   3.193   6.021   7.786  0.6774  0.5150  0.5057
  139MOL   C11936275   3.193   5.921   7.590  0.6078 -0.6696 -0.4700
  139MOL   C12036276   3.283   6.011   7.510 -0.6264 -0.3579 -0.5427
  139MOL   C12136277   3.390   5.977   7.431 -0.6059 -0.2192  0.1525
  139MOL   C12236278   3.437   5.831   7.405  0.3793  0.2964  1.5271
  139MOL   C12336279   3.482   6.075   7.370 -0.2402 -0.6191 -0.0478
  139MOL   H12436280   3.089   5.945   7.569  0.9814  2.2171  0.7483
  139MOL   H12536281   3.189   5.818   7.555  0.4518 -1.2776  1.2778
  139MOL   H12636282   3.274   6.116   7.533  0.7646 -0.2927 -0.2311
  139MOL   H12736283   3.401   5.765   7.484  0.9153 -0.7657  0.8895
  139MOL   H12836284   3.546   5.829   7.407  0.5865 -2.1717 -4.0094
  139MOL   H12936285   3.420   5.793   7.305 -0.0006  2.0275  0.9190
  139MOL   H13036286   3.583   6.042   7.394  0.2646  0.6959 -0.3088
  139MOL   H13136287   3.490   6.170   7.422  1.3621 -0.8695  0.2108
  139MOL   C13236288   3.452   6.089   7.224 -0.0362 -0.3177 -0.3227
  139MOL   C13336289   3.553   6.169   7.151 -0.4914  0.2551 -0.3794
  139MOL   C13436290   3.533   6.254   7.049 -0.4246 -0.3660  0.0468
  139MOL   C13536291   3.404   6.277   6.983  0.0923 -0.3501  0.3869
  139MOL   C13636292   3.639   6.334   6.987  0.3190 -0.1934 -0.1876
  139MOL   H13736293   3.362   6.150   7.220  0.7142  0.8107 -0.3318
  139MOL   H13836294   3.439   5.999   7.164 -0.7829 -0.1861 -0.3613
  139MOL   H13936295   3.658   6.163   7.177 -0.7630 -0.8899  0.4967
  139MOL   H14036296   3.315   6.221   7.015  1.0399 -1.8080  0.5110
  139MOL   H14136297   3.424   6.250   6.879 -0.7506  1.1832 -0.1813
  139MOL   H14236298   3.375   6.382   6.979 -1.7916 -0.8519 -0.0505
  139MOL   H14336299   3.605   6.335   6.883  0.3516 -1.8963 -0.2277
  139MOL   H14436300   3.737   6.289   6.974  0.4594 -0.1239  0.6714
  139MOL   C14536301   3.657   6.467   7.060 -0.7263 -0.4617  0.3924
  139MOL   C14636302   3.718   6.573   6.977 -0.2107  0.7094 -0.1991
  139MOL   C14736303   3.845   6.617   6.982 -0.5342  0.0336 -0.4048
  139MOL   C14836304   3.954   6.555   7.065 -0.0245  0.3140 -0.2074
  139MOL   C14936305   3.886   6.746   6.905 -0.4418  0.7386 -0.3931
  139MOL   H15036306   3.716   6.450   7.149 -0.2204  0.2219  0.1881
  139MOL   H15136307   3.563   6.501   7.105 -0.3120  1.4120 -0.0959
  139MOL   H15236308   3.650   6.633   6.918  1.9597  2.2312 -1.2306
  139MOL   H15336309   3.931   6.457   7.107 -0.4231  1.0399  1.2612
  139MOL   H15436310   3.975   6.620   7.149  1.3198  1.3083 -1.2911
  139MOL   H15536311   4.049   6.541   7.014 -0.6177 -1.2303 -0.9375
  139MOL   H15636312   3.950   6.788   6.982  0.5543 -1.7748  0.2141
  139MOL   H15736313   3.804   6.814   6.880 -0.0038  0.7495 -1.8634
  139MOL   C15836314   3.971   6.724   6.784 -0.2477  0.1863  0.2668
  139MOL   C15936315   3.891   6.707   6.649  0.1096 -0.4396 -0.0919
  139MOL   C16036316   3.893   6.601   6.561  0.1656 -0.1135 -1.0083
  139MOL   C16136317   4.002   6.493   6.567  0.4554 -0.0037 -0.1682
  139MOL   C16236318   3.794   6.587   6.452  0.2963  0.2401 -0.3136
  139MOL   H16336319   4.048   6.648   6.799 -0.6201 -0.2114  0.1784
  139MOL   H16436320   4.025   6.815   6.759  0.1995 -0.1494 -0.0063
  139MOL   H16536321   3.818   6.786   6.639  2.4452  1.6206 -1.2690
  139MOL   H16636322   4.081   6.524   6.635  0.3586  1.5116 -0.7279
  139MOL   H16736323   4.044   6.485   6.466  0.0641  2.0509 -0.5177
  139MOL   H16836324   3.958   6.402   6.608 -1.2876  0.2734 -1.3654
  139MOL   H16936325   3.855   6.547   6.371 -0.1712 -1.0153 -0.0517
  139MOL   H17036326   3.747   6.680   6.420  0.0832  0.9547  1.9777
  139MOL   C17136327   3.694   6.475   6.496 -0.6811  1.1050 -0.2157
  139MOL   C17236328   3.583   6.439   6.401  0.5263  0.9513 -0.0161
  139MOL   C17336329   3.457   6.404   6.422  0.0931 -0.0645 -0.1691
  139MOL   C17436330   3.387   6.392   6.561  0.8124 -0.0755 -0.5954
  139MOL   C17536331   3.378   6.343   6.304 -0.3699  0.1792 -0.3439
  139MOL   H17636332   3.644   6.501   6.588 -3.1870 -0.2293 -1.1542
  139MOL   H17736333   3.747   6.381   6.510  0.3081  2.0192  2.3901
  139MOL   H17836334   3.617   6.413   6.302 -0.5628 -0.3162 -0.0816
  139MOL   H17936335   3.455   6.399   6.645 -0.3045  1.5625  0.1883
  139MOL   H18036336   3.350   6.290   6.575  1.6817 -0.2944  0.1358
  139MOL   H18136337   3.308   6.464   6.579  1.8665  0.7459  0.7235
  139MOL   H18236338   3.360   6.240   6.332  1.0579 -0.4150 -1.5363
  139MOL   H18336339   3.443   6.350   6.217  0.2087  1.4836  0.1722
  139MOL   C18436340   3.245   6.412   6.272 -0.0102  0.2409 -0.3278
  139MOL   C18536341   3.203   6.382   6.126  0.2525  1.4998  0.0558
  139MOL   C18636342   3.089   6.311   6.085 -0.4364  0.2735 -0.8924
  139MOL   C18736343   2.997   6.234   6.185 -0.3794  0.4662  0.1486
  139MOL   C18836344   3.039   6.298   5.942 -0.2013  0.1286  0.3819
  139MOL   H18936345   3.261   6.519   6.284 -0.5988  0.5500 -2.2605
  139MOL   H19036346   3.166   6.382   6.342  0.3174  1.6722  0.6800
  139MOL   H19136347   3.258   6.436   6.051 -0.2121  0.8712 -0.7465
  139MOL   H19236348   3.039   6.213   6.283 -2.7403 -0.1292  1.0687
  139MOL   H19336349   2.977   6.134   6.147  1.0446 -0.6566  2.2298
  139MOL   H19436350   2.900   6.281   6.201 -0.9560 -0.5053 -0.4243
  139MOL   H19536351   3.014   6.192   5.936  0.4276 -0.0143  0.2751
  139MOL   H19636352   3.113   6.334   5.871  0.3435  0.7999  1.2900
  139MOL   C19736353   2.908   6.384   5.913  0.0323 -0.5188  0.2921
  139MOL   C19836354   2.870   6.379   5.760 -0.5412  0.9424  0.0877
  139MOL   C19936355   2.741   6.366   5.713 -0.6744 -0.1852 -0.1350
  139MOL   C20036356   2.624   6.339   5.808 -0.2702  0.2542  0.7238
  139MOL   C20136357   2.712   6.375   5.569 -0.1947  0.8314 -0.0985
  139MOL   H20236358   2.913   6.488   5.945 -0.4998 -0.4376  0.1126
  139MOL   H20336359   2.833   6.336   5.975 -2.3008  1.7455 -0.6729
  139MOL   H20436360   2.951   6.397   5.691 -0.6287  0.3301 -0.1857
  139MOL   H20536361   2.666   6.254   5.861  1.1845 -0.0894 -0.9354
  139MOL   H20636362   2.536   6.298   5.758  0.3940 -1.0174  0.5758
  139MOL   H20736363   2.606   6.430   5.865 -1.3944  0.5771 -0.1237
  139MOL   H20836364   2.803   6.393   5.512  1.0941 -1.4623  1.1501
  139MOL   H20936365   2.644   6.457   5.546 -0.9426  0.3503  0.3739
  139MOL   C21036366   2.666   6.243   5.508  0.5580 -0.2731 -0.3087
  139MOL   C21136367   2.645   6.265   5.357  0.3874 -0.1853 -0.4153
  139MOL   C21236368   2.699   6.193   5.263 -0.9341 -1.0368 -0.6123
  139MOL   C21336369   2.787   6.074   5.285 -0.1233 -0.1557  0.2948
  139MOL   C21436370   2.675   6.222   5.115  0.6056  0.2707 -0.1870
  139MOL   H21536371   2.573   6.212   5.555  0.2888  0.5018 -0.3162
  139MOL   H21636372   2.743   6.174   5.541 -0.2549 -0.5604  1.0140
  139MOL   H21736373   2.585   6.350   5.331  0.9547  0.5792  0.7261
  139MOL   H21836374   2.733   5.979   5.279  0.0777 -0.1265 -3.8537
  139MOL   H21936375   2.838   6.074   5.381  0.8749  0.9086 -0.2274
  139MOL   H22036376   2.878   6.081   5.224 -0.3330 -1.0178 -0.1277
  139MOL   H22136377   2.771   6.220   5.063  1.1710  3.1607  0.6441
  139MOL   H22236378   2.632   6.322   5.107 -0.7774 -0.2647  0.5007
  139MOL   C22336379   2.570   6.116   5.061 -0.1212 -0.7047 -0.4884
  139MOL   C22436380   2.527   6.134   4.921 -0.5488  0.4021  0.0050
  139MOL   C22536381   2.457   6.041   4.852  0.4944  0.3625  0.4728
  139MOL   C22636382   2.406   5.915   4.927  0.0611 -0.2265 -0.4037
  139MOL   C22736383   2.406   6.057   4.708 -0.0921 -0.1204  0.2645
  139MOL   H22836384   2.488   6.118   5.132  0.1475 -1.2501 -0.1572
  139MOL   H22936385   2.615   6.017   5.061  0.7102 -0.3355  0.4251
  139MOL   H23036386   2.538   6.231   4.876 -1.2088  1.3122  1.7616
  139MOL   H23136387   2.314   5.945   4.978  0.0894  0.6556 -0.8590
  139MOL   H23236388   2.472   5.882   5.007  0.9614  2.1121 -0.1233
  139MOL   H23336389   2.390   5.837   4.852 -0.5147 -0.1693 -0.3473
  139MOL   H23436390   2.445   5.970   4.657  2.9609  0.6524  1.1920
  139MOL   H23536391   2.446   6.151   4.669 -0.2138 -0.5675 -0.9554
  139MOL   C23636392   2.253   6.050   4.685  0.2289 -0.8212  0.2919
  139MOL   C23736393   2.213   6.087   4.543 -1.1119  0.2970 -0.0351
  139MOL   C23836394   2.100   6.146   4.499 -0.0190 -0.3320 -0.6231
  139MOL   C23936395   1.986   6.188   4.589 -0.1304  0.0945  0.5661
  139MOL   C24036396   2.075   6.167   4.350 -0.6929 -0.3317 -0.1771
  139MOL   H24136397   2.204   6.124   4.749 -0.0078  0.6356 -1.5456
  139MOL   H24236398   2.215   5.955   4.722 -2.3390  0.4418  1.0115
  139MOL   H24336399   2.275   6.040   4.469 -0.8391  0.5461  0.0337
  139MOL   H24436400   2.023   6.276   4.641  1.5957  0.3715 -1.0832
  139MOL   H24536401   1.974   6.107   4.661  0.8425 -0.7029 -0.1490
  139MOL   H24636402   1.890   6.193   4.537  0.8946  0.5370 -1.3060
  139MOL   H24736403   2.169   6.159   4.296 -0.6168 -0.3463 -0.0408
  139MOL   H24836404   2.039   6.268   4.331 -1.0485 -0.1512  1.3940
  139MOL   C24936405   1.993   6.060   4.286 -0.1012 -0.1501  0.6066
  139MOL   C25036406   1.956   6.103   4.151  0.4565  0.2914  0.2194
  139MOL   C25136407   1.980   6.047   4.027  0.3214 -0.4689  0.2249
  139MOL   C25236408   2.066   5.919   4.023 -0.1355 -0.5932  0.5613
  139MOL   C25336409   1.904   6.069   3.896  0.1391 -0.0887 -0.8839
  139MOL   H25436410   1.901   6.054   4.343  1.6935 -0.2315  3.6239
  139MOL   H25536411   2.044   5.964   4.299 -0.2595 -0.3169 -0.0265
  139MOL   H25636412   1.889   6.187   4.142  0.5309  0.4419  1.0780
  139MOL   H25736413   2.150   5.931   3.954  0.8418 -1.3334  1.5895
  139MOL   H25836414   2.005   5.837   3.984  0.9876 -0.1832 -2.1857
  139MOL   H25936415   2.119   5.893   4.115 -1.2239  2.6216  2.1597
  139MOL   H26036416   1.838   6.156   3.892 -0.6517 -0.7154 -1.6860
  139MOL   H26136417   1.833   5.987   3.882 -1.5852  1.2129 -0.0490
  139MOL   H26236418   1.973   6.078   3.813  0.3866  2.2833 -0.4522
  140MOL     C136419   2.581   7.456   7.700 -0.0014 -0.1435 -0.2107
  140MOL     C236420   2.589   7.346   7.600 -0.2852 -1.0420  0.5383
  140MOL     C336421   2.561   7.215   7.620 -0.0160  0.1169  0.6916
  140MOL     C436422   2.529   7.153   7.754  0.6913 -0.0583 -0.3523
  140MOL     C536423   2.570   7.116   7.504  0.3009  0.1286 -0.5153
  140MOL     H636424   2.582   7.414   7.800  0.4971  0.1889 -0.0765
  140MOL     H736425   2.674   7.512   7.699 -0.4701  0.6857  1.1483
  140MOL     H836426   2.632   7.376   7.505 -0.5246 -0.8260  0.5008
  140MOL     H936427   2.454   7.074   7.741 -0.8113  1.5761 -1.8410
  140MOL    H1036428   2.476   7.223   7.820  0.1744 -0.6190 -0.1643
  140MOL    H1136429   2.616   7.117   7.809  0.9109  0.6714 -0.2248
  140MOL    H1236430   2.589   7.181   7.418 -2.3783  3.4668  1.2779
  140MOL    H1336431   2.471   7.071   7.495 -0.3370  0.9259  2.2622
  140MOL    H1436432   2.493   7.517   7.676 -0.5061 -0.7344  0.1103
  140MOL    C1536433   2.677   7.006   7.524  0.0673 -0.1934 -0.0166
  140MOL    C1636434   2.684   6.917   7.403 -0.1422  0.1296 -0.6604
  140MOL    C1736435   2.785   6.875   7.328  0.2201 -0.1148 -1.3569
  140MOL    C1836436   2.938   6.897   7.347  0.7386  0.5739  0.8261
  140MOL    C1936437   2.755   6.780   7.212  0.5233  0.0386  0.4907
  140MOL    H2036438   2.640   6.942   7.604  0.4960 -2.5035 -1.6333
  140MOL    H2136439   2.777   7.047   7.534  0.6891 -1.3583 -1.3444
  140MOL    H2236440   2.589   6.880   7.366  0.2724 -1.5190 -0.1158
  140MOL    H2336441   2.944   6.972   7.426  0.5606  1.7754 -0.2855
  140MOL    H2436442   2.970   6.948   7.256  0.0230  0.0228  0.2543
  140MOL    H2536443   3.000   6.807   7.356 -0.0083 -0.3861 -2.8852
  140MOL    H2636444   2.785   6.825   7.118  2.2004 -0.8522  0.5861
  140MOL    H2736445   2.648   6.760   7.204  0.4207  1.5357 -2.0988
  140MOL    C2836446   2.824   6.637   7.220  0.0155 -0.5341 -0.1251
  140MOL    C2936447   2.771   6.537   7.120  0.1134 -0.7157  0.3635
  140MOL    C3036448   2.666   6.452   7.138 -0.2595 -0.2286  0.7462
  140MOL    C3136449   2.585   6.443   7.265  0.2431  0.3976 -0.3528
  140MOL    C3236450   2.623   6.353   7.031 -0.5922 -0.6299 -0.2325
  140MOL    H3336451   2.826   6.599   7.323 -1.7516  2.4480  1.0711
  140MOL    H3436452   2.930   6.643   7.195 -0.0710 -1.6211 -0.7824
  140MOL    H3536453   2.814   6.540   7.021 -0.7348  2.3021  0.0218
  140MOL    H3636454   2.582   6.531   7.330  1.6305 -0.5390  1.0345
  140MOL    H3736455   2.622   6.359   7.324  0.2073  2.6371  2.9866
  140MOL    H3836456   2.482   6.416   7.244  0.1385 -1.4030  2.2520
  140MOL    H3936457   2.691   6.371   6.948  0.6958  1.1161  1.1612
  140MOL    H4036458   2.521   6.384   7.007  0.5444  1.9380 -1.9526
  140MOL    C4136459   2.630   6.207   7.085  0.1697 -0.5262  0.6797
  140MOL    C4236460   2.607   6.110   6.972 -0.4179 -0.1109 -0.2525
  140MOL    C4336461   2.493   6.055   6.936  0.4534 -0.5707 -0.2100
  140MOL    C4436462   2.367   6.072   7.009 -0.1932  0.3970  0.2849
  140MOL    C4536463   2.476   5.981   6.803 -0.0228  0.2904  0.2466
  140MOL    H4636464   2.556   6.184   7.162  0.7970  0.8278  1.7024
  140MOL    H4736465   2.727   6.173   7.121 -0.0576  0.9771  2.7837
  140MOL    H4836466   2.699   6.103   6.915  0.4937  1.0647  1.0254
  140MOL    H4936467   2.320   6.152   6.952  0.6366  0.3593 -0.4605
  140MOL    H5036468   2.369   6.103   7.113 -2.1876  0.6856  0.2503
  140MOL    H5136469   2.312   5.978   7.020  0.8645 -0.1848  0.6254
  140MOL    H5236470   2.572   5.992   6.752 -0.3781  0.1561 -0.4482
  140MOL    H5336471   2.397   6.024   6.742 -0.8986 -1.0318  0.4252
  140MOL    C5436472   2.457   5.830   6.816 -0.1367 -0.0126 -0.2015
  140MOL    C5536473   2.454   5.766   6.677 -0.0108  0.0825  0.0829
  140MOL    C5636474   2.373   5.680   6.611 -0.6460 -0.0145  0.6929
  140MOL    C5736475   2.243   5.628   6.668  0.5604 -0.1620 -1.0171
  140MOL    C5836476   2.407   5.633   6.469 -0.6408 -0.3897  0.1222
  140MOL    H5936477   2.363   5.807   6.865 -0.0077 -0.8930 -0.3516
  140MOL    H6036478   2.529   5.776   6.878  1.1437  0.5508 -1.1772
  140MOL    H6136479   2.543   5.790   6.620 -0.9347  0.4039 -1.2644
  140MOL    H6236480   2.192   5.704   6.727 -0.6901 -1.8286  0.0930
  140MOL    H6336481   2.267   5.545   6.735 -0.0568  2.2241  2.2789
  140MOL    H6436482   2.172   5.595   6.592 -1.8751 -0.3923  1.2762
  140MOL    H6536483   2.486   5.693   6.423 -0.5555  0.0842  0.8814
  140MOL    H6636484   2.317   5.646   6.408 -0.3694  0.4399 -0.1191
  140MOL    C6736485   2.452   5.490   6.462  0.7323  0.0960 -0.5866
  140MOL    C6836486   2.447   5.438   6.316 -0.6318 -0.2100 -0.1751
  140MOL    C6936487   2.551   5.388   6.247 -0.4480  0.4069  0.2411
  140MOL    C7036488   2.689   5.384   6.307 -0.1038 -0.6869  0.0668
  140MOL    C7136489   2.535   5.321   6.110  0.3436 -0.4594 -0.5987
  140MOL    H7236490   2.387   5.419   6.514  0.3241  0.3340 -0.7614
  140MOL    H7336491   2.551   5.484   6.506  0.4936 -0.5785 -0.1526
  140MOL    H7436492   2.350   5.444   6.269 -0.2236  1.2147 -0.8730
  140MOL    H7536493   2.765   5.409   6.233  0.6926 -0.6431  0.8929
  140MOL    H7636494   2.722   5.289   6.349  0.7043 -0.5696 -0.2858
  140MOL    H7736495   2.709   5.466   6.376  0.8396 -0.7616 -0.1137
  140MOL    H7836496   2.431   5.288   6.103  0.2630 -0.8391  1.7409
  140MOL    H7936497   2.594   5.229   6.117  2.0298  0.6770  0.4701
  140MOL    C8036498   2.559   5.422   5.993  0.6723 -0.4427  0.6896
  140MOL    C8136499   2.487   5.366   5.871 -0.1054  0.3428 -0.0068
  140MOL    C8236500   2.362   5.394   5.831 -0.0476  0.0857 -0.1336
  140MOL    C8336501   2.273   5.494   5.907 -0.3661  0.6577  0.0045
  140MOL    C8436502   2.299   5.327   5.714  0.1641  0.2411  0.0115
  140MOL    H8536503   2.668   5.425   5.981  0.5786 -2.2647 -0.9209
  140MOL    H8636504   2.521   5.520   6.020 -0.4547 -0.9293  0.8974
  140MOL    H8736505   2.549   5.302   5.810 -0.9447  0.3795 -0.9124
  140MOL    H8836506   2.257   5.577   5.838 -2.1575 -0.3510 -0.8130
  140MOL    H8936507   2.317   5.527   6.001  1.1169 -0.0028 -0.4387
  140MOL    H9036508   2.175   5.459   5.938  0.7580 -2.8421 -0.2139
  140MOL    H9136509   2.384   5.286   5.658  0.0622 -0.9441  0.7001
  140MOL    H9236510   2.243   5.399   5.655 -1.9108  0.6093  2.3530
  140MOL    C9336511   2.199   5.214   5.752 -0.0609  0.1798  0.3708
  140MOL    C9436512   2.270   5.096   5.821 -0.2916 -0.5119 -0.3137
  140MOL    C9536513   2.232   4.966   5.810 -0.5478 -0.1781 -0.3574
  140MOL    C9636514   2.107   4.921   5.747 -0.4893 -0.0232  0.0787
  140MOL    C9736515   2.321   4.858   5.868  0.3060 -0.4217  0.8373
  140MOL    H9836516   2.139   5.198   5.663  0.4089  0.8882 -0.0749
  140MOL    H9936517   2.137   5.253   5.833 -3.7445 -1.4993 -1.5482
  140MOL   H10036518   2.345   5.117   5.895 -2.2339  2.0929  1.0116
  140MOL   H10136519   2.056   4.993   5.683  0.7338 -0.8544 -1.8754
  140MOL   H10236520   2.030   4.888   5.817  0.5267  0.0664  1.2337
  140MOL   H10336521   2.136   4.834   5.688 -0.7908 -0.3325  0.3833
  140MOL   H10436522   2.259   4.781   5.913 -0.9853  0.3525  0.4233
  140MOL   H10536523   2.385   4.895   5.948 -0.2989  1.9410  0.2742
  140MOL   C10636524   2.416   4.785   5.762 -0.3989  0.1939 -0.7346
  140MOL   C10736525   2.472   4.655   5.803  0.8136  0.2338 -0.6508
  140MOL   C10836526   2.495   4.549   5.726 -0.3915 -0.0454 -0.6988
  140MOL   C10936527   2.464   4.555   5.577 -0.9544  0.3162 -0.4850
  140MOL   C11036528   2.561   4.425   5.790  0.1091  0.1021  0.8431
  140MOL   H11136529   2.499   4.853   5.741  0.7619 -0.5950  1.1553
  140MOL   H11236530   2.348   4.765   5.679  0.6807 -1.5789 -1.2126
  140MOL   H11336531   2.498   4.645   5.907 -1.0626 -3.4589 -0.4681
  140MOL   H11436532   2.357   4.542   5.565 -1.1694  0.4728  1.1580
  140MOL   H11536533   2.510   4.463   5.539 -1.0930 -0.1125  0.3865
  140MOL   H11636534   2.512   4.633   5.519  3.2161 -1.6216  0.1667
  140MOL   H11736535   2.565   4.434   5.898  0.1367 -0.0010  0.8495
  140MOL   H11836536   2.664   4.417   5.757 -0.4363 -1.1201 -0.6147
  140MOL   C11936537   2.471   4.296   5.771  0.2338  0.3353  0.2292
  140MOL   C12036538   2.514   4.172   5.846 -0.6535  0.3497 -0.9949
  140MOL   C12136539   2.533   4.050   5.799  0.5092 -0.4248  0.5704
  140MOL   C12236540   2.489   4.018   5.664  0.1631  0.0624 -0.2084
  140MOL   C12336541   2.603   3.944   5.871  0.1929  0.2706 -0.4201
  140MOL   H12436542   2.445   4.271   5.668  0.7653  2.0465 -0.3402
  140MOL   H12536543   2.372   4.321   5.811 -0.0297 -2.5539  1.5027
  140MOL   H12636544   2.552   4.193   5.944  0.5083  0.8683 -1.5460
  140MOL   H12736545   2.562   4.061   5.595  0.5419 -1.0102 -0.4705
  140MOL   H12836546   2.388   4.057   5.646  0.8949  1.6294 -1.0540
  140MOL   H12936547   2.475   3.913   5.642  1.8533 -0.2430  0.1611
  140MOL   H13036548   2.669   3.995   5.942  2.2160 -0.9640 -1.3486
  140MOL   H13136549   2.679   3.885   5.819  1.1410  0.2944  0.8966
  140MOL   C13236550   2.507   3.850   5.947  0.6625  0.2192 -0.1158
  140MOL   C13336551   2.582   3.773   6.057 -0.3242 -0.0854  0.1331
  140MOL   C13436552   2.588   3.808   6.191  0.0553 -0.0824  0.4512
  140MOL   C13536553   2.523   3.940   6.242  0.2797  0.3373 -0.3361
  140MOL   C13636554   2.650   3.722   6.302  0.6376  0.2506  0.0147
  140MOL   H13736555   2.461   3.774   5.884 -0.0466 -0.9149  1.7191
  140MOL   H13836556   2.424   3.909   5.987  2.4562  1.5667  1.7323
  140MOL   H13936557   2.614   3.673   6.029 -0.2012  0.3460 -1.2925
  140MOL   H14036558   2.522   4.011   6.159 -2.6042  2.8130  1.6774
  140MOL   H14136559   2.592   3.976   6.318  1.2386 -0.6372 -0.7280
  140MOL   H14236560   2.423   3.923   6.281 -0.7377  0.5961 -2.7805
  140MOL   H14336561   2.737   3.774   6.341  1.5018 -1.1998  0.0527
  140MOL   H14436562   2.698   3.641   6.247 -0.0221 -0.6500  0.7589
  140MOL   C14536563   2.548   3.691   6.410 -0.1636 -0.5060  0.5786
  140MOL   C14636564   2.601   3.589   6.511 -0.1234 -0.0913 -0.2065
  140MOL   C14736565   2.570   3.578   6.645 -0.3806 -0.4672 -0.3429
  140MOL   C14836566   2.460   3.666   6.707  0.3229  0.0729 -0.3095
  140MOL   C14936567   2.627   3.472   6.731  0.5235 -0.2473 -0.1547
  140MOL   H15036568   2.462   3.643   6.364 -0.8698  1.5267 -0.2353
  140MOL   H15136569   2.513   3.782   6.457  1.4971  1.1776 -1.3731
  140MOL   H15236570   2.668   3.518   6.465 -0.3401 -1.4645  1.5350
  140MOL   H15336571   2.434   3.760   6.658 -1.3066  0.1106  0.6117
  140MOL   H15436572   2.493   3.702   6.804  1.3864  0.8465 -0.9408
  140MOL   H15536573   2.365   3.613   6.709 -0.4887  1.5432  0.8436
  140MOL   H15636574   2.668   3.384   6.681  0.9969 -1.3917  2.1374
  140MOL   H15736575   2.554   3.417   6.791 -2.4315  1.2593 -2.2651
  140MOL   C15836576   2.728   3.536   6.827 -0.5325 -0.4111  0.6697
  140MOL   C15936577   2.863   3.530   6.757  0.5704 -0.3448  0.3380
  140MOL   C16036578   2.977   3.484   6.807 -0.5210  0.6679 -0.0086
  140MOL   C16136579   2.979   3.418   6.945  0.0288  0.2881 -0.2078
  140MOL   C16236580   3.108   3.471   6.723 -0.2800  0.7709  0.1165
  140MOL   H16336581   2.738   3.485   6.923  2.2022  0.6722  0.9935
  140MOL   H16436582   2.699   3.638   6.850  0.2872  0.0340 -0.2097
  140MOL   H16536583   2.864   3.561   6.653  1.7439 -0.2770  0.3590
  140MOL   H16636584   2.974   3.487   7.030 -0.2819 -0.6531  0.5455
  140MOL   H16736585   3.082   3.386   6.958 -0.5272 -1.7204 -0.6041
  140MOL   H16836586   2.908   3.337   6.959  0.5148 -0.1968 -0.5546
  140MOL   H16936587   3.133   3.365   6.714 -1.4041  0.7707 -3.9016
  140MOL   H17036588   3.185   3.536   6.765  0.6110 -1.0909  1.4327
  140MOL   C17136589   3.096   3.517   6.579  1.3520  0.2069  0.1695
  140MOL   C17236590   3.236   3.522   6.508 -0.3149 -0.2926  0.6424
  140MOL   C17336591   3.290   3.461   6.401  0.4379 -0.1305  0.0218
  140MOL   C17436592   3.208   3.352   6.328  0.1085  0.2396 -0.2113
  140MOL   C17536593   3.424   3.501   6.336  0.2704 -0.3055  0.0369
  140MOL   H17636594   3.055   3.617   6.567  1.9315  0.4881  0.4862
  140MOL   H17736595   3.026   3.447   6.534  0.6770  0.1076  1.3713
  140MOL   H17836596   3.301   3.593   6.555 -0.8738 -0.2861  1.4090
  140MOL   H17936597   3.285   3.298   6.274  0.6633 -0.4499  1.2383
  140MOL   H18036598   3.136   3.394   6.259 -0.4822  0.8418  0.7553
  140MOL   H18136599   3.156   3.293   6.404 -1.4760 -1.0675 -2.2561
  140MOL   H18236600   3.448   3.453   6.241  2.2186 -1.4365  1.0650
  140MOL   H18336601   3.503   3.472   6.405  0.2474  0.4492  0.3825
  140MOL   C18436602   3.439   3.652   6.310  0.7339  0.2206 -0.1149
  140MOL   C18536603   3.581   3.684   6.255 -0.2157 -0.0653 -0.0948
  140MOL   C18636604   3.621   3.776   6.162 -0.1808  0.3350  0.2893
  140MOL   C18736605   3.522   3.865   6.086 -0.3583  0.0289 -0.0175
  140MOL   C18836606   3.771   3.798   6.122 -0.3307  0.1426 -0.0691
  140MOL   H18936607   3.424   3.713   6.400 -0.9559  0.8416 -0.7956
  140MOL   H19036608   3.361   3.683   6.241 -0.1706  0.1517  0.8736
  140MOL   H19136609   3.662   3.621   6.290  1.4943  1.5929 -0.9329
  140MOL   H19236610   3.430   3.882   6.142 -0.6313  0.9513 -0.7369
  140MOL   H19336611   3.513   3.829   5.984 -0.5210  0.9039 -0.3221
  140MOL   H19436612   3.574   3.961   6.082 -0.9591  0.3696  0.2449
  140MOL   H19536613   3.828   3.766   6.210  1.6425  2.2610 -0.5359
  140MOL   H19636614   3.794   3.904   6.117  0.9246 -0.1009  0.2603
  140MOL   C19736615   3.810   3.720   5.995 -0.9357  0.0348  0.3744
  140MOL   C19836616   3.931   3.754   5.916  0.6176  0.4961 -0.4364
  140MOL   C19936617   4.041   3.683   5.911  0.0394  0.9236 -0.6132
  140MOL   C20036618   4.063   3.549   5.989  0.5182  0.2267 -0.3265
  140MOL   C20136619   4.153   3.731   5.826 -0.2369 -0.2562  0.1559
  140MOL   H20236620   3.735   3.721   5.916 -0.7418 -0.5959  0.1747
  140MOL   H20336621   3.806   3.614   6.020 -4.7076 -0.4069 -1.7402
  140MOL   H20436622   3.917   3.852   5.872 -3.3991  0.6141  0.9674
  140MOL   H20536623   4.155   3.551   6.048  0.3791 -1.1381 -0.0296
  140MOL   H20636624   4.074   3.469   5.916  2.2719  0.6892 -0.6001
  140MOL   H20736625   3.979   3.518   6.052  0.0590  1.1493 -0.4815
  140MOL   H20836626   4.241   3.742   5.888  1.5816  1.4996 -2.6610
  140MOL   H20936627   4.134   3.831   5.787  0.4329 -0.6676 -1.2417
  140MOL   C21036628   4.169   3.633   5.709  0.2783  0.1215  0.0191
  140MOL   C21136629   4.271   3.680   5.610  0.4764  0.3040 -0.1473
  140MOL   C21236630   4.256   3.682   5.478 -0.1324  0.1289  0.7105
  140MOL   C21336631   4.134   3.622   5.412 -0.2024  0.0831  0.2806
  140MOL   C21436632   4.378   3.705   5.389 -0.0444 -0.3696  0.2704
  140MOL   H21536633   4.068   3.622   5.668 -0.8207  1.0087  2.4436
  140MOL   H21636634   4.189   3.537   5.756 -0.2927 -1.3750 -2.6413
  140MOL   H21736635   4.363   3.724   5.648  1.2848 -0.3060 -1.3544
  140MOL   H21836636   4.042   3.660   5.457 -0.1475 -1.5436  1.8292
  140MOL   H21936637   4.137   3.514   5.427  0.9994  0.2162  1.0269
  140MOL   H22036638   4.119   3.640   5.306 -1.7395  1.5110  0.7168
  140MOL   H22136639   4.382   3.640   5.302 -1.5450  1.1985 -0.9964
  140MOL   H22236640   4.475   3.707   5.438 -0.3844  0.1834  0.9380
  140MOL   C22336641   4.376   3.849   5.329 -0.5981 -0.3699  0.0861
  140MOL   C22436642   4.488   3.878   5.225 -0.6151  0.0602  0.7997
  140MOL   C22536643   4.554   3.994   5.199 -0.3483  0.2790 -0.0668
  140MOL   C22636644   4.538   4.133   5.261 -0.2030  1.4826  0.8723
  140MOL   C22736645   4.653   3.991   5.085  0.4768 -0.1116 -0.7207
  140MOL   H22836646   4.395   3.912   5.416  0.0494 -0.9546  0.3710
  140MOL   H22936647   4.277   3.869   5.290  0.1679 -1.0981 -2.3580
  140MOL   H23036648   4.510   3.792   5.164 -0.6516  0.3790  0.3416
  140MOL   H23136649   4.628   4.166   5.312  0.1418 -0.1540  1.3509
  140MOL   H23236650   4.457   4.136   5.334 -1.7094 -1.3926 -0.5824
  140MOL   H23336651   4.499   4.200   5.184  1.6921 -1.1420 -2.4947
  140MOL   H23436652   4.672   3.888   5.055  3.6450  0.7443 -1.7483
  140MOL   H23536653   4.753   4.005   5.125  0.3191 -1.5440  0.1968
  140MOL   C23636654   4.620   4.076   4.959  0.5202  0.1984 -0.9464
  140MOL   C23736655   4.745   4.110   4.881 -0.7115  0.5618 -0.1261
  140MOL   C23836656   4.776   4.073   4.753  0.1598 -0.1879 -0.7850
  140MOL   C23936657   4.685   4.022   4.648 -0.2467 -0.1288  0.0208
  140MOL   C24036658   4.909   4.117   4.697 -0.2226  0.4564 -0.2668
  140MOL   H24136659   4.577   4.174   4.980  0.7681  0.1825 -0.3540
  140MOL   H24236660   4.557   4.028   4.883 -0.5044  0.9965 -0.6206
  140MOL   H24336661   4.818   4.158   4.945  0.1388  1.3537 -1.6651
  140MOL   H24436662   4.731   3.942   4.590 -0.9277 -1.8044  1.7166
  140MOL   H24536663   4.657   4.104   4.582  1.6159 -0.6869 -1.5113
  140MOL   H24636664   4.595   3.981   4.693 -0.2287  1.8824  1.9883
  140MOL   H24736665   4.957   4.185   4.767  0.5841 -0.7418  0.3516
  140MOL   H24836666   4.908   4.180   4.608  1.4381  1.0994  0.1540
  140MOL   C24936667   4.998   3.996   4.683 -0.7370  0.7744  0.0950
  140MOL   C25036668   5.139   4.046   4.658  0.5398 -0.2753  0.0178
  140MOL   C25136669   5.199   4.023   4.544 -0.2775  0.2991  0.3036
  140MOL   C25236670   5.122   3.955   4.427  0.5041 -0.5084  0.0480
  140MOL   C25336671   5.325   4.084   4.499  0.6760  0.9455  0.3755
  140MOL   H25436672   4.952   3.921   4.618 -0.4581  0.6570  0.0347
  140MOL   H25536673   4.999   3.938   4.775  2.2820  0.0492 -0.3677
  140MOL   H25636674   5.190   4.102   4.735 -1.2441  1.9622 -0.3825
  140MOL   H25736675   5.053   4.027   4.383 -1.2833 -1.8597  0.5731
  140MOL   H25836676   5.078   3.862   4.462 -1.0424  0.2062  0.0371
  140MOL   H25936677   5.191   3.930   4.346 -0.8785 -0.8945 -1.0367
  140MOL   H26036678   5.319   4.174   4.437  1.0949  2.0997  1.9655
  140MOL   H26136679   5.379   4.004   4.449  0.6115 -0.1119  1.9566
  140MOL   H26236680   5.382   4.124   4.583 -1.3991  2.2815  1.1921
  141MOL     C136681   1.007   6.983   0.426 -0.0884 -0.4346 -0.1972
  141MOL     C236682   0.871   6.930   0.379  0.0243 -0.2578  0.1646
  141MOL     C336683   0.792   6.831   0.433  0.1641 -0.9732  0.0228
  141MOL     C436684   0.830   6.739   0.556  0.0571  0.3237 -0.1203
  141MOL     C536685   0.652   6.807   0.378  0.3023 -0.3032  0.0683
  141MOL     H636686   0.995   7.075   0.484  0.1273  0.2141 -1.1741
  141MOL     H736687   1.063   6.912   0.487 -0.2844  1.1504  1.9038
  141MOL     H836688   0.829   6.988   0.299 -0.4186 -0.1713  0.4590
  141MOL     H936689   0.924   6.771   0.602 -0.2010 -1.3559  1.6544
  141MOL    H1036690   0.840   6.637   0.517 -1.1069 -0.0530  0.5347
  141MOL    H1136691   0.752   6.737   0.632  0.9967 -0.3893  0.8483
  141MOL    H1236692   0.669   6.702   0.354 -0.3916 -0.4126  0.0645
  141MOL    H1336693   0.630   6.868   0.290 -0.7145  2.2846  2.0493
  141MOL    H1436694   1.073   7.005   0.342  2.2658 -1.5636  1.2882
  141MOL    C1536695   0.529   6.841   0.461 -0.4270  0.0141  0.6889
  141MOL    C1636696   0.402   6.777   0.410  0.1464  0.0428  0.1864
  141MOL    C1736697   0.278   6.817   0.442  0.8677 -0.8627  0.6084
  141MOL    C1836698   0.254   6.930   0.542  0.0717  0.0145  0.6490
  141MOL    C1936699   0.153   6.755   0.384 -0.0190  0.5697 -0.2452
  141MOL    H2036700   0.510   6.948   0.453 -0.1232  0.0402  0.3128
  141MOL    H2136701   0.545   6.828   0.568  3.3427  0.0417  0.1890
  141MOL    H2236702   0.422   6.697   0.340  0.0519 -0.0046  0.2135
  141MOL    H2336703   0.336   6.929   0.613  0.2668 -0.9075  0.4244
  141MOL    H2436704   0.161   6.913   0.597  0.6497 -1.4978  1.1582
  141MOL    H2536705   0.249   7.023   0.485 -0.7371 -0.6524 -0.3936
  141MOL    H2636706   0.106   6.690   0.458  0.5422  1.1553  0.6278
  141MOL    H2736707   0.190   6.687   0.307  0.4059  0.5882 -0.0582
  141MOL    C2836708   0.051   6.862   0.330 -0.0400  0.1360  0.0490
  141MOL    C2936709   0.110   6.957   0.222 -0.7152 -0.2150  0.3086
  141MOL    C3036710   0.092   6.945   0.087 -0.2416 -0.2282  0.1745
  141MOL    C3136711   0.018   6.836   0.015  0.3812 -0.5189  0.2013
  141MOL    C3236712   0.149   7.047   7.869  0.0132  0.2834 -0.1722
  141MOL    H3336713   0.017   6.938   0.400  0.6668  1.6194 -1.1939
  141MOL    H3436714   7.852   6.803   0.288  1.0232 -1.2909 -0.0531
  141MOL    H3536715   0.169   7.041   0.256  0.0145  0.1228 -1.7409
  141MOL    H3636716   0.044   6.820   7.793  0.3096  0.9830 -0.0551
  141MOL    H3736717   7.792   6.840   0.020  0.3549 -1.2058  0.2553
  141MOL    H3836718   0.033   6.742   0.068 -1.6918 -0.8858  0.1624
  141MOL    H3936719   0.178   7.009   7.771  0.9931  0.9283 -0.1440
  141MOL    H4036720   0.234   7.099   0.033  0.9465  0.3290 -1.8928
  141MOL    C4136721   0.056   7.167   7.836  0.4152 -0.0795 -0.1533
  141MOL    C4236722   0.020   7.241   0.084  0.4214 -0.5703  0.0294
  141MOL    C4336723   7.778   7.236   0.140  0.1576 -0.1546  0.3463
  141MOL    C4436724   7.655   7.165   0.078 -0.2230 -0.0404  0.3288
  141MOL    C4536725   7.746   7.312   0.266 -0.2090 -0.0644  0.2899
  141MOL    H4636726   7.861   7.127   7.771 -0.7962  0.3305  1.0276
  141MOL    H4736727   0.107   7.236   7.769 -3.1351  1.6725 -1.1936
  141MOL    H4836728   0.103   7.292   0.130  0.2350 -0.7493  0.5725
  141MOL    H4936729   7.655   7.061   0.110 -0.9788  0.1494  0.9648
  141MOL    H5036730   7.665   7.172   7.853 -0.2610 -0.5104  0.2937
  141MOL    H5136731   7.565   7.216   0.114 -0.3421 -1.5058  2.1773
  141MOL    H5236732   7.658   7.370   0.236  0.5739  2.1811  2.1689
  141MOL    H5336733   7.822   7.388   0.282 -1.4361  1.2595 -0.0130
  141MOL    C5436734   7.719   7.221   0.381 -0.1508  0.2572  0.0271
  141MOL    C5536735   7.682   7.299   0.512  0.2400 -0.0350  0.0146
  141MOL    C5636736   7.566   7.313   0.572  0.3476  0.1622 -0.3250
  141MOL    C5736737   7.441   7.233   0.542 -0.7181  0.3893 -0.6823
  141MOL    C5836738   7.545   7.414   0.688 -0.5731 -0.3955  0.4433
  141MOL    H5936739   7.811   7.165   0.398 -0.6034 -0.3857  0.3791
  141MOL    H6036740   7.635   7.158   0.352 -1.1749  0.6726  1.9776
  141MOL    H6136741   7.768   7.350   0.554  0.7146 -1.3582  0.6768
  141MOL    H6236742   7.353   7.275   0.590  0.4211  0.2731  1.6156
  141MOL    H6336743   7.461   7.133   0.580  2.0037  1.2850  0.3614
  141MOL    H6436744   7.422   7.214   0.437  1.7170  0.1980 -1.1206
  141MOL    H6536745   7.474   7.493   0.664  0.5029  0.9206  1.5380
  141MOL    H6636746   7.642   7.461   0.701 -0.8224  0.9240 -2.0604
  141MOL    C6736747   7.505   7.346   0.825 -0.3203 -0.5758  0.0529
  141MOL    C6836748   7.486   7.460   0.937 -0.7464  0.4054  0.8487
  141MOL    C6936749   7.394   7.476   1.032 -0.0451 -0.5781  0.2931
  141MOL    C7036750   7.271   7.388   1.036  0.2990 -0.4670 -0.3408
  141MOL    C7136751   7.403   7.593   1.133 -0.1776 -0.0162 -0.3446
  141MOL    H7236752   7.577   7.269   0.849 -0.7966 -0.7597  0.9489
  141MOL    H7336753   7.410   7.296   0.803 -0.8283 -0.0834  1.0674
  141MOL    H7436754   7.571   7.526   0.933  0.5187 -1.2773 -0.9177
  141MOL    H7536755   7.259   7.352   1.138  0.9867 -1.6129 -0.6482
  141MOL    H7636756   7.285   7.300   0.972  2.4787  1.0615 -2.0083
  141MOL    H7736757   7.184   7.444   1.003 -0.3985 -0.2057  1.8639
  141MOL    H7836758   7.322   7.663   1.112 -0.7279 -1.3939 -3.0164
  141MOL    H7936759   7.497   7.647   1.129  0.7418 -1.2907  2.5218
  141MOL    C8036760   7.395   7.539   1.281  0.6449  0.2834  0.3395
  141MOL    C8136761   7.421   7.649   1.378  0.3199 -0.3047 -0.3161
  141MOL    C8236762   7.345   7.697   1.481 -0.1112 -0.4147 -0.0114
  141MOL    C8336763   7.208   7.645   1.521 -1.4070  0.2490 -0.4504
  141MOL    C8436764   7.406   7.804   1.575  0.8168 -1.0185  0.0135
  141MOL    H8536765   7.469   7.458   1.284  1.5485  1.1191  0.9931
  141MOL    H8636766   7.298   7.497   1.306  0.9629 -1.3273 -1.0128
  141MOL    H8736767   7.514   7.703   1.370  0.3570 -0.5475 -1.6990
  141MOL    H8836768   7.130   7.720   1.513 -0.9773  0.7733  0.1918
  141MOL    H8936769   7.214   7.623   1.628 -3.4237  1.1776 -0.1224
  141MOL    H9036770   7.180   7.551   1.474  0.8639  1.3063 -4.0599
  141MOL    H9136771   7.500   7.842   1.534  0.7687 -1.9490 -0.9717
  141MOL    H9236772   7.436   7.759   1.669  0.6548  0.0946  0.6000
  141MOL    C9336773   7.299   0.033   1.608 -0.8181  0.0251 -0.2611
  141MOL    C9436774   7.271   0.122   1.489  0.1669  0.0247 -0.0615
  141MOL    C9536775   7.159   0.175   1.437  0.0967  0.1088  0.1083
  141MOL    C9636776   7.022   0.148   1.503  0.3892  0.1912  0.6506
  141MOL    C9736777   7.160   0.246   1.300  0.0115 -0.7611  0.0277
  141MOL    H9836778   7.341   0.107   1.676 -0.5552 -1.1221  0.8350
  141MOL    H9936779   7.213   7.879   1.665  0.2190 -1.1679  0.5548
  141MOL   H10036780   7.360   0.137   1.430 -1.0207  0.8076 -1.6726
  141MOL   H10136781   7.029   0.087   1.593  0.1783 -0.9265 -0.0722
  141MOL   H10236782   6.949   0.104   1.434  0.2330 -0.1872  1.0572
  141MOL   H10336783   6.980   0.240   1.544  1.4376  0.9237  0.1001
  141MOL   H10436784   7.222   0.332   1.323 -0.9636 -0.1806  0.5229
  141MOL   H10536785   7.060   0.285   1.278  0.8941 -0.1978 -3.2324
  141MOL   C10636786   7.208   0.164   1.183  0.1392 -0.2706 -0.1780
  141MOL   C10736787   7.122   0.041   1.158 -0.9392  0.1644  0.8186
  141MOL   C10836788   7.016   0.031   1.076 -0.1972  0.2282 -0.1285
  141MOL   C10936789   6.957   0.152   1.009  0.3101  0.2490  0.9551
  141MOL   C11036790   6.951   7.786   1.033 -0.0225  1.3034 -0.0768
  141MOL   H11136791   7.311   0.130   1.195 -0.3481 -1.9441 -0.6233
  141MOL   H11236792   7.227   0.226   1.096 -1.9066  1.2026  0.3706
  141MOL   H11336793   7.156   7.831   1.201 -1.6686 -0.6334 -0.2982
  141MOL   H11436794   7.017   0.165   0.918  1.5570 -2.0474  1.4080
  141MOL   H11536795   6.962   0.238   1.075 -1.6590 -0.9372  2.6893
  141MOL   H11636796   6.852   0.132   0.988  0.6079 -0.9658  0.5941
  141MOL   H11736797   7.019   7.710   1.070 -0.5219  1.0900  0.4047
  141MOL   H11836798   6.939   7.775   0.925 -0.0533 -0.1746  0.0792
  141MOL   C11936799   6.824   7.743   1.113 -0.2023 -0.1946 -0.9258
  141MOL   C12036800   6.782   7.599   1.105  0.4683  0.3202  0.0844
  141MOL   C12136801   6.827   7.494   1.182  0.4877 -0.3928  0.3286
  141MOL   C12236802   6.943   7.506   1.288  0.1275 -0.3217  0.1624
  141MOL   C12336803   6.762   7.354   1.174  0.0464 -0.2508 -0.2713
  141MOL   H12436804   6.738   7.800   1.078  0.2658  3.3173  3.1939
  141MOL   H12536805   6.834   7.775   1.217  0.5470  0.0251 -1.0667
  141MOL   H12636806   6.702   7.572   1.037  1.9286 -1.2637 -1.0319
  141MOL   H12736807   6.993   7.602   1.284  0.1380 -0.3237  0.2741
  141MOL   H12836808   7.031   7.445   1.265  1.0243  2.0640 -3.1029
  141MOL   H12936809   6.905   7.488   1.388 -1.3919 -2.8190 -0.7939
  141MOL   H13036810   6.655   7.371   1.165 -0.2466 -0.0062  2.9697
  141MOL   H13136811   6.787   7.319   1.275  0.1933 -1.2733 -0.6573
  141MOL   C13236812   6.816   7.258   1.062  0.4081 -0.2255 -0.4639
  141MOL   C13336813   6.793   7.109   1.100  0.8063 -0.1911  0.7245
  141MOL   C13436814   6.850   7.001   1.040 -0.4070  0.4617 -0.0638
  141MOL   C13536815   6.939   7.010   0.919 -0.6961 -0.0351 -0.1753
  141MOL   C13636816   6.843   6.867   1.113 -0.0755 -0.2983 -0.3118
  141MOL   H13736817   6.924   7.271   1.063  0.4713 -0.6730 -1.6287
  141MOL   H13836818   6.782   7.295   0.966  0.5198 -0.1110 -0.4595
  141MOL   H13936819   6.728   7.099   1.185  0.4098  2.2145  0.7291
  141MOL   H14036820   7.044   6.996   0.944 -0.4955 -0.8906 -1.4648
  141MOL   H14136821   6.938   7.112   0.880 -0.5516  0.9006  2.1545
  141MOL   H14236822   6.913   6.932   0.848 -0.4441 -1.5794  1.3885
  141MOL   H14336823   6.821   6.881   1.219 -2.1166 -2.6664 -0.3575
  141MOL   H14436824   6.941   6.819   1.112  0.4528  0.7409  1.0543
  141MOL   C14536825   6.745   6.766   1.054 -0.1080 -0.6131 -0.0969
  141MOL   C14636826   6.738   6.641   1.142 -0.0660 -0.4248  0.1030
  141MOL   C14736827   6.648   6.611   1.234 -0.5235 -0.8660  0.3284
  141MOL   C14836828   6.525   6.695   1.248  0.2980 -0.4984 -0.3441
  141MOL   C14936829   6.659   6.485   1.318  0.6616  0.0265 -0.2286
  141MOL   H15036830   6.772   6.738   0.952 -1.4143  2.1602 -1.2443
  141MOL   H15136831   6.647   6.812   1.044  0.5326  0.5134 -1.2319
  141MOL   H15236832   6.821   6.573   1.126  0.1201 -0.3679  0.8139
  141MOL   H15336833   6.439   6.630   1.232 -1.6826  2.4317 -2.0631
  141MOL   H15436834   6.520   6.779   1.179 -0.8427 -1.4025 -1.3907
  141MOL   H15536835   6.522   6.747   1.344  0.3475  2.4303 -1.8735
  141MOL   H15636836   6.762   6.448   1.317  0.6943  0.0834  1.0028
  141MOL   H15736837   6.604   6.404   1.271  1.9993 -1.3933  0.5807
  141MOL   C15836838   6.607   6.493   1.463 -0.0957  0.3209  0.3507
  141MOL   C15936839   6.626   6.349   1.519  0.1431 -0.8413  0.4864
  141MOL   C16036840   6.530   6.261   1.561  0.4744  0.0693 -0.3610
  141MOL   C16136841   6.382   6.299   1.563 -0.1500 -0.0152 -0.3230
  141MOL   C16236842   6.561   6.119   1.606 -0.7207 -0.2116 -0.0306
  141MOL   H16336843   6.505   6.532   1.472 -0.2996 -0.3044  0.8410
  141MOL   H16436844   6.677   6.554   1.520 -1.6852  0.8285  1.8371
  141MOL   H16536845   6.722   6.311   1.486 -0.3198 -0.7571 -0.9675
  141MOL   H16636846   6.363   6.378   1.491  0.9302 -0.0874 -0.7027
  141MOL   H16736847   6.360   6.326   1.667 -2.8956 -0.4996 -0.7460
  141MOL   H16836848   6.327   6.211   1.529 -3.0816  2.1475 -1.3849
  141MOL   H16936849   6.670   6.117   1.592 -0.5951  0.9024  0.7194
  141MOL   H17036850   6.518   6.057   1.528  1.3274 -0.2142 -1.2109
  141MOL   C17136851   6.514   6.079   1.750 -0.7435  0.5623 -0.9794
  141MOL   C17236852   6.524   6.176   1.864 -0.5028  0.2305  0.1757
  141MOL   C17336853   6.507   6.159   1.995  0.2430 -0.0670 -0.2564
  141MOL   C17436854   6.449   6.034   2.050  0.3002  0.5968  0.3339
  141MOL   C17536855   6.522   6.274   2.092 -0.0227  0.7139  0.5973
  141MOL   H17636856   6.584   5.997   1.769 -0.6163  0.5689 -1.4158
  141MOL   H17736857   6.418   6.028   1.750  0.0962 -1.0631 -0.9456
  141MOL   H17836858   6.570   6.267   1.829  0.3817 -0.3347 -0.1548
  141MOL   H17936859   6.364   6.058   2.115 -0.0815  1.9345 -0.6232
  141MOL   H18036860   6.516   5.990   2.123  1.5137  1.7105 -0.0897
  141MOL   H18136861   6.425   5.968   1.967 -0.1965  0.1974  0.7918
  141MOL   H18236862   6.424   6.282   2.140 -0.7127 -2.8841 -0.0899
  141MOL   H18336863   6.539   6.371   2.044 -1.1566  0.5647 -0.1212
  141MOL   C18436864   6.634   6.257   2.191 -0.7360  0.2094 -0.7320
  141MOL   C18536865   6.649   6.390   2.272 -0.1550 -0.0302 -0.0240
  141MOL   C18636866   6.754   6.431   2.346 -0.3024 -0.6958  0.7677
  141MOL   C18736867   6.884   6.350   2.352  0.4031 -0.2721  0.4231
  141MOL   C18836868   6.756   6.564   2.418  0.1137  0.7948  0.2027
  141MOL   H18936869   6.726   6.244   2.136  1.2766 -0.2323  2.5709
  141MOL   H19036870   6.615   6.168   2.251  0.1548  0.6028  0.1505
  141MOL   H19136871   6.559   6.450   2.265 -0.5947 -0.5139  1.2493
  141MOL   H19236872   6.877   6.243   2.370  2.7866 -0.3342  1.1261
  141MOL   H19336873   6.946   6.385   2.434 -0.6689  0.5573  0.8917
  141MOL   H19436874   6.937   6.370   2.258 -0.4097  3.2481  0.6316
  141MOL   H19536875   6.822   6.628   2.360  1.6049 -1.6797 -0.9494
  141MOL   H19636876   6.787   6.549   2.521  0.9677 -1.0757 -0.2904
  141MOL   C19736877   6.625   6.648   2.425 -0.3775 -0.0442 -0.2744
  141MOL   C19836878   6.515   6.604   2.521  0.3559 -0.2463  0.4489
  141MOL   C19936879   6.385   6.579   2.491 -0.4465 -0.3807 -0.5627
  141MOL   C20036880   6.321   6.610   2.354 -0.5095  0.0759 -0.0505
  141MOL   C20136881   6.281   6.544   2.596 -0.2429 -0.4908 -0.0321
  141MOL   H20236882   6.593   6.677   2.324 -0.0099 -0.6022 -0.5529
  141MOL   H20336883   6.652   6.746   2.464 -0.4058 -1.2410  2.8402
  141MOL   H20436884   6.556   6.594   2.621 -2.2311  0.4358  1.6145
  141MOL   H20536885   6.216   6.585   2.339  0.0563 -3.0936  0.9282
  141MOL   H20636886   6.367   6.548   2.277 -0.6503  0.5752 -0.5412
  141MOL   H20736887   6.316   6.717   2.335 -1.8352  0.2493  1.1323
  141MOL   H20836888   6.322   6.533   2.696  1.8976  3.1815 -0.4052
  141MOL   H20936889   6.251   6.444   2.564 -0.1890 -0.2122 -0.9881
  141MOL   C21036890   6.161   6.639   2.612 -0.1448 -0.1867 -0.2276
  141MOL   C21136891   6.047   6.572   2.681  0.0454 -0.2121  0.0305
  141MOL   C21236892   5.984   6.609   2.797  0.5407  0.0791 -0.4040
  141MOL   C21336893   6.036   6.731   2.882  0.6844 -0.6315  1.2593
  141MOL   C21436894   5.876   6.518   2.855 -0.1794 -0.3221 -0.4429
  141MOL   H21536895   6.130   6.670   2.512  1.5024  1.8968 -0.1085
  141MOL   H21636896   6.199   6.729   2.659  0.5168 -0.7573  0.3539
  141MOL   H21736897   6.004   6.489   2.627  0.0737  0.4739 -1.0408
  141MOL   H21836898   6.097   6.694   2.965  2.0201  1.1807  1.1009
  141MOL   H21936899   5.946   6.780   2.919  0.9917  2.5433 -1.9744
  141MOL   H22036900   6.098   6.799   2.824  1.4582 -3.4967 -1.4006
  141MOL   H22136901   5.875   6.429   2.791  0.5674 -1.0149  0.4967
  141MOL   H22236902   5.778   6.563   2.844 -0.8322 -1.5270  0.2868
  141MOL   C22336903   5.897   6.468   2.995 -0.2846 -0.0074 -0.3210
  141MOL   C22436904   5.798   6.365   3.046  0.2006 -0.6778 -0.0143
  141MOL   C22536905   5.814   6.231   3.072  0.1139  0.3956 -0.6386
  141MOL   C22636906   5.944   6.166   3.060  0.4109  0.2415 -0.2880
  141MOL   C22736907   5.699   6.140   3.131 -0.8427  0.3709  0.5746
  141MOL   H22836908   5.893   6.562   3.051  2.0102  0.3340 -0.6649
  141MOL   H22936909   5.997   6.429   3.013 -0.0073  0.7575 -0.1967
  141MOL   H23036910   5.699   6.401   3.069  0.9508  0.4489  1.5687
  141MOL   H23136911   5.938   6.058   3.049 -3.5391  0.3993 -0.4575
  141MOL   H23236912   6.005   6.184   3.148 -1.6567 -0.5581  1.3433
  141MOL   H23336913   5.997   6.199   2.970  0.8203 -0.8971 -0.4661
  141MOL   H23436914   5.736   6.091   3.222  1.1543  2.3010  0.8326
  141MOL   H23536915   5.676   6.067   3.053  1.1690  1.1428 -0.7530
  141MOL   C23636916   5.574   6.211   3.184  0.2608 -0.5250  0.5679
  141MOL   C23736917   5.464   6.130   3.257  0.9653 -0.6012  0.1471
  141MOL   C23836918   5.466   6.097   3.389  0.5070 -0.0830 -0.0420
  141MOL   C23936919   5.573   6.136   3.483 -0.2787  0.3035  0.3249
  141MOL   C24036920   5.350   6.033   3.471  0.0055  0.1425 -0.5170
  141MOL   H24136921   5.522   6.252   3.098  0.8080  0.7143  0.8108
  141MOL   H24236922   5.600   6.298   3.244 -3.0055  1.1085 -0.2826
  141MOL   H24336923   5.385   6.097   3.192  1.9833 -1.8347 -0.4768
  141MOL   H24436924   5.598   6.059   3.557 -0.5619  0.4894  0.6155
  141MOL   H24536925   5.535   6.213   3.550 -0.1824 -1.1892  2.1308
  141MOL   H24636926   5.664   6.157   3.427 -0.4135 -2.2459 -0.9218
  141MOL   H24736927   5.350   6.090   3.564 -2.0306  1.1442 -1.1209
  141MOL   H24836928   5.386   5.932   3.494 -1.0349  0.1687  1.2912
  141MOL   C24936929   5.205   6.030   3.409 -0.2534 -0.1398 -0.1698
  141MOL   C25036930   5.090   5.977   3.498 -0.9917  0.1511 -0.4104
  141MOL   C25136931   5.036   6.031   3.608  0.8619  0.1293  0.2209
  141MOL   C25236932   5.082   6.163   3.665 -0.3208  0.4942  0.6010
  141MOL   C25336933   4.931   5.969   3.689 -0.1515 -0.2371  0.3607
  141MOL   H25436934   5.218   5.958   3.328  0.2744  0.4095 -0.5809
  141MOL   H25536935   5.184   6.130   3.371  0.6163  0.3403  0.5934
  141MOL   H25636936   5.043   5.883   3.472 -1.2625  0.1460  0.0914
  141MOL   H25736937   5.158   6.217   3.608 -0.0057 -1.8563 -1.2914
  141MOL   H25836938   5.121   6.154   3.767 -2.8907  2.3966  1.7946
  141MOL   H25936939   4.999   6.233   3.662 -0.2505  0.5475 -0.4908
  141MOL   H26036940   4.848   6.036   3.709  0.7151  1.6178 -2.0906
  141MOL   H26136941   4.983   5.941   3.781  0.5597  0.9844  0.3440
  141MOL   H26236942   4.890   5.879   3.644 -2.5951  1.0637 -0.0876
  142MOL     C136943   3.493   0.543   7.762  0.2831  0.3173  0.4778
  142MOL     C236944   3.554   0.638   7.869 -0.2165  1.1814 -0.0236
  142MOL     C336945   3.683   0.643   0.023 -0.0700 -0.3028  0.2405
  142MOL     C436946   3.794   0.561   7.838  0.0505 -0.3064  0.7285
  142MOL     C536947   3.719   0.744   0.132  0.2507 -0.4105  0.3282
  142MOL     H636948   3.485   0.443   7.806 -0.0221 -0.6384 -1.6917
  142MOL     H736949   3.400   0.590   7.731 -0.5091 -0.3301  1.7860
  142MOL     H836950   3.488   0.700   0.044  0.6533  0.6821  1.5426
  142MOL     H936951   3.867   0.621   7.784 -1.3128  0.9618  0.2663
  142MOL    H1036952   3.763   0.501   7.753 -1.6457  0.7610  0.5663
  142MOL    H1136953   3.837   0.510   0.042  2.4002 -2.3934 -1.6125
  142MOL    H1236954   3.631   0.793   0.175  0.5547  0.8003 -0.4135
  142MOL    H1336955   3.770   0.829   0.087 -1.1715  0.2766 -0.0109
  142MOL    H1436956   3.552   0.531   7.672 -1.8677 -2.8086 -0.6116
  142MOL    C1536957   3.788   0.686   0.259 -0.6915  0.3412 -0.8802
  142MOL    C1636958   3.823   0.790   0.368  0.5159 -0.2588  0.3351
  142MOL    C1736959   3.768   0.816   0.489 -0.6928  0.9374 -0.3674
  142MOL    C1836960   3.648   0.732   0.542  0.5239 -0.6347  0.6671
  142MOL    C1936961   3.805   0.931   0.577  0.5639 -0.0370  0.5079
  142MOL    H2036962   3.881   0.643   0.222 -0.5783  0.1242 -0.3422
  142MOL    H2136963   3.749   0.599   0.311  0.0031 -0.2874 -1.4016
  142MOL    H2236964   3.901   0.856   0.332 -0.0854  1.6162  2.3370
  142MOL    H2336965   3.675   0.695   0.641 -3.3464 -0.2999  1.9594
  142MOL    H2436966   3.616   0.659   0.467 -1.5775  0.1081  0.7995
  142MOL    H2536967   3.566   0.804   0.554 -0.8422 -1.7014 -1.7360
  142MOL    H2636968   3.908   0.962   0.561  0.2176  1.9295  1.9654
  142MOL    H2736969   3.812   0.890   0.678 -0.5122 -0.8762  0.2506
  142MOL    C2836970   3.722   1.059   0.563 -0.2925  0.6864 -0.1265
  142MOL    C2936971   3.602   1.079   0.652  0.7726 -0.2816  0.4747
  142MOL    C3036972   3.596   1.137   0.777 -0.7424  0.5926 -0.0014
  142MOL    C3136973   3.701   1.235   0.832 -0.0956 -0.9406 -0.4920
  142MOL    C3236974   3.478   1.105   0.857  0.2030 -0.1691 -0.5013
  142MOL    H3336975   3.685   1.076   0.462 -2.5143 -0.2212  0.5099
  142MOL    H3436976   3.785   1.144   0.589  0.3117  0.2462 -0.1427
  142MOL    H3536977   3.513   1.022   0.630  1.3484 -0.9084 -0.2782
  142MOL    H3636978   3.645   1.323   0.866  0.2004 -0.9857  0.1214
  142MOL    H3736979   3.784   1.267   0.769 -0.7220  0.7925 -0.4669
  142MOL    H3836980   3.742   1.176   0.914 -0.6051 -0.9394 -0.2274
  142MOL    H3936981   3.430   1.023   0.803  0.3684  0.3511 -1.4531
  142MOL    H4036982   3.414   1.193   0.859  1.5304  0.8148 -0.9835
  142MOL    C4136983   3.503   1.077   1.004 -0.1225 -0.0992  0.1492
  142MOL    C4236984   3.377   1.039   1.067 -0.1996 -0.6201  0.0444
  142MOL    C4336985   3.328   0.916   1.082 -0.5318 -0.5685  0.4177
  142MOL    C4436986   3.395   0.788   1.029 -0.5197 -0.2122  0.6208
  142MOL    C4536987   3.198   0.881   1.150 -0.8127 -0.0025 -0.0077
  142MOL    H4636988   3.543   1.164   1.056 -1.6962  0.4044  0.5283
  142MOL    H4736989   3.586   1.008   1.019  2.0694  2.5308  0.7100
  142MOL    H4836990   3.330   1.112   1.131 -1.8886 -1.5483 -0.0909
  142MOL    H4936991   3.330   0.757   0.948 -1.1351  1.2668  0.5312
  142MOL    H5036992   3.401   0.715   1.110  2.1998 -0.3890  0.3059
  142MOL    H5136993   3.494   0.794   0.984 -0.6481 -1.0643  0.2217
  142MOL    H5236994   3.219   0.854   1.254  4.4286  2.3866 -0.2630
  142MOL    H5336995   3.157   0.797   1.095  0.1229  0.3157 -1.2057
  142MOL    C5436996   3.096   0.999   1.149  0.0060 -0.2049 -1.3855
  142MOL    C5536997   3.048   1.028   1.006  0.2234  0.1009  0.0305
  142MOL    C5636998   2.947   0.973   0.940  0.3999 -0.2014  0.8537
  142MOL    C5736999   2.858   0.865   0.990 -0.1788  0.3938 -0.0467
  142MOL    C5837000   2.921   1.005   0.797  0.0504 -0.3659  0.6281
  142MOL    H5937001   3.139   1.089   1.193 -0.1098 -1.6620  1.8532
  142MOL    H6037002   3.009   0.962   1.204  0.2062  0.2102 -0.7880
  142MOL    H6137003   3.122   1.094   0.964  0.3372  2.1193  3.2688
  142MOL    H6237004   2.772   0.860   0.923 -0.6604  0.5241  0.5622
  142MOL    H6337005   2.819   0.877   1.091 -1.8865 -1.1069 -0.5055
  142MOL    H6437006   2.924   0.779   0.994 -0.5891  0.0958  0.3663
  142MOL    H6537007   2.877   0.923   0.739  3.2012 -1.0779 -0.9218
  142MOL    H6637008   3.020   1.020   0.753  0.3555 -0.1577  1.3813
  142MOL    C6737009   2.834   1.134   0.772  0.1149  0.1120 -0.0532
  142MOL    C6837010   2.851   1.196   0.638  0.5322 -0.3596  0.0479
  142MOL    C6937011   2.888   1.321   0.621  0.4740  0.0177  0.1421
  142MOL    C7037012   2.925   1.421   0.734  1.1018 -0.0429  0.0494
  142MOL    C7137013   2.899   1.365   0.482 -0.8953 -0.4714  0.0580
  142MOL    H7237014   2.858   1.209   0.848  1.5168 -0.7756  0.4146
  142MOL    H7337015   2.730   1.106   0.791 -0.1173 -0.3463 -1.9185
  142MOL    H7437016   2.824   1.123   0.562 -1.7478  0.5515 -0.0598
  142MOL    H7537017   2.998   1.381   0.805  0.7153  0.0970  0.5251
  142MOL    H7637018   2.833   1.451   0.783 -0.9071 -2.9793 -1.7778
  142MOL    H7737019   2.953   1.518   0.692  1.2639 -0.4225 -0.7291
  142MOL    H7837020   2.913   1.276   0.421 -2.8154 -0.2245 -0.7731
  142MOL    H7937021   2.996   1.415   0.481 -1.0045 -0.2683 -0.3061
  142MOL    C8037022   2.781   1.450   0.444 -0.1937  0.0007 -0.0881
  142MOL    C8137023   2.812   1.528   0.320  0.2396 -0.1618 -0.4723
  142MOL    C8237024   2.878   1.646   0.313 -0.8605  0.8692 -0.1712
  142MOL    C8337025   2.969   1.702   0.432  0.1899 -0.1427 -0.5681
  142MOL    C8437026   2.913   1.720   0.180 -0.1610  0.0819  0.2661
  142MOL    H8537027   2.763   1.522   0.523 -3.0468  0.8805 -1.4710
  142MOL    H8637028   2.693   1.387   0.435  0.0340 -0.3674  0.2454
  142MOL    H8737029   2.765   1.484   0.233 -0.1499 -0.8261  0.0717
  142MOL    H8837030   3.071   1.663   0.436 -0.1901 -1.1937 -1.2996
  142MOL    H8937031   2.925   1.699   0.532  1.2598  1.8792 -0.0009
  142MOL    H9037032   2.983   1.809   0.414  0.3122 -0.3670 -1.8657
  142MOL    H9137033   2.925   1.827   0.191 -1.1270 -0.0131  2.6354
  142MOL    H9237034   2.825   1.701   0.119 -0.2525  1.2003  0.0492
  142MOL    C9337035   3.033   1.659   0.115 -0.2882 -0.4650  0.9900
  142MOL    C9437036   3.035   1.673   7.845  0.3865  0.4609  0.4931
  142MOL    C9537037   3.117   1.604   7.769 -0.5457  0.5114  0.3577
  142MOL    C9637038   3.224   1.508   7.824 -0.0255  0.0996  0.6405
  142MOL    C9737039   3.118   1.633   7.616 -0.3397 -0.0423  0.0578
  142MOL    H9837040   3.025   1.552   0.128 -0.4833 -0.2811  2.4754
  142MOL    H9937041   3.125   1.696   0.161 -1.0654  2.4743  0.3006
  142MOL   H10037042   2.958   1.737   7.805  0.5158 -0.0211 -0.5448
  142MOL   H10137043   3.255   1.508   0.045 -1.9791  1.3333  1.2470
  142MOL   H10237044   3.318   1.510   7.768 -0.5568  2.4192 -0.2229
  142MOL   H10337045   3.184   1.408   7.807  1.3344 -0.2337 -0.6808
  142MOL   H10437046   3.031   1.696   7.594  1.2892  2.5088  0.6484
  142MOL   H10537047   3.096   1.539   7.567  4.0658  0.2297 -2.7843
  142MOL   C10637048   3.247   1.690   7.553 -0.1563  0.6729  0.4685
  142MOL   C10737049   3.251   1.702   7.405  0.3216  0.2137  0.5908
  142MOL   C10837050   3.230   1.824   7.343  0.5793  0.4641 -0.1423
  142MOL   C10937051   3.207   1.949   7.419 -0.2013 -0.5911  0.4268
  142MOL   C11037052   3.219   1.846   7.188  0.1203  0.4138 -0.4792
  142MOL   H11137053   3.324   1.620   7.586 -1.5404 -1.0651  0.0797
  142MOL   H11237054   3.273   1.786   7.598 -1.1479  1.8187 -1.3674
  142MOL   H11337055   3.252   1.609   7.352 -1.5794  1.7609 -2.2687
  142MOL   H11437056   3.161   1.928   7.516  0.4060 -0.0628  0.8367
  142MOL   H11537057   3.138   2.009   7.360 -1.8814 -1.2653  1.6822
  142MOL   H11637058   3.297   2.010   7.428  0.4026 -1.2839 -0.7480
  142MOL   H11737059   3.251   1.756   7.135  0.9751 -0.0191  0.7519
  142MOL   H11837060   3.302   1.904   7.146  0.7312  0.3427  0.6146
  142MOL   C11937061   3.078   1.871   7.137  0.6079 -0.5581 -0.3720
  142MOL   C12037062   3.059   1.840   6.989  0.1220 -0.4296  0.1767
  142MOL   C12137063   2.960   1.888   6.909  0.1868  0.9102  0.5526
  142MOL   C12237064   2.850   1.985   6.962  0.7391  0.2873 -0.5796
  142MOL   C12337065   2.931   1.828   6.765  0.1929 -0.7708  0.4068
  142MOL   H12437066   3.041   1.968   7.169 -0.0922 -1.3662  1.3219
  142MOL   H12537067   3.014   1.811   7.201 -0.7648  2.0934  0.8208
  142MOL   H12637068   3.127   1.762   6.959  1.3740  1.1623 -1.2073
  142MOL   H12737069   2.909   2.052   7.023 -0.1947  1.4702 -0.9676
  142MOL   H12837070   2.773   1.936   7.022  1.0130  1.7069  0.9375
  142MOL   H12937071   2.801   2.041   6.882 -3.1340 -1.6718  0.2751
  142MOL   H13037072   2.969   1.892   6.686  0.0844 -0.5461  0.5368
  142MOL   H13137073   2.824   1.829   6.742  0.0569 -1.4443  0.9647
  142MOL   C13237074   2.983   1.681   6.747  0.5069  0.4413  0.7588
  142MOL   C13337075   2.922   1.616   6.633 -0.1899  0.3323 -0.3298
  142MOL   C13437076   2.850   1.498   6.634 -0.6267  0.0473 -0.5727
  142MOL   C13537077   2.832   1.409   6.756  0.7438 -0.7015  0.3818
  142MOL   C13637078   2.805   1.440   6.503 -1.4216  0.1591  0.2351
  142MOL   H13737079   2.952   1.633   6.839 -2.1269 -1.0600 -0.8408
  142MOL   H13837080   3.092   1.677   6.739  0.3900  1.4686 -2.4041
  142MOL   H13937081   2.933   1.670   6.540 -2.2658 -0.3133 -0.9728
  142MOL   H14037082   2.748   1.342   6.737  0.3852 -0.1806  0.1190
  142MOL   H14137083   2.813   1.459   6.851 -0.3772 -1.6090  0.6372
  142MOL   H14237084   2.926   1.355   6.770  1.6035  1.1388  2.1307
  142MOL   H14337085   2.797   1.515   6.424  1.5834 -2.4788 -2.7145
  142MOL   H14437086   2.698   1.418   6.499 -1.9333  1.9862  2.7742
  142MOL   C14537087   2.890   1.319   6.466 -0.1010 -0.0606  0.8349
  142MOL   C14637088   2.862   1.269   6.328  0.1610  0.4150 -0.0925
  142MOL   C14737089   2.952   1.259   6.232  0.2361  0.6688  0.2760
  142MOL   C14837090   3.090   1.313   6.252  0.6599  0.1968  0.5657
  142MOL   C14937091   2.932   1.214   6.087 -0.1368 -0.1477  0.2901
  142MOL   H15037092   2.852   1.243   6.535  0.4737  0.7239  2.0343
  142MOL   H15137093   2.996   1.324   6.493  0.4102  0.1133 -1.1370
  142MOL   H15237094   2.766   1.220   6.314  0.7335 -0.9428  0.6927
  142MOL   H15337095   3.129   1.262   6.341 -0.2736 -0.6788  0.4782
  142MOL   H15437096   3.081   1.420   6.271 -2.9435  0.2516 -1.1099
  142MOL   H15537097   3.149   1.286   6.165  1.2310  0.2791  0.9207
  142MOL   H15637098   2.985   1.283   6.022 -0.4064  0.3386  0.5871
  142MOL   H15737099   2.827   1.226   6.062 -0.7028 -1.0508  2.1490
  142MOL   C15837100   2.976   1.063   6.063  0.1661 -0.5149 -0.1715
  142MOL   C15937101   2.959   1.011   5.922  0.1545  0.3765 -0.0457
  142MOL   C16037102   3.053   0.984   5.833 -0.6676 -0.2035  0.0520
  142MOL   C16137103   3.200   0.996   5.868  0.1247  0.2132  0.0216
  142MOL   C16237104   3.021   0.963   5.690 -0.3824 -0.7789  0.3473
  142MOL   H16337105   2.896   1.027   6.127  0.1859  0.6968  0.5387
  142MOL   H16437106   3.076   1.037   6.099 -0.3046 -2.4139 -0.2027
  142MOL   H16537107   2.860   1.013   5.879  0.1372  0.9492  0.0152
  142MOL   H16637108   3.243   0.901   5.897 -0.5277 -0.2523 -0.5227
  142MOL   H16737109   3.221   1.061   5.953 -4.9723 -0.6658  2.1242
  142MOL   H16837110   3.251   1.052   5.789  0.1256 -2.3851 -1.8687
  142MOL   H16937111   3.074   1.024   5.617 -2.5780  0.5144 -0.2484
  142MOL   H17037112   2.916   0.988   5.671  0.0886 -0.4939 -1.9532
  142MOL   C17137113   3.056   0.818   5.656 -0.2364  0.1242 -0.2159
  142MOL   C17237114   3.055   0.796   5.504 -0.0749  0.1117  0.0371
  142MOL   C17337115   2.985   0.701   5.433 -0.5513 -0.1347 -1.0101
  142MOL   C17437116   2.891   0.606   5.508  0.3115 -0.0062  0.1573
  142MOL   C17537117   2.994   0.684   5.282  0.7153 -0.7965 -0.5795
  142MOL   H17637118   2.991   0.747   5.708 -0.7343  0.7333  0.0015
  142MOL   H17737119   3.150   0.793   5.706 -0.1818 -0.1711 -0.4685
  142MOL   H17837120   3.123   0.860   5.450  1.6988 -1.0609  0.8440
  142MOL   H17937121   2.944   0.511   5.520 -0.5111 -0.1443  3.1458
  142MOL   H18037122   2.800   0.590   5.451 -1.0173  3.1082  1.3361
  142MOL   H18137123   2.860   0.640   5.607  3.0414 -2.8564  2.1208
  142MOL   H18237124   2.993   0.780   5.230  2.4196 -0.2592  0.3525
  142MOL   H18337125   2.897   0.641   5.257 -0.4215  1.0907  0.4115
  142MOL   C18437126   3.102   0.589   5.223 -0.3510 -0.0920  0.1930
  142MOL   C18537127   3.110   0.604   5.073  0.0814  0.0404 -0.2755
  142MOL   C18637128   3.106   0.513   4.974 -0.5512  0.0457 -0.1301
  142MOL   C18737129   3.096   0.359   5.003 -0.0514  0.0830 -0.5354
  142MOL   C18837130   3.102   0.549   4.824  0.0937  0.4814 -0.2837
  142MOL   H18937131   3.085   0.485   5.252  0.2334 -0.8844 -2.1571
  142MOL   H19037132   3.199   0.619   5.264 -0.3414 -0.1955  0.2462
  142MOL   H19137133   3.123   0.709   5.050  1.2944  0.3647  1.8034
  142MOL   H19237134   3.148   0.299   4.929  0.1827 -0.3123 -0.0542
  142MOL   H19337135   2.995   0.318   5.007 -0.4361  1.0499  0.0033
  142MOL   H19437136   3.148   0.342   5.097 -0.5264 -2.4492 -0.7129
  142MOL   H19537137   3.061   0.650   4.815 -2.0900 -0.4128 -0.6150
  142MOL   H19637138   3.026   0.488   4.777 -1.2354  2.0087 -0.1658
  142MOL   C19737139   3.239   0.551   4.753  0.1071  0.1082 -0.0652
  142MOL   C19837140   3.222   0.568   4.603 -0.0341 -0.5875  0.2850
  142MOL   C19937141   3.244   0.476   4.500  0.1949  0.4994 -0.4229
  142MOL   C20037142   3.290   0.333   4.529 -0.2056  0.0602  0.4845
  142MOL   C20137143   3.216   0.504   4.359  0.1100  0.2507 -0.2375
  142MOL   H20237144   3.299   0.463   4.777 -1.1400  0.1097  3.2834
  142MOL   H20337145   3.304   0.626   4.797  0.6995  0.6017 -1.7583
  142MOL   H20437146   3.199   0.669   4.573  1.4739 -1.0564 -2.5829
  142MOL   H20537147   3.213   0.260   4.503  0.2478 -0.2070 -0.1174
  142MOL   H20637148   3.328   0.320   4.631  3.1511  0.4747 -0.6523
  142MOL   H20737149   3.370   0.311   4.459 -1.3268 -2.3801 -0.0808
  142MOL   H20837150   3.121   0.557   4.360  0.0147  0.0771  0.0871
  142MOL   H20937151   3.205   0.412   4.302  0.4470 -0.6000  1.0419
  142MOL   C21037152   3.323   0.588   4.286 -0.4571 -0.0497 -0.5176
  142MOL   C21137153   3.298   0.599   4.141  0.1550  0.3518 -0.0465
  142MOL   C21237154   3.230   0.695   4.074  0.4927  0.0854  0.3777
  142MOL   C21337155   3.182   0.819   4.140 -0.1567 -1.3183  0.7141
  142MOL   C21437156   3.200   0.693   3.927  0.1777  0.1988  1.0440
  142MOL   H21537157   3.416   0.541   4.318  0.1503  0.2762 -1.7679
  142MOL   H21637158   3.327   0.684   4.337  0.2566 -0.7092  0.7015
  142MOL   H21737159   3.322   0.507   4.091 -2.6134 -0.6899  0.4905
  142MOL   H21837160   3.132   0.796   4.234 -1.6440  0.6927  0.4352
  142MOL   H21937161   3.099   0.863   4.086  0.5845 -0.3882  0.3192
  142MOL   H22037162   3.261   0.892   4.156 -0.4116 -0.9801  0.4182
  142MOL   H22137163   3.269   0.619   3.885  0.1865  0.7939  0.0006
  142MOL   H22237164   3.227   0.788   3.881  0.3055 -0.4818 -0.3456
  142MOL   C22337165   3.056   0.638   3.898 -0.3450  0.1317 -0.1299
  142MOL   C22437166   3.028   0.650   3.759 -0.1153 -0.2207 -0.2799
  142MOL   C22537167   2.965   0.749   3.692 -0.4665 -0.3120 -0.0940
  142MOL   C22637168   2.901   0.870   3.757  0.2551 -0.3085  0.4169
  142MOL   C22737169   2.957   0.736   3.543 -0.2195 -0.1942  1.0369
  142MOL   H22837170   2.990   0.702   3.958  0.5104 -0.3788  1.3864
  142MOL   H22937171   3.037   0.536   3.930 -1.2405 -0.7180 -3.2387
  142MOL   H23037172   3.061   0.567   3.699 -1.2599 -0.5866 -0.4172
  142MOL   H23137173   2.973   0.951   3.764 -0.4063  0.4713 -1.5764
  142MOL   H23237174   2.842   0.848   3.846  1.3184  1.4999  1.5908
  142MOL   H23337175   2.828   0.923   3.696  1.7860  1.6631  0.2904
  142MOL   H23437176   3.041   0.681   3.499  0.1756  0.5124  0.8919
  142MOL   H23537177   3.005   0.830   3.516  1.3788 -0.8951  1.3633
  142MOL   C23637178   2.816   0.704   3.497 -0.0370  0.1967 -0.1283
  142MOL   C23737179   2.811   0.696   3.345  0.1990  0.8331  0.6713
  142MOL   C23837180   2.733   0.767   3.266  0.2204  0.1911 -0.0255
  142MOL   C23937181   2.617   0.841   3.319  1.1926  0.1130  0.0241
  142MOL   C24037182   2.751   0.759   3.114  0.1398 -0.1163 -0.6098
  142MOL   H24137183   2.744   0.771   3.545  0.9646  0.8349  0.5000
  142MOL   H24237184   2.802   0.601   3.529  0.9933  0.5365  1.4620
  142MOL   H24337185   2.882   0.630   3.297  3.2239  2.3100  2.9618
  142MOL   H24437186   2.644   0.944   3.297 -1.8424  0.8792 -0.4582
  142MOL   H24537187   2.581   0.829   3.422  2.3251 -3.4226  0.0603
  142MOL   H24637188   2.526   0.824   3.260  1.5674  2.9080 -1.4441
  142MOL   H24737189   2.656   0.731   3.068 -0.0969  1.4642 -1.1382
  142MOL   H24837190   2.815   0.673   3.098  0.6712 -0.1007  1.2894
  142MOL   C24937191   2.823   0.880   3.053  0.4311  0.2289 -0.0755
  142MOL   C25037192   2.885   0.835   2.920 -0.0957  0.2478  0.0617
  142MOL   C25137193   2.860   0.879   2.794  0.3433  0.6443 -0.2384
  142MOL   C25237194   2.759   0.979   2.763  0.4033  0.2385 -0.7450
  142MOL   C25337195   2.930   0.818   2.676 -0.6980 -0.4995  0.6738
  142MOL   H25437196   2.899   0.915   3.123  0.5080 -2.0696  1.0467
  142MOL   H25537197   2.752   0.962   3.044 -1.7573 -1.3667  1.9657
  142MOL   H25637198   2.964   0.762   2.931  0.3567  0.4927 -1.3452
  142MOL   H25737199   2.809   1.072   2.739  2.6997 -0.3676  1.4915
  142MOL   H25837200   2.695   0.998   2.849  1.6015 -1.2179  0.4831
  142MOL   H25937201   2.702   0.964   2.671  0.1594  2.7638 -1.0429
  142MOL   H26037202   2.978   0.904   2.628 -0.0709 -1.9258 -1.3415
  142MOL   H26137203   2.851   0.786   2.609 -0.3804  2.7237 -1.3524
  142MOL   H26237204   3.007   0.745   2.703  1.2481  1.3470  0.3023
  143MOL     C137205   3.525   3.692   4.968 -0.0552  0.1767  1.0596
  143MOL     C237206   3.529   3.800   4.863  0.0484  0.1785 -0.3179
  143MOL     C337207   3.582   3.923   4.885  0.4247 -0.0038 -0.3112
  143MOL     C437208   3.650   3.955   5.018 -0.1930 -0.4360  0.0997
  143MOL     C537209   3.601   4.017   4.768 -0.1307 -0.0975 -0.3277
  143MOL     H637210   3.425   3.686   5.010 -0.7634  0.1523 -0.6211
  143MOL     H737211   3.550   3.598   4.919  2.1007  2.6171 -2.7660
  143MOL     H837212   3.488   3.780   4.765 -1.2560 -2.0829  0.6568
  143MOL     H937213   3.580   3.943   5.100  2.1601  1.0728  2.4107
  143MOL    H1037214   3.670   4.062   5.019 -1.7100 -0.1410  0.1302
  143MOL    H1137215   3.741   3.897   5.032 -0.5428 -0.7439  1.1247
  143MOL    H1237216   3.593   3.949   4.683  1.2964  0.6714 -1.0840
  143MOL    H1337217   3.703   4.055   4.769  0.1358 -0.8333  0.8068
  143MOL    H1437218   3.595   3.705   5.051 -1.3162 -1.6606  2.4569
  143MOL    C1537219   3.487   4.118   4.760  0.6809  0.1453  0.3417
  143MOL    C1637220   3.519   4.221   4.654  0.6067  0.6077  0.0996
  143MOL    C1737221   3.492   4.222   4.526 -0.3525  0.1748 -0.5104
  143MOL    C1837222   3.431   4.103   4.457 -0.4149 -0.1945 -0.4106
  143MOL    C1937223   3.529   4.332   4.426  0.1095  0.2939  0.0331
  143MOL    H2037224   3.485   4.175   4.853 -0.9219  1.0367 -0.2217
  143MOL    H2137225   3.394   4.066   4.739  0.2219  1.1138 -0.0388
  143MOL    H2237226   3.574   4.309   4.686  1.0993  1.2084 -2.3091
  143MOL    H2337227   3.350   4.138   4.394  0.0818  0.1401 -0.8757
  143MOL    H2437228   3.394   4.026   4.524  2.0984 -1.3610 -0.2895
  143MOL    H2537229   3.506   4.052   4.395 -0.8394  0.7348 -1.6946
  143MOL    H2637230   3.581   4.291   4.340 -0.8625  2.3513 -1.5801
  143MOL    H2737231   3.615   4.380   4.473  1.4899  0.3245 -2.4311
  143MOL    C2837232   3.402   4.418   4.384  0.1353  0.4746 -0.6477
  143MOL    C2937233   3.434   4.500   4.264 -0.2060 -0.0140  0.1167
  143MOL    C3037234   3.394   4.484   4.138 -0.3945 -0.4693 -0.3256
  143MOL    C3137235   3.315   4.364   4.096 -0.1945 -0.1876  1.0935
  143MOL    C3237236   3.416   4.583   4.023 -0.5579  0.5241 -0.3215
  143MOL    H3337237   3.372   4.479   4.469 -0.5699 -2.1549  1.0434
  143MOL    H3437238   3.309   4.362   4.375  0.2402  0.1271  0.3663
  143MOL    H3537239   3.486   4.592   4.287 -1.3511  0.5265  0.5870
  143MOL    H3637240   3.360   4.273   4.134  0.4038  0.4654  1.9591
  143MOL    H3737241   3.312   4.362   3.987  0.6358  1.3669  1.0249
  143MOL    H3837242   3.212   4.382   4.127 -0.6183 -0.4632 -0.1094
  143MOL    H3937243   3.317   4.610   3.987 -0.5333  3.3061  1.5146
  143MOL    H4037244   3.464   4.525   3.944 -0.8621 -1.7676  1.1229
  143MOL    C4137245   3.486   4.714   4.053  0.1706 -1.4137 -0.5013
  143MOL    C4237246   3.498   4.797   3.923  0.2467  0.0711  0.1407
  143MOL    C4337247   3.487   4.930   3.901 -0.5712  0.4101  0.4535
  143MOL    C4437248   3.461   5.034   4.005 -0.3836 -0.6646  0.2748
  143MOL    C4537249   3.517   4.991   3.771 -0.2188  0.0823 -0.3051
  143MOL    H4637250   3.581   4.688   4.099  0.3587 -1.1358 -0.7296
  143MOL    H4737251   3.434   4.774   4.128  2.2800  2.1639 -1.7646
  143MOL    H4837252   3.534   4.735   3.842  0.4173  1.5359 -0.9140
  143MOL    H4937253   3.550   5.092   4.032 -0.1788 -1.4633  1.3785
  143MOL    H5037254   3.424   4.990   4.098  3.3377 -0.4592  1.9750
  143MOL    H5137255   3.392   5.111   3.971  0.4635  0.0616  0.1659
  143MOL    H5237256   3.616   5.037   3.770 -0.3919  0.4446 -1.3305
  143MOL    H5337257   3.441   5.069   3.762 -0.4799  0.6120  4.9305
  143MOL    C5437258   3.514   4.895   3.652 -0.1389 -0.9698 -0.2067
  143MOL    C5537259   3.558   4.964   3.527 -0.0384  0.1030  0.3972
  143MOL    C5637260   3.484   5.018   3.429  0.0059 -0.1820 -0.3122
  143MOL    C5737261   3.335   5.009   3.431 -0.1408  0.1088 -0.2075
  143MOL    C5837262   3.530   5.081   3.301  0.0984  0.3462  0.5685
  143MOL    H5937263   3.417   4.846   3.643 -1.7651  1.7618  1.8354
  143MOL    H6037264   3.585   4.814   3.666  1.7904  1.0066  1.9804
  143MOL    H6137265   3.665   4.982   3.523 -0.4517  2.7344 -0.2217
  143MOL    H6237266   3.308   4.917   3.378 -1.3945  0.2529  0.1706
  143MOL    H6337267   3.296   5.086   3.364  0.1215  1.5942  1.3197
  143MOL    H6437268   3.292   5.007   3.531 -0.0178 -1.1469 -0.1643
  143MOL    H6537269   3.509   5.187   3.309 -1.2865  0.0128  1.4438
  143MOL    H6637270   3.469   5.061   3.213  0.4645 -1.6313  0.7464
  143MOL    C6737271   3.679   5.060   3.280 -0.2124 -0.6025 -0.4174
  143MOL    C6837272   3.715   5.097   3.138 -0.5246 -0.2147 -0.6109
  143MOL    C6937273   3.835   5.125   3.092 -1.0581  0.7110  0.1944
  143MOL    C7037274   3.966   5.127   3.183 -0.8733  0.7929 -0.6601
  143MOL    C7137275   3.864   5.143   2.946  0.1909  0.3247 -0.3247
  143MOL    H7237276   3.720   4.959   3.292  0.0396 -0.4052  0.4089
  143MOL    H7337277   3.731   5.120   3.355 -1.2091 -0.2023 -0.0394
  143MOL    H7437278   3.645   5.089   3.057 -0.4757 -1.2917 -0.5580
  143MOL    H7537279   3.947   5.128   3.290  3.6895 -1.3860  0.3056
  143MOL    H7637280   4.037   5.209   3.180  2.2693 -1.8433 -1.0092
  143MOL    H7737281   4.031   5.041   3.169 -0.2542  1.1054  0.3066
  143MOL    H7837282   3.776   5.109   2.891 -0.0529  0.8113 -0.2323
  143MOL    H7937283   3.948   5.083   2.911  1.3915  1.6288  0.2634
  143MOL    C8037284   3.900   5.288   2.911  0.3919  0.3154 -0.2311
  143MOL    C8137285   3.911   5.299   2.759 -0.7376 -0.7830 -0.1452
  143MOL    C8237286   4.031   5.286   2.696  0.4282 -0.1274 -0.3426
  143MOL    C8337287   4.162   5.250   2.766  0.0884 -0.1867  0.2767
  143MOL    C8437288   4.050   5.313   2.548  0.1828 -0.5988  0.0780
  143MOL    H8537289   3.989   5.307   2.971 -0.7282  1.5953  1.0764
  143MOL    H8637290   3.824   5.357   2.949  1.2752  1.9069 -1.2982
  143MOL    H8737291   3.819   5.320   2.706  0.4432  0.7795 -1.6138
  143MOL    H8837292   4.156   5.215   2.869  0.7620 -0.2292  0.3005
  143MOL    H8937293   4.236   5.330   2.760  0.4666 -0.6980 -2.3682
  143MOL    H9037294   4.190   5.153   2.725  0.0633 -0.2900  0.5035
  143MOL    H9137295   4.156   5.333   2.533 -0.4236  1.2638 -2.0240
  143MOL    H9237296   3.992   5.403   2.525 -1.1689 -0.7145  2.7926
  143MOL    C9337297   4.020   5.191   2.463  0.1919  0.2436  0.8156
  143MOL    C9437298   4.023   5.223   2.315 -0.2811 -0.5253 -0.5120
  143MOL    C9537299   4.093   5.167   2.218 -0.5426  0.7430 -0.0607
  143MOL    C9637300   4.190   5.053   2.232  0.0410 -0.6617  0.2381
  143MOL    C9737301   4.087   5.233   2.081  0.1009  1.6793 -0.0002
  143MOL    H9837302   3.917   5.163   2.488  0.3216 -2.4867 -1.4319
  143MOL    H9937303   4.093   5.113   2.485 -0.6169 -0.3129  1.6007
  143MOL   H10037304   3.953   5.301   2.289  0.5755  0.5168  0.2594
  143MOL   H10137305   4.201   5.005   2.135 -0.4461 -1.4337  0.5480
  143MOL   H10237306   4.136   4.977   2.289 -1.1607  0.0217  0.0309
  143MOL   H10337307   4.282   5.066   2.289 -0.7227 -1.0272  1.5981
  143MOL   H10437308   4.193   5.241   2.054  0.2678 -1.8246 -0.6888
  143MOL   H10537309   4.043   5.331   2.095 -0.1054  2.3407 -4.4500
  143MOL   C10637310   4.009   5.155   1.971  0.4178  0.7499  0.1941
  143MOL   C10737311   3.961   5.252   1.865  0.4002  0.4155 -0.0363
  143MOL   C10837312   3.984   5.259   1.729 -0.7206  0.0699  0.3208
  143MOL   C10937313   4.051   5.144   1.654  0.3975 -0.1591  0.1142
  143MOL   C11037314   3.955   5.381   1.641  0.6834  0.2268 -0.2329
  143MOL   H11137315   3.924   5.102   2.014  0.0964  0.5368 -0.6889
  143MOL   H11237316   4.069   5.077   1.924 -0.2351  0.6555 -0.5050
  143MOL   H11337317   3.913   5.342   1.900  0.1597  0.8353 -1.4349
  143MOL   H11437318   3.997   5.100   1.570 -1.5330  0.9106  0.7680
  143MOL   H11537319   4.077   5.061   1.721  1.4325  1.3834  1.6521
  143MOL   H11637320   4.142   5.187   1.612 -0.9063  1.9971 -0.5441
  143MOL   H11737321   3.900   5.455   1.699 -0.4615 -0.4087 -0.4883
  143MOL   H11837322   3.883   5.355   1.564  1.5495  0.7012 -1.2140
  143MOL   C11937323   4.074   5.458   1.587 -0.0932  0.0222 -0.2977
  143MOL   C12037324   4.167   5.500   1.697  0.3077  0.1608 -0.1704
  143MOL   C12137325   4.160   5.602   1.781 -0.4864 -0.3668 -0.1979
  143MOL   C12237326   4.056   5.706   1.768  0.1270 -0.4599 -0.0953
  143MOL   C12337327   4.269   5.630   1.885  0.0036 -0.0412 -0.3025
  143MOL   H12437328   4.043   5.544   1.528  1.3247 -2.0850 -4.3070
  143MOL   H12537329   4.133   5.393   1.522  1.4263  0.6946  0.3917
  143MOL   H12637330   4.245   5.427   1.708  1.2729  1.4523  1.7327
  143MOL   H12737331   3.985   5.711   1.850  1.0093  0.7745  0.6185
  143MOL   H12837332   3.994   5.697   1.680 -2.2268  0.3705  1.4332
  143MOL   H12937333   4.108   5.802   1.768  0.5301 -0.6735  0.6233
  143MOL   H13037334   4.323   5.722   1.864  1.8841 -0.7239  1.4161
  143MOL   H13137335   4.343   5.551   1.884  0.0971  0.0452 -0.1094
  143MOL   C13237336   4.211   5.658   2.018  0.1342 -0.7209 -0.3457
  143MOL   C13337337   4.321   5.670   2.128  0.0624 -0.1723 -0.1801
  143MOL   C13437338   4.312   5.616   2.251  0.0155 -0.2906  0.1952
  143MOL   C13537339   4.175   5.580   2.305  0.5457  0.5512 -0.2854
  143MOL   C13637340   4.428   5.624   2.347 -0.6853 -0.1241 -0.3541
  143MOL   H13737341   4.156   5.569   2.047  0.1337  0.1451  2.4566
  143MOL   H13837342   4.144   5.744   2.020  2.1583  0.8830  0.1621
  143MOL   H13937343   4.411   5.723   2.101  0.1769  0.7339  1.8968
  143MOL   H14037344   4.162   5.598   2.411 -0.0418 -0.4963 -0.1692
  143MOL   H14137345   4.150   5.475   2.286 -0.3509  0.7860 -0.4127
  143MOL   H14237346   4.093   5.627   2.250  1.7961 -0.8550 -3.4767
  143MOL   H14337347   4.407   5.707   2.415 -0.7933  1.0001 -1.7398
  143MOL   H14437348   4.521   5.642   2.293 -0.8629 -2.7156 -1.5856
  143MOL   C14537349   4.449   5.503   2.431  0.1756 -0.3849 -1.1440
  143MOL   C14637350   4.454   5.376   2.350 -0.4000 -0.1301  0.3739
  143MOL   C14737351   4.566   5.311   2.311  0.1387  0.1957 -0.0394
  143MOL   C14837352   4.704   5.359   2.336 -0.5319 -0.5250  0.1663
  143MOL   C14937353   4.559   5.190   2.213  0.0505  0.0647 -0.6847
  143MOL   H15037354   4.374   5.487   2.509  0.0722 -1.0830 -1.3812
  143MOL   H15137355   4.538   5.530   2.487  0.6323 -0.3949 -1.8589
  143MOL   H15237356   4.359   5.334   2.321  0.3026 -1.8958  0.5727
  143MOL   H15337357   4.717   5.438   2.410 -2.3984 -0.7225  0.7325
  143MOL   H15437358   4.755   5.386   2.243  0.0577  1.5273  1.0537
  143MOL   H15537359   4.759   5.273   2.373 -1.0305 -0.2167  1.6574
  143MOL   H15637360   4.493   5.111   2.250  0.2995  1.0337  1.8746
  143MOL   H15737361   4.650   5.130   2.216  1.1571  1.7739  2.4345
  143MOL   C15837362   4.554   5.232   2.068  0.3724  0.1972  0.3489
  143MOL   C15937363   4.558   5.118   1.965 -0.4277 -0.6579  0.8632
  143MOL   C16037364   4.483   5.113   1.848 -0.0946  0.0770  0.7878
  143MOL   C16137365   4.394   5.227   1.798 -0.6188 -0.7040  0.4952
  143MOL   C16237366   4.487   4.983   1.766  0.7402 -0.6332  0.4419
  143MOL   H16337367   4.641   5.294   2.049  1.4064 -0.4355  2.7814
  143MOL   H16437368   4.477   5.306   2.047  0.8186  0.5711  0.0012
  143MOL   H16537369   4.620   5.033   1.992  0.1673 -0.0585  1.3827
  143MOL   H16637370   4.406   5.233   1.690 -0.6913  1.8065  0.5804
  143MOL   H16737371   4.446   5.317   1.833 -3.1761  1.2914 -0.6280
  143MOL   H16837372   4.289   5.227   1.829 -0.8776  2.2529 -0.2308
  143MOL   H16937373   4.534   4.893   1.805  0.4774 -0.2243  1.6970
  143MOL   H17037374   4.544   5.016   1.679  0.4378  2.0068  1.2152
  143MOL   C17137375   4.355   4.929   1.703  0.2318 -0.1008 -0.0532
  143MOL   C17237376   4.265   4.874   1.810 -0.6126  0.8335 -0.5880
  143MOL   C17337377   4.206   4.752   1.803 -0.4228 -0.6096  0.4873
  143MOL   C17437378   4.221   4.652   1.689 -0.0112  0.0918  0.0241
  143MOL   C17537379   4.117   4.699   1.913 -0.8847 -0.3136 -0.3617
  143MOL   H17637380   4.380   4.862   1.621  0.7110  0.1201 -0.0914
  143MOL   H17737381   4.310   5.012   1.648 -0.4410 -1.0017 -0.8652
  143MOL   H17837382   4.255   4.933   1.900 -0.3829  0.6563 -0.4476
  143MOL   H17937383   4.312   4.669   1.631 -1.1483  0.9550 -1.5524
  143MOL   H18037384   4.131   4.671   1.630 -0.8330 -0.4927  1.0787
  143MOL   H18137385   4.222   4.553   1.735  0.5141 -0.5216 -1.2912
  143MOL   H18237386   4.098   4.781   1.982 -1.3649 -0.8104  0.1017
  143MOL   H18337387   4.159   4.626   1.982  1.7397  1.0707 -0.4407
  143MOL   C18437388   3.979   4.648   1.874  0.1418  0.2153 -0.0626
  143MOL   C18537389   3.917   4.576   1.990  0.0072  0.9479  0.2596
  143MOL   C18637390   3.899   4.438   2.001 -0.8552 -0.0020  0.0716
  143MOL   C18737391   3.948   4.351   1.892  0.5055  0.0316 -0.1859
  143MOL   C18837392   3.844   4.385   2.130  0.3384 -0.4867 -0.2908
  143MOL   H18937393   3.970   4.586   1.785 -1.5702  0.4431 -0.0749
  143MOL   H19037394   3.923   4.736   1.841  4.1046  2.8406 -0.1243
  143MOL   H19137395   3.878   4.641   2.067 -1.6761  1.9098 -1.3802
  143MOL   H19237396   3.865   4.329   1.825 -0.2601  0.7300  0.5177
  143MOL   H19337397   3.987   4.256   1.929 -1.5902 -1.9631 -2.8145
  143MOL   H19437398   4.032   4.388   1.834 -1.5403  0.5245 -2.9440
  143MOL   H19537399   3.786   4.292   2.126  2.1989 -1.7567  1.4872
  143MOL   H19637400   3.787   4.465   2.177  0.4362  0.8195 -2.2977
  143MOL   C19737401   3.962   4.349   2.222  0.0963  0.1544  0.0258
  143MOL   C19837402   4.029   4.476   2.284 -0.5168  0.5263  0.7827
  143MOL   C19937403   4.163   4.500   2.286 -0.3595  0.2078  0.2395
  143MOL   C20037404   4.274   4.404   2.247 -0.3419 -0.0467 -0.6005
  143MOL   C20137405   4.206   4.643   2.325 -0.3290  0.3290 -0.4325
  143MOL   H20237406   4.044   4.299   2.169 -1.1135 -0.3115 -1.4165
  143MOL   H20337407   3.931   4.279   2.300  0.1947 -0.1429 -0.2005
  143MOL   H20437408   3.962   4.550   2.327 -0.8121  0.1646  0.9425
  143MOL   H20537409   4.357   4.433   2.311 -1.6749  1.1943  0.5913
  143MOL   H20637410   4.288   4.406   2.139  1.9137  0.2685 -0.3231
  143MOL   H20737411   4.244   4.301   2.269  2.0956 -0.5368  0.5737
  143MOL   H20837412   4.118   4.701   2.298 -0.2826 -0.1429 -1.6358
  143MOL   H20937413   4.280   4.675   2.252  1.2970 -1.7077  0.2724
  143MOL   C21037414   4.251   4.653   2.470 -0.8910 -0.4085  0.0134
  143MOL   C21137415   4.320   4.787   2.491 -0.1240  0.3058  0.1147
  143MOL   C21237416   4.453   4.813   2.492  0.4318 -0.6674 -0.6786
  143MOL   C21337417   4.563   4.715   2.492 -0.5059  0.4914 -0.5335
  143MOL   C21437418   4.497   4.959   2.512  0.2201 -0.0436  0.3344
  143MOL   H21537419   4.324   4.573   2.482  0.4204  0.7211 -0.2254
  143MOL   H21637420   4.174   4.626   2.542 -0.3652 -2.1768 -0.0741
  143MOL   H21737421   4.249   4.868   2.503 -0.4854  0.4772 -2.9596
  143MOL   H21837422   4.617   4.699   2.586 -2.9910  1.7510  1.1556
  143MOL   H21937423   4.632   4.761   2.421  1.2135  0.5848  1.1478
  143MOL   H22037424   4.525   4.617   2.463 -0.3175  0.2613 -0.0103
  143MOL   H22137425   4.427   5.035   2.479 -1.5101 -1.4383  0.7392
  143MOL   H22237426   4.580   4.974   2.442 -0.3906 -1.7373 -0.7789
  143MOL   C22337427   4.557   4.977   2.652 -0.6449 -0.8282 -0.3763
  143MOL   C22437428   4.598   5.129   2.673  0.4384 -0.7998  0.0283
  143MOL   C22537429   4.596   5.197   2.789  0.0692  0.6702 -0.7130
  143MOL   C22637430   4.562   5.130   2.926 -0.4959 -0.7627  0.0042
  143MOL   C22737431   4.618   5.346   2.791  0.3085 -0.5620 -0.2241
  143MOL   H22837432   4.632   4.905   2.686 -1.7148 -1.3621  0.8922
  143MOL   H22937433   4.483   4.949   2.727 -0.6181  0.8338  0.2957
  143MOL   H23037434   4.619   5.191   2.587 -0.8276  0.4095  0.5595
  143MOL   H23137435   4.464   5.161   2.963  0.1187  1.4271 -0.1676
  143MOL   H23237436   4.636   5.165   2.997 -0.3615  0.8627 -0.9246
  143MOL   H23337437   4.557   5.021   2.923 -0.4501 -0.7463 -0.9510
  143MOL   H23437438   4.540   5.398   2.846  0.4466 -1.4340  0.8181
  143MOL   H23537439   4.610   5.383   2.689  3.8956  0.0536 -0.3537
  143MOL   C23637440   4.753   5.380   2.857  0.4719  0.1469  0.5145
  143MOL   C23737441   4.769   5.525   2.879  0.8939  0.0155  0.4495
  143MOL   C23837442   4.815   5.622   2.798  0.2422 -0.9075 -0.0569
  143MOL   C23937443   4.870   5.599   2.660  0.4835  0.0242  0.2006
  143MOL   C24037444   4.803   5.769   2.839 -0.5118  0.9687  0.3991
  143MOL   H24137445   4.830   5.362   2.782  1.3843  1.0771  1.1938
  143MOL   H24237446   4.777   5.316   2.942  0.9046 -3.4983 -2.2384
  143MOL   H24337447   4.714   5.554   2.967 -0.1401 -0.6580  0.0307
  143MOL   H24437448   4.809   5.528   2.604 -0.1009  1.7417 -1.3768
  143MOL   H24537449   4.968   5.553   2.671  0.4341 -0.9685 -2.9105
  143MOL   H24637450   4.876   5.693   2.605  0.1560 -0.5067 -0.7677
  143MOL   H24737451   4.899   5.820   2.829 -0.4460  0.5357 -1.3788
  143MOL   H24837452   4.784   5.782   2.946 -0.3264 -0.3179  0.6008
  143MOL   C24937453   4.701   5.850   2.767 -0.2814  0.4425 -0.1058
  143MOL   C25037454   4.561   5.796   2.770 -0.2303 -0.7355  0.2627
  143MOL   C25137455   4.455   5.849   2.701 -0.0495 -1.3156 -0.8632
  143MOL   C25237456   4.459   5.990   2.626 -0.0383 -0.3614  0.3125
  143MOL   C25337457   4.324   5.778   2.706  0.6029 -0.7204 -0.7968
  143MOL   H25437458   4.728   5.846   2.661 -2.5314 -0.1586 -0.6862
  143MOL   H25537459   4.708   5.956   2.788  0.4359  0.4238 -0.2445
  143MOL   H25637460   4.559   5.696   2.812 -0.8782  0.5892  3.5254
  143MOL   H25737461   4.395   6.062   2.678  0.3822 -0.9595  1.6814
  143MOL   H25837462   4.409   5.987   2.529 -0.9137  0.6712  0.7180
  143MOL   H25937463   4.554   6.042   2.642 -1.0811  1.5662  0.3907
  143MOL   H26037464   4.249   5.855   2.691 -0.1124 -1.0507  1.0008
  143MOL   H26137465   4.309   5.745   2.808  1.2622  0.1989 -0.3920
  143MOL   H26237466   4.319   5.691   2.640  1.4358 -1.7851  0.5243
  144MOL     C137467   2.355   4.737   0.094  0.6234 -0.5244 -0.3525
  144MOL     C237468   2.331   4.613   0.184 -0.4946 -0.7094 -0.3394
  144MOL     C337469   2.393   4.575   0.296 -0.3308 -0.4754 -0.5921
  144MOL     C437470   2.505   4.648   0.360  0.2777 -0.0936  0.4817
  144MOL     C537471   2.353   4.452   0.380 -0.1803  0.3610 -0.1543
  144MOL     H637472   2.424   4.809   0.137  0.9079 -0.1132 -1.4745
  144MOL     H737473   2.386   4.715   7.874  1.1012 -1.3059 -0.0487
  144MOL     H837474   2.257   4.540   0.156  0.0351 -1.0827 -0.7750
  144MOL     H937475   2.572   4.709   0.300 -1.1133  1.3355  0.3170
  144MOL    H1037476   2.573   4.571   0.395  0.6225 -0.0728 -0.1481
  144MOL    H1137477   2.477   4.698   0.453 -0.8943  1.2541 -0.5722
  144MOL    H1237478   2.244   4.450   0.380 -0.2626  1.1054 -3.9936
  144MOL    H1337479   2.381   4.446   0.486 -3.3546 -1.6680  0.6649
  144MOL    H1437480   2.265   4.796   0.080 -0.7692 -2.1211  1.5678
  144MOL    C1537481   2.384   4.316   0.314 -0.0026  0.4830 -0.2861
  144MOL    C1637482   2.313   4.201   0.378  0.3239  0.1071  0.0213
  144MOL    C1737483   2.356   4.090   0.447 -0.3230 -0.1149  0.0276
  144MOL    C1837484   2.501   4.080   0.495  0.0783 -0.0630  0.5596
  144MOL    C1937485   2.266   3.969   0.469  0.7535  0.2262  0.0279
  144MOL    H2037486   2.491   4.310   0.333  0.5117  0.6403 -2.9343
  144MOL    H2137487   2.363   4.311   0.207 -2.6253 -0.4672  0.2376
  144MOL    H2237488   2.209   4.202   0.349  0.8324  0.4635 -1.8691
  144MOL    H2337489   2.516   4.018   0.584 -0.0394 -0.1930  0.4877
  144MOL    H2437490   2.543   4.181   0.502 -0.5589  0.3280 -0.9820
  144MOL    H2537491   2.557   4.045   0.408 -0.7052 -2.1590  0.8656
  144MOL    H2637492   2.160   3.990   0.457  0.2686 -1.4322  1.1957
  144MOL    H2737493   2.281   3.930   0.570 -1.7889 -1.8660 -0.3420
  144MOL    C2837494   2.302   3.846   0.388 -0.1545  0.6331 -0.4125
  144MOL    C2937495   2.190   3.748   0.362  0.7209 -0.2761 -0.5710
  144MOL    C3037496   2.155   3.642   0.438  0.3801 -0.3473  0.3778
  144MOL    C3137497   2.220   3.604   0.567  0.2008  0.2483 -0.2221
  144MOL    C3237498   2.043   3.552   0.384 -0.2169 -0.3640 -0.0821
  144MOL    H3337499   2.379   3.791   0.443 -2.7607 -1.5907  1.1543
  144MOL    H3437500   2.353   3.873   0.296 -0.8395 -3.1373 -1.9727
  144MOL    H3537501   2.130   3.765   0.274  0.2994  3.0549  0.2860
  144MOL    H3637502   2.147   3.591   0.647 -0.6306  2.4705 -0.5710
  144MOL    H3737503   2.282   3.686   0.605  0.6394  0.1103 -0.6303
  144MOL    H3837504   2.285   3.519   0.548 -0.5660 -0.1986 -0.8691
  144MOL    H3937505   2.068   3.447   0.393 -0.5840 -0.4449 -0.0184
  144MOL    H4037506   2.033   3.562   0.276 -0.8306  0.5098  0.0459
  144MOL    C4137507   1.914   3.581   0.462 -0.0232  0.1024 -0.2804
  144MOL    C4237508   1.785   3.497   0.422  0.1376  0.1635 -0.2287
  144MOL    C4337509   1.661   3.539   0.383 -0.7596  0.0156 -0.5316
  144MOL    C4437510   1.627   3.683   0.346 -0.6601  0.3301  0.8235
  144MOL    C4537511   1.538   3.455   0.365  0.4167 -0.1647  0.3619
  144MOL    H4637512   1.887   3.686   0.445  0.5580  0.1269 -1.0589
  144MOL    H4737513   1.927   3.589   0.570  2.2046 -0.1897 -0.4983
  144MOL    H4837514   1.806   3.393   0.441  0.5683  0.0070 -1.5159
  144MOL    H4937515   1.697   3.758   0.382 -0.9869  1.3054 -0.5696
  144MOL    H5037516   1.531   3.725   0.375 -2.1084 -2.0145 -0.4240
  144MOL    H5137517   1.643   3.701   0.240 -1.5541 -1.9749  0.2513
  144MOL    H5237518   1.459   3.488   0.433 -1.2860 -2.7621 -0.2769
  144MOL    H5337519   1.569   3.356   0.399 -1.8633 -0.9019  0.3909
  144MOL    C5437520   1.476   3.459   0.221 -0.2745 -0.0058 -0.4265
  144MOL    C5537521   1.369   3.350   0.203  0.2080 -0.5713  0.2759
  144MOL    C5637522   1.277   3.338   0.110  0.3473  0.1961 -0.3785
  144MOL    C5737523   1.251   3.447   0.004 -0.0654 -0.1439  0.2748
  144MOL    C5837524   1.178   3.226   0.113  0.5543  0.3527 -0.3665
  144MOL    H5937525   1.547   3.437   0.141  0.7352  3.4156 -0.5351
  144MOL    H6037526   1.446   3.561   0.196 -3.4254 -0.7283  0.2870
  144MOL    H6137527   1.382   3.268   0.271  0.8650 -0.6092  0.1041
  144MOL    H6237528   1.320   3.531   7.880 -0.7595  0.2859 -1.7755
  144MOL    H6337529   1.148   3.482   0.015 -1.2183 -2.7792 -1.7112
  144MOL    H6437530   1.244   3.407   7.786  1.9567  1.3973 -0.5227
  144MOL    H6537531   1.081   3.274   0.127  1.3290  1.4521  1.3251
  144MOL    H6637532   1.198   3.160   0.197 -0.1425 -1.1065 -1.3270
  144MOL    C6737533   1.176   3.133   7.874 -0.0136  0.6915  0.1886
  144MOL    C6837534   1.040   3.053   7.876 -0.4913 -0.1015  0.1888
  144MOL    C6937535   1.017   2.922   0.017 -1.2036  0.6434  0.3019
  144MOL    C7037536   1.128   2.824   0.051 -0.1080 -0.1505 -0.5215
  144MOL    C7137537   0.871   2.873   0.029 -0.7877  0.5146  0.3770
  144MOL    H7237538   1.259   3.062   7.874  0.6692  1.4816 -0.9874
  144MOL    H7337539   1.182   3.184   7.778 -2.6486 -0.7775 -0.8107
  144MOL    H7437540   0.961   3.126   7.873 -0.7991 -0.4847 -3.6742
  144MOL    H7537541   1.125   2.739   7.865  0.6094 -0.7269  0.1398
  144MOL    H7637542   1.124   2.783   0.152 -0.1797  0.2714 -0.3549
  144MOL    H7737543   1.226   2.871   0.047 -0.3617  0.5084  0.7604
  144MOL    H7837544   0.858   2.803   7.829  0.2523 -0.1346  0.7512
  144MOL    H7937545   0.809   2.960   0.007  0.6158  1.4648  0.1311
  144MOL    C8037546   0.823   2.807   0.158 -0.3502  0.5948  0.0448
  144MOL    C8137547   0.669   2.808   0.176 -0.0632  0.6646 -0.3295
  144MOL    C8237548   0.582   2.706   0.152 -0.3257 -0.0227 -0.1118
  144MOL    C8337549   0.630   2.578   0.087 -0.1111  0.2340  0.2805
  144MOL    C8437550   0.437   2.704   0.196  0.4480 -0.4517 -1.1781
  144MOL    H8537551   0.855   2.862   0.247  3.1943  1.0187 -1.4189
  144MOL    H8637552   0.867   2.708   0.169  0.0509  0.8505  0.8189
  144MOL    H8737553   0.622   2.896   0.216  0.6185  0.7853  0.2354
  144MOL    H8837554   0.711   2.599   0.016  0.2279 -0.6842  0.3906
  144MOL    H8937555   0.554   2.538   0.020  0.8945  0.1811 -0.8528
  144MOL    H9037556   0.662   2.502   0.157  1.4740  0.0343 -0.6282
  144MOL    H9137557   0.417   2.785   0.266  0.7960 -2.6715  1.5991
  144MOL    H9237558   0.404   2.620   0.256 -2.5720  1.7704  0.3845
  144MOL    C9337559   0.342   2.727   0.076  1.3842 -0.2561  0.5560
  144MOL    C9437560   0.199   2.695   0.108  0.0719  0.5214  0.5148
  144MOL    C9537561   0.128   2.587   0.061  0.3482  0.3146 -1.1977
  144MOL    C9637562   0.178   2.479   7.850  0.2497  0.4995  0.1086
  144MOL    C9737563   7.866   2.567   0.098  0.5727  1.0189 -0.5337
  144MOL    H9837564   0.374   2.678   7.866 -2.6146 -3.4324  0.7313
  144MOL    H9937565   0.335   2.830   0.039 -0.5545  0.0300  1.6851
  144MOL   H10037566   0.142   2.757   0.177 -2.7791  1.3461 -2.4626
  144MOL   H10137567   0.286   2.468   7.845 -0.0644 -3.3240  0.2528
  144MOL   H10237568   0.142   2.469   7.747 -2.1398 -2.8587  1.1915
  144MOL   H10337569   0.133   2.391   0.012 -0.5538  1.1201  0.5384
  144MOL   H10437570   7.802   2.544   0.013 -2.3890 -1.7597  2.2928
  144MOL   H10537571   7.817   2.658   0.133 -1.1860 -0.6786  1.5526
  144MOL   C10637572   7.842   2.463   0.205  0.2616 -0.7162 -0.2595
  144MOL   C10737573   0.011   2.501   0.342 -0.1911  0.6830  0.4527
  144MOL   C10837574   7.824   2.533   0.449  0.3692 -0.8169  0.5331
  144MOL   C10937575   7.666   2.528   0.453 -0.0222 -0.0379  0.8172
  144MOL   C11037576   0.009   2.572   0.581  0.0986  0.5360  0.0723
  144MOL   H11137577   0.004   2.366   0.184  2.9868  0.8690 -2.0735
  144MOL   H11237578   7.735   2.443   0.209  0.4624 -1.8522 -0.4861
  144MOL   H11337579   0.118   2.488   0.344 -0.2267  0.3361  0.2411
  144MOL   H11437580   7.638   2.433   0.500  0.8995 -1.4379 -1.3680
  144MOL   H11537581   7.622   2.534   0.354 -0.2288  1.4913  0.9854
  144MOL   H11637582   7.642   2.621   0.504  1.0642  0.3088  0.6925
  144MOL   H11737583   0.113   2.541   0.564  0.2782  1.2849 -0.1986
  144MOL   H11837584   7.855   2.516   0.667  0.3215 -0.3013 -0.3700
  144MOL   C11937585   7.873   2.718   0.611  0.3628  0.5926 -0.8561
  144MOL   C12037586   0.101   2.769   0.703  0.3205 -0.4490 -0.5014
  144MOL   C12137587   0.205   2.846   0.676 -0.0852 -0.2372  0.2534
  144MOL   C12237588   0.244   2.883   0.530 -0.0785  0.6677 -0.1065
  144MOL   C12337589   0.307   2.894   0.783  0.3019 -0.3057  0.5496
  144MOL   H12437590   7.775   2.732   0.656  0.9819  0.5548  0.4999
  144MOL   H12537591   0.009   2.781   0.524 -0.1430  2.7128  0.5292
  144MOL   H12637592   0.095   2.731   0.804  0.3303  2.7100  0.7354
  144MOL   H12737593   0.260   2.796   0.467 -1.8881 -0.3519  0.8115
  144MOL   H12837594   0.340   2.935   0.531  1.1345 -1.4874 -1.5605
  144MOL   H12937595   0.173   2.953   0.486  0.1852  1.4695  0.7281
  144MOL   H13037596   0.254   2.924   0.873 -1.0895 -1.1510  0.0296
  144MOL   H13137597   0.361   2.982   0.748  0.2579  0.2236  1.7933
  144MOL   C13237598   0.415   2.787   0.811  0.2972  0.2011 -1.0713
  144MOL   C13337599   0.511   2.813   0.928 -0.2132 -0.2027  0.1686
  144MOL   C13437600   0.609   2.908   0.935 -0.0256  0.3455  0.1324
  144MOL   C13537601   0.633   3.011   0.825  1.0550 -0.6119 -0.2488
  144MOL   C13637602   0.698   2.915   1.064  0.3418  1.2238 -0.0791
  144MOL   H13737603   0.476   2.762   0.725  0.3251  0.2738 -1.0729
  144MOL   H13837604   0.361   2.699   0.847 -1.6009  0.7837 -2.4355
  144MOL   H13937605   0.504   2.741   1.008 -0.7389  0.4524  0.7156
  144MOL   H14037606   0.737   3.014   0.794  0.8616  1.5813 -0.7668
  144MOL   H14137607   0.616   3.101   0.884  0.9635 -1.5910  1.2596
  144MOL   H14237608   0.565   2.997   0.741  1.8973  0.4589 -1.1125
  144MOL   H14337609   0.670   2.839   1.136  0.7601  1.8839  0.7891
  144MOL   H14437610   0.661   3.005   1.114 -0.5428  1.1967 -0.6792
  144MOL   C14537611   0.845   2.902   1.042  0.1362  0.0877  0.1241
  144MOL   C14637612   0.920   3.033   1.014  0.8334  0.3057 -0.5145
  144MOL   C14737613   1.044   3.075   1.060  0.5713  0.1381  0.3862
  144MOL   C14837614   1.117   2.984   1.160 -0.8161  0.4562  0.1291
  144MOL   C14937615   1.105   3.207   1.029 -0.5406 -0.5581  0.0234
  144MOL   H15037616   0.872   2.821   0.974 -0.7970  1.6168 -2.1397
  144MOL   H15137617   0.891   2.862   1.132 -0.8991  0.9431  1.0392
  144MOL   H15237618   0.866   3.099   0.948 -0.8467 -1.9480 -1.4922
  144MOL   H15337619   1.148   2.890   1.115 -0.0368  0.3827  0.8114
  144MOL   H15437620   1.051   2.953   1.242 -0.6818 -0.8682 -0.2627
  144MOL   H15537621   1.203   3.038   1.199  0.6513 -1.6890 -0.0962
  144MOL   H15637622   1.048   3.250   0.947  0.9524 -2.1074 -1.8852
  144MOL   H15737623   1.209   3.195   0.997 -0.8208  1.7043 -1.8906
  144MOL   C15837624   1.096   3.312   1.137 -0.4066  0.3669 -0.6520
  144MOL   C15937625   1.192   3.430   1.132  0.2400 -0.1238 -0.0250
  144MOL   C16037626   1.291   3.456   1.217 -0.3249 -0.0226  1.0181
  144MOL   C16137627   1.314   3.371   1.344  0.0854 -0.0266 -0.1044
  144MOL   C16237628   1.380   3.576   1.193  0.4190 -0.3900 -0.7596
  144MOL   H16337629   1.120   3.251   1.225 -2.7670  1.2376  0.6344
  144MOL   H16437630   0.992   3.343   1.137 -1.1948 -2.0911  0.8287
  144MOL   H16537631   1.184   3.488   1.041 -0.7104 -0.6306 -0.2628
  144MOL   H16637632   1.232   3.400   1.409  0.7931  0.7647  0.4521
  144MOL   H16737633   1.407   3.404   1.392 -0.7465  2.1476  0.0638
  144MOL   H16837634   1.320   3.262   1.342  0.2039 -0.2691  5.6136
  144MOL   H16937635   1.353   3.618   1.096 -0.0891 -0.9910 -0.8826
  144MOL   H17037636   1.482   3.542   1.178  0.6779 -0.1325  0.3565
  144MOL   C17137637   1.364   3.683   1.303 -0.5059 -0.3494  0.0089
  144MOL   C17237638   1.461   3.802   1.269  0.1818  0.9841  0.1159
  144MOL   C17337639   1.435   3.926   1.216  0.0492 -0.0809  0.4245
  144MOL   C17437640   1.292   3.974   1.202 -0.3994  0.4790 -0.1364
  144MOL   C17537641   1.541   4.030   1.190 -0.6963  0.0483  0.6253
  144MOL   H17637642   1.410   3.649   1.395 -0.8808  1.3906  0.8613
  144MOL   H17737643   1.264   3.723   1.323  0.5142  1.1387  2.2037
  144MOL   H17837644   1.565   3.782   1.290  0.6746  3.9076  0.6588
  144MOL   H17937645   1.237   3.888   1.163  0.4019  1.1020 -2.7314
  144MOL   H18037646   1.276   4.055   1.131  1.1799 -0.9894 -2.2494
  144MOL   H18137647   1.263   4.010   1.301 -0.1909  1.6686 -0.5042
  144MOL   H18237648   1.566   4.044   1.084  0.3535 -3.2537  0.3914
  144MOL   H18337649   1.633   3.992   1.234  0.3208  1.3669 -0.3045
  144MOL   C18437650   1.518   4.154   1.275  0.5307  0.4176  0.0242
  144MOL   C18537651   1.609   4.272   1.239 -0.1688 -0.4346  0.2680
  144MOL   C18637652   1.714   4.320   1.313  0.2091  0.7901  0.7422
  144MOL   C18737653   1.759   4.252   1.439  0.3824  0.0158  0.0976
  144MOL   C18837654   1.785   4.450   1.282 -0.1129  0.7533 -0.3385
  144MOL   H18937655   1.523   4.139   1.382 -1.8528 -0.9879 -0.0230
  144MOL   H19037656   1.421   4.202   1.257  0.6990  0.4375 -0.8799
  144MOL   H19137657   1.578   4.328   1.152  1.1782 -0.8719 -0.5127
  144MOL   H19237658   1.863   4.276   1.466  0.7866 -1.8179  0.2047
  144MOL   H19337659   1.734   4.147   1.426 -2.1585  0.7888 -1.6249
  144MOL   H19437660   1.696   4.276   1.525 -0.8071  0.2877 -0.8520
  144MOL   H19537661   1.749   4.482   1.184  0.7405 -0.0428 -0.9182
  144MOL   H19637662   1.892   4.433   1.264 -0.1741  1.5521 -1.5861
  144MOL   C19737663   1.769   4.561   1.382 -0.3343 -0.3897 -0.2188
  144MOL   C19837664   1.823   4.687   1.329  0.1739 -0.1290  0.0241
  144MOL   C19937665   1.930   4.759   1.378  0.9799 -0.5112 -0.3230
  144MOL   C20037666   2.032   4.694   1.468 -0.0659 -0.4167  0.0402
  144MOL   C20137667   1.975   4.900   1.324  0.8284 -0.2903 -0.2160
  144MOL   H20237668   1.814   4.544   1.480 -1.1069  1.6339  0.5166
  144MOL   H20337669   1.663   4.569   1.406  0.1749 -0.4168  2.1721
  144MOL   H20437670   1.760   4.721   1.248 -1.7438 -1.4625  0.9222
  144MOL   H20537671   1.999   4.598   1.508  1.1519 -0.2994  1.3441
  144MOL   H20637672   2.072   4.750   1.553 -0.9299 -0.3588  0.4165
  144MOL   H20737673   2.119   4.693   1.403 -0.8447  0.6503 -1.0385
  144MOL   H20837674   2.074   4.882   1.282  1.1267 -1.8645  1.0999
  144MOL   H20937675   1.988   4.968   1.408  0.1110 -0.8402  0.3557
  144MOL   C21037676   1.887   4.961   1.215 -0.0036  0.5120  0.5707
  144MOL   C21137677   1.920   5.108   1.204 -1.0112 -0.1696  0.3698
  144MOL   C21237678   1.982   5.164   1.099  0.6775  0.5188 -0.4925
  144MOL   C21337679   2.013   5.088   0.968 -0.5354 -0.0997 -0.3413
  144MOL   C21437680   2.010   5.311   1.100  0.6208  0.1484  0.0421
  144MOL   H21537681   1.784   4.942   1.244  1.0303 -1.5217  3.0830
  144MOL   H21637682   1.901   4.899   1.127 -0.4798 -0.8860  1.4616
  144MOL   H21737683   1.903   5.184   1.279 -0.1139 -0.5942  1.0196
  144MOL   H21837684   1.978   4.984   0.970  1.1438 -0.6710  3.5295
  144MOL   H21937685   2.121   5.082   0.955 -0.1265  0.2857  2.4835
  144MOL   H22037686   1.975   5.146   0.884  2.5889 -0.0059 -1.7614
  144MOL   H22137687   1.981   5.351   1.198 -0.9831  0.7309 -0.6511
  144MOL   H22237688   1.947   5.369   1.033 -0.5771 -0.6028  0.5106
  144MOL   C22337689   2.154   5.357   1.070 -0.0776  0.3003 -0.6775
  144MOL   C22437690   2.156   5.506   1.114  0.1588  0.0306  0.2811
  144MOL   C22537691   2.217   5.553   1.221 -0.2430 -0.3239 -0.3738
  144MOL   C22637692   2.300   5.469   1.310  0.2730  0.1398 -0.6170
  144MOL   C22737693   2.207   5.704   1.260 -0.6468  0.1273 -0.1430
  144MOL   H22837694   2.197   5.365   0.971 -0.9177  2.4489 -0.9027
  144MOL   H22937695   2.222   5.292   1.125 -0.2323  2.1871  1.8715
  144MOL   H23037696   2.110   5.575   1.045 -0.2835 -0.0796  0.4639
  144MOL   H23137697   2.239   5.403   1.372 -0.7068  0.0078 -1.7005
  144MOL   H23237698   2.358   5.526   1.382 -1.3091  1.6127 -0.4925
  144MOL   H23337699   2.371   5.414   1.248 -0.6504 -3.5127  1.4153
  144MOL   H23437700   2.169   5.763   1.176  0.2688  0.9726  0.0339
  144MOL   H23537701   2.302   5.743   1.297 -0.1771  0.3160 -1.4824
  144MOL   C23637702   2.116   5.726   1.383  0.5560 -0.0327 -1.1238
  144MOL   C23737703   1.970   5.686   1.365 -0.1807  0.4262 -0.5909
  144MOL   C23837704   1.861   5.761   1.356  0.7776  0.1624  0.2013
  144MOL   C23937705   1.861   5.915   1.368 -0.5473  0.5066 -0.1579
  144MOL   C24037706   1.730   5.697   1.352  0.4525 -0.4926 -0.7271
  144MOL   H24137707   2.128   5.830   1.412  2.8667 -0.4330 -0.5481
  144MOL   H24237708   2.163   5.668   1.462 -0.0565  0.1301 -0.6415
  144MOL   H24337709   1.949   5.580   1.363 -0.6229  0.5132 -0.6341
  144MOL   H24437710   1.904   5.948   1.274  0.4512 -1.9456 -0.6009
  144MOL   H24537711   1.926   5.953   1.447  0.5446 -1.3907 -0.1045
  144MOL   H24637712   1.759   5.948   1.388 -1.0617 -1.4277  0.5502
  144MOL   H24737713   1.669   5.736   1.433 -0.5762 -2.4074 -0.5521
  144MOL   H24837714   1.727   5.589   1.363 -0.1058 -0.3778  0.3218
  144MOL   C24937715   1.669   5.715   1.219 -0.1592  0.4823 -0.5215
  144MOL   C25037716   1.529   5.670   1.225  0.3417 -0.0060 -0.3132
  144MOL   C25137717   1.480   5.555   1.186 -0.5081 -0.3805 -0.3656
  144MOL   C25237718   1.568   5.449   1.113 -0.1491  0.4382  0.0816
  144MOL   C25337719   1.339   5.519   1.212 -0.0863 -0.1362  0.2697
  144MOL   H25437720   1.731   5.660   1.149 -0.2145  0.1754 -0.3303
  144MOL   H25537721   1.678   5.818   1.184 -1.1740  1.7228  2.6764
  144MOL   H25637722   1.453   5.718   1.285  0.7172  0.3413 -0.1152
  144MOL   H25737723   1.664   5.438   1.164 -1.4446 -3.3914  1.8807
  144MOL   H25837724   1.588   5.477   1.010 -1.2564  3.9307  0.7149
  144MOL   H25937725   1.528   5.349   1.100 -0.8246  0.7713 -0.4678
  144MOL   H26037726   1.323   5.438   1.282 -0.0233  0.1388  0.6054
  144MOL   H26137727   1.289   5.494   1.118 -0.2431 -0.4964  0.4494
  144MOL   H26237728   1.281   5.591   1.269 -0.3996 -0.4139  0.2988
  145MOL     C137729   7.343   2.183   2.835  0.4918  0.0771 -0.1228
  145MOL     C237730   7.469   2.140   2.913  0.6525 -0.3550 -0.5337
  145MOL     C337731   7.569   2.061   2.878  0.9738  0.0310 -0.4126
  145MOL     C437732   7.563   1.993   2.742 -0.1318 -0.2948 -0.2686
  145MOL     C537733   7.680   2.018   2.974  0.8914 -0.3538  0.5504
  145MOL     H637734   7.254   2.143   2.883  1.0787 -1.4973 -0.2967
  145MOL     H737735   7.348   2.292   2.844 -0.3421  0.0195  1.1887
  145MOL     H837736   7.478   2.180   3.013 -0.9561  1.2516 -1.0047
  145MOL     H937737   7.585   2.071   2.669  0.9920  0.9901  1.4065
  145MOL    H1037738   7.467   1.947   2.717 -0.3755 -0.0200  0.1440
  145MOL    H1137739   7.643   1.920   2.733 -0.2642 -0.4403 -0.2867
  145MOL    H1237740   7.689   2.084   3.060  0.7825 -0.1991  0.4441
  145MOL    H1337741   7.772   2.016   2.916  1.2527  1.6229  1.0290
  145MOL    H1437742   7.350   2.162   2.729  1.3458 -1.7100  0.2661
  145MOL    C1537743   7.645   1.876   3.031 -0.0950 -0.2563  0.9465
  145MOL    C1637744   7.755   1.817   3.111 -0.2241  0.5676  0.1556
  145MOL    C1737745   7.851   1.730   3.075  0.2480 -0.4402 -0.4856
  145MOL    C1837746   7.860   1.676   2.936  0.4460  0.9480 -1.1419
  145MOL    C1937747   0.083   1.680   3.165  0.3065  0.6205 -0.5152
  145MOL    H2037748   7.615   1.795   2.965  0.7092  0.5969 -0.4737
  145MOL    H2137749   7.559   1.886   3.098 -0.1054  0.2524  0.8595
  145MOL    H2237750   7.765   1.861   3.210  0.3953 -1.1079  0.8564
  145MOL    H2337751   7.860   1.567   2.932 -0.7770  0.9232 -0.7318
  145MOL    H2437752   0.077   1.718   2.922  0.3912  1.2209 -0.6970
  145MOL    H2537753   7.783   1.718   2.871 -0.4732 -0.5393 -1.0432
  145MOL    H2637754   0.180   1.702   3.122  1.6888  1.1204  2.7327
  145MOL    H2737755   0.071   1.575   3.189 -2.4994  0.5906 -1.7681
  145MOL    C2837756   0.096   1.741   3.307 -0.1644 -0.2645  0.3625
  145MOL    C2937757   0.211   1.668   3.385  0.6906  0.4530 -0.3595
  145MOL    C3037758   0.312   1.729   3.448 -0.0583  0.1523  0.1440
  145MOL    C3137759   0.334   1.878   3.456 -0.5382  0.7515 -0.4366
  145MOL    C3237760   0.426   1.644   3.511  0.0981  0.2070 -0.3897
  145MOL    H3337761   0.004   1.720   3.361 -0.2900 -2.2798 -0.6008
  145MOL    H3437762   0.103   1.849   3.296 -0.5200 -0.4890 -2.3527
  145MOL    H3537763   0.216   1.560   3.393 -0.7317  0.2953 -1.2803
  145MOL    H3637764   0.414   1.893   3.384  0.4835  0.5114  0.6194
  145MOL    H3737765   0.367   1.912   3.555  0.8217  1.0985 -0.9997
  145MOL    H3837766   0.255   1.950   3.435  0.0676  1.1250 -1.4609
  145MOL    H3937767   0.517   1.672   3.458  1.2213 -0.4088  1.1637
  145MOL    H4037768   0.408   1.537   3.502  0.7307  0.1803 -1.4594
  145MOL    C4137769   0.449   1.668   3.657 -0.0119  0.3928  0.3340
  145MOL    C4237770   0.551   1.568   3.716 -0.1711 -0.1859  0.5751
  145MOL    C4337771   0.636   1.590   3.812  0.2075 -0.2750 -0.5282
  145MOL    C4437772   0.635   1.725   3.889  0.3141 -0.0832 -0.9264
  145MOL    C4537773   0.738   1.493   3.875  0.3332 -0.4139  0.3568
  145MOL    H4637774   0.347   1.670   3.695 -1.4236  1.1113 -3.2677
  145MOL    H4737775   0.486   1.770   3.661  0.6790  0.2757 -2.1282
  145MOL    H4837776   0.551   1.469   3.672  1.1919 -0.1696  0.5125
  145MOL    H4937777   0.551   1.788   3.860  0.4577  1.3528  1.6837
  145MOL    H5037778   0.735   1.766   3.872  0.2044  1.3150  1.5680
  145MOL    H5137779   0.624   1.704   3.995  3.0047 -1.4984 -0.8685
  145MOL    H5237780   0.705   1.480   3.978 -3.0953 -2.5902 -0.9319
  145MOL    H5337781   0.836   1.539   3.864  0.4739 -0.8503 -0.2529
  145MOL    C5437782   0.751   1.357   3.803  0.2647  0.0709  0.4272
  145MOL    C5537783   0.810   1.379   3.665 -0.3453 -0.5817  0.1941
  145MOL    C5637784   0.773   1.316   3.552  0.2268  0.4535  1.0082
  145MOL    C5737785   0.646   1.225   3.548 -0.1478 -0.0676  1.1500
  145MOL    C5837786   0.828   1.362   3.424 -0.0296  0.3927  1.3341
  145MOL    H5937787   0.652   1.312   3.795  0.4039  0.0257 -1.3596
  145MOL    H6037788   0.809   1.284   3.860  0.8985  1.3622  1.4542
  145MOL    H6137789   0.898   1.442   3.655 -1.8341  1.6729  0.9370
  145MOL    H6237790   0.613   1.181   3.642 -1.3563 -0.7170  0.4385
  145MOL    H6337791   0.657   1.137   3.484 -2.8251  0.6102 -0.3093
  145MOL    H6437792   0.568   1.283   3.500  1.3328  0.7146 -0.3571
  145MOL    H6537793   0.887   1.451   3.445 -0.0504  0.1437  2.4768
  145MOL    H6637794   0.746   1.404   3.367  1.3011  1.2805  0.0243
  145MOL    C6737795   0.895   1.253   3.346 -0.3008 -0.0100  0.4535
  145MOL    C6837796   0.939   1.298   3.201 -0.0758 -0.6018 -0.4640
  145MOL    C6937797   1.054   1.362   3.167  0.9429  0.8714  0.0010
  145MOL    C7037798   1.165   1.390   3.273 -0.1146 -0.1155  0.0289
  145MOL    C7137799   1.095   1.400   3.024  0.2987 -0.4400 -0.4347
  145MOL    H7237800   0.844   1.157   3.351  1.7811 -1.2607 -1.6384
  145MOL    H7337801   0.979   1.227   3.411 -0.7118 -2.9339 -0.1254
  145MOL    H7437802   0.868   1.278   3.121  0.0850  0.4190 -0.8761
  145MOL    H7537803   1.259   1.335   3.261 -0.2202 -0.1478 -0.6825
  145MOL    H7637804   1.139   1.367   3.376  1.5910 -1.4849  0.1909
  145MOL    H7737805   1.202   1.492   3.285  0.3306 -0.7158  4.2904
  145MOL    H7837806   1.203   1.406   3.009 -0.0740  2.5683 -2.3359
  145MOL    H7937807   1.079   1.507   3.014  0.1820 -0.4503 -0.3582
  145MOL    C8037808   1.035   1.319   2.912  0.8266  0.1197 -1.0409
  145MOL    C8137809   1.109   1.339   2.780  0.3448  0.0484 -0.3091
  145MOL    C8237810   1.059   1.323   2.658  0.2802  0.1660 -0.8641
  145MOL    C8337811   0.918   1.286   2.630 -0.0907 -0.3016  0.2072
  145MOL    C8437812   1.150   1.349   2.536  0.4186  0.0735 -0.1539
  145MOL    H8537813   0.930   1.342   2.894  1.0601  0.4445 -2.0207
  145MOL    H8637814   1.049   1.215   2.943 -0.7542 -0.6551 -2.8719
  145MOL    H8737815   1.211   1.375   2.783  0.9926 -1.8338  0.9447
  145MOL    H8837816   0.869   1.217   2.699 -1.5016  0.8048  0.3317
  145MOL    H8937817   0.910   1.237   2.533  0.8237  0.6850 -0.3637
  145MOL    H9037818   0.873   1.385   2.629 -0.8077 -0.6160  0.4104
  145MOL    H9137819   1.120   1.273   2.465  0.3624 -0.0980  0.0529
  145MOL    H9237820   1.258   1.345   2.555  0.4607  2.9642  0.4620
  145MOL    C9337821   1.121   1.482   2.465  0.8900  0.5817  0.2658
  145MOL    C9437822   1.173   1.468   2.325  0.1629  0.6726 -0.1292
  145MOL    C9537823   1.300   1.492   2.287  0.2302  0.4855  0.0639
  145MOL    C9637824   1.409   1.547   2.383 -0.2283  0.2916  1.3998
  145MOL    C9737825   1.350   1.483   2.144 -0.1102  0.6593 -0.1659
  145MOL    H9837826   1.150   1.574   2.516 -0.9165  0.3993  1.6424
  145MOL    H9937827   1.013   1.483   2.459  0.7791 -3.2783  0.1979
  145MOL   H10037828   1.102   1.433   2.251 -1.5706 -0.8000  2.1649
  145MOL   H10137829   1.368   1.573   2.481 -0.2265 -0.4913  1.6109
  145MOL   H10237830   1.456   1.631   2.331 -1.5482  0.0864 -0.1345
  145MOL   H10337831   1.486   1.470   2.388 -0.6433 -0.1833  0.5709
  145MOL   H10437832   1.387   1.584   2.123 -0.4381  0.9231  0.4816
  145MOL   H10537833   1.271   1.455   2.074  0.0293  1.6212 -0.7210
  145MOL   C10637834   1.459   1.376   2.124  0.0265 -0.0033  0.6548
  145MOL   C10737835   1.476   1.334   1.982  0.5190  0.3121  0.2325
  145MOL   C10837836   1.394   1.252   1.908  0.7029  0.9275  0.2953
  145MOL   C10937837   1.265   1.196   1.964 -0.5060 -0.7058 -0.6686
  145MOL   C11037838   1.409   1.217   1.760  0.2215 -0.2088 -0.2162
  145MOL   H11137839   1.430   1.284   2.176  0.6499 -1.6280 -1.7489
  145MOL   H11237840   1.553   1.399   2.173  0.5086 -0.9595  0.2002
  145MOL   H11337841   1.560   1.384   1.935 -0.5756  1.8603 -0.1202
  145MOL   H11437842   1.245   1.101   1.914 -0.5971 -0.8231 -0.4121
  145MOL   H11537843   1.178   1.259   1.947 -0.7687 -0.2535  2.0898
  145MOL   H11637844   1.278   1.167   2.068  0.5146  3.4616  0.4673
  145MOL   H11737845   1.388   1.112   1.739 -0.8570  0.5289 -3.1355
  145MOL   H11837846   1.513   1.235   1.732  0.5957  0.1914  1.3788
  145MOL   C11937847   1.322   1.314   1.670 -0.1693  0.3909  0.1991
  145MOL   C12037848   1.296   1.260   1.527 -0.3732 -0.6784  0.4865
  145MOL   C12137849   1.284   1.330   1.410 -0.1996 -0.9065  0.2437
  145MOL   C12237850   1.303   1.478   1.391 -0.0093 -0.0972  0.8114
  145MOL   C12337851   1.249   1.251   1.286  0.5610  0.5217  0.4641
  145MOL   H12437852   1.363   1.414   1.666 -0.5576  0.4558 -2.9461
  145MOL   H12537853   1.223   1.331   1.713 -0.3674  0.2295 -0.1959
  145MOL   H12637854   1.278   1.153   1.527  0.7443 -0.8920 -1.3022
  145MOL   H12737855   1.405   1.516   1.387  0.3516 -1.0655  0.4842
  145MOL   H12837856   1.248   1.535   1.465  0.3500 -0.1800  1.1483
  145MOL   H12937857   1.259   1.506   1.296  0.8285 -1.2299  0.0674
  145MOL   H13037858   1.152   1.288   1.255  0.1790  0.1316  1.1844
  145MOL   H13137859   1.242   1.144   1.308 -0.3378  0.6249  0.7047
  145MOL   C13237860   1.356   1.254   1.176  0.4214  0.1027 -0.2175
  145MOL   C13337861   1.319   1.163   1.061  0.2337  0.9299 -0.1963
  145MOL   C13437862   1.292   1.194   0.931 -0.6658 -0.1108 -0.2433
  145MOL   C13537863   1.291   1.332   0.875 -0.4719 -1.0448 -0.8942
  145MOL   C13637864   1.242   1.090   0.835  1.1906 -0.1895  0.1150
  145MOL   H13737865   1.450   1.214   1.213  0.2126  0.5866  0.8401
  145MOL   H13837866   1.376   1.355   1.140 -0.3168 -0.3874 -2.0797
  145MOL   H13937867   1.328   1.058   1.085  0.8134  1.1716  0.6538
  145MOL   H14037868   1.324   1.338   0.772 -0.8265  1.5714 -0.8855
  145MOL   H14137869   1.354   1.401   0.930 -0.3053  0.2819 -2.7099
  145MOL   H14237870   1.188   1.368   0.878  0.4481  1.6240 -0.0003
  145MOL   H14337871   1.261   0.990   0.873 -0.5318 -0.2623  0.8097
  145MOL   H14437872   1.299   1.089   0.743  0.1128 -2.2605 -0.5656
  145MOL   C14537873   1.086   1.097   0.819  0.7211 -0.2359  0.3243
  145MOL   C14637874   1.023   0.980   0.746 -0.2929 -0.5124 -0.0375
  145MOL   C14737875   0.891   0.958   0.732 -0.9766  0.1406 -0.1842
  145MOL   C14837876   0.787   1.048   0.796 -0.2903  0.1392  0.8069
  145MOL   C14937877   0.837   0.839   0.667 -0.2188 -0.0757  0.0018
  145MOL   H15037878   1.049   1.186   0.768  2.7401  0.1559 -0.4797
  145MOL   H15137879   1.052   1.093   0.923 -1.0034 -1.8475 -0.2687
  145MOL   H15237880   1.091   0.910   0.701  0.8921  0.0917  0.7778
  145MOL   H15337881   0.734   0.996   0.875 -0.2676  0.4031  0.9959
  145MOL   H15437882   0.712   1.062   0.718  2.3592 -2.6937 -2.4581
  145MOL   H15537883   0.823   1.145   0.830  4.6599 -1.2883  0.1142
  145MOL   H15637884   0.750   0.807   0.724 -0.8617  1.0654 -0.3323
  145MOL   H15737885   0.911   0.760   0.675 -1.9251 -1.4969  2.3343
  145MOL   C15837886   0.820   0.845   0.512  0.4674  0.3121 -0.4579
  145MOL   C15937887   0.716   0.947   0.463  0.2685 -0.1933 -0.0057
  145MOL   C16037888   0.738   1.063   0.399  0.1071  0.2958  0.0495
  145MOL   C16137889   0.872   1.126   0.377  0.4034  0.1676  0.1454
  145MOL   C16237890   0.620   1.150   0.343  0.0174 -0.2508 -0.2620
  145MOL   H16337891   0.789   0.747   0.475  1.0390 -0.0276 -0.0410
  145MOL   H16437892   0.917   0.863   0.466  0.4117  0.8130 -0.3757
  145MOL   H16537893   0.616   0.910   0.474  0.3529 -0.3550  0.2220
  145MOL   H16637894   0.889   1.138   0.270  0.5273 -1.2080  0.0026
  145MOL   H16737895   0.956   1.070   0.418  1.5485  1.3630 -0.5177
  145MOL   H16837896   0.877   1.222   0.428  2.1666  1.6747 -2.7780
  145MOL   H16937897   0.531   1.094   0.373 -0.3344  0.3670 -0.1547
  145MOL   H17037898   0.633   1.157   0.235 -0.2050 -0.6163 -0.3144
  145MOL   C17137899   0.609   1.292   0.404  0.2998  1.2190  0.7556
  145MOL   C17237900   0.482   1.363   0.362 -0.1658  0.2789 -0.2497
  145MOL   C17337901   0.361   1.377   0.423 -0.5862 -0.4393  0.1068
  145MOL   C17437902   0.324   1.298   0.544  0.0561 -0.0249 -0.4888
  145MOL   C17537903   0.251   1.452   0.356  0.2351 -0.5441  0.1545
  145MOL   H17637904   0.692   1.356   0.373  0.2664  0.9130  0.0255
  145MOL   H17737905   0.609   1.286   0.513  0.7650  2.1318  0.8129
  145MOL   H17837906   0.506   1.427   0.277  0.3160  0.3109 -0.0923
  145MOL   H17937907   0.313   1.357   0.635 -0.3982 -0.0123 -0.5519
  145MOL   H18037908   0.401   1.224   0.565 -0.2388  0.2614  1.6532
  145MOL   H18137909   0.231   1.241   0.534 -0.2446  0.5379 -0.9843
  145MOL   H18237910   0.158   1.395   0.351 -0.0236 -0.1334  0.2539
  145MOL   H18337911   0.274   1.459   0.250  0.0618 -2.9489 -0.0639
  145MOL   C18437912   0.239   1.596   0.420 -0.2173  0.2176  0.0121
  145MOL   C18537913   0.143   1.682   0.342 -0.5262 -0.3440  0.0502
  145MOL   C18637914   0.035   1.746   0.395  0.4388  1.4715  0.2402
  145MOL   C18737915   7.871   1.730   0.537  0.7174  0.5717  0.3655
  145MOL   C18837916   7.825   1.844   0.315 -0.8895  0.0101  0.7347
  145MOL   H18937917   0.333   1.645   0.442 -0.5408  0.9021 -0.1117
  145MOL   H19037918   0.202   1.570   0.520 -2.0137  0.2140 -0.6239
  145MOL   H19137919   0.176   1.710   0.243 -1.7465 -0.2319 -0.3250
  145MOL   H19237920   0.059   1.693   0.610  0.1644  0.8146  1.0256
  145MOL   H19337921   7.790   1.657   0.529  0.8567  0.4851 -0.2786
  145MOL   H19437922   7.828   1.823   0.575  1.3131  0.6344  0.8859
  145MOL   H19537923   7.847   1.941   0.360 -1.5810  0.3997  0.2442
  145MOL   H19637924   7.721   1.819   0.335 -0.9938 -0.6086 -0.5311
  145MOL   C19737925   7.862   1.839   0.163 -0.0733 -0.1987 -0.4135
  145MOL   C19837926   7.775   1.925   0.075  0.4972 -0.1992  0.1543
  145MOL   C19937927   7.825   1.997   7.856  0.4194  0.0150  0.4683
  145MOL   C20037928   0.084   1.987   7.811 -0.7277 -0.4164  0.3973
  145MOL   C20137929   7.734   2.089   7.782 -0.2268  0.4542  0.2960
  145MOL   H20237930   7.863   1.743   0.112 -2.8721  0.2229 -1.3727
  145MOL   H20337931   0.078   1.883   0.156  0.0861 -0.4895 -0.0164
  145MOL   H20437932   7.671   1.939   0.101  0.5268  0.8316 -0.2404
  145MOL   H20537933   0.146   2.074   7.830  1.9062 -1.8273 -1.4128
  145MOL   H20637934   0.081   1.969   7.703  1.0511  1.8543 -0.0699
  145MOL   H20737935   0.143   1.907   7.857 -0.4749 -0.8969 -0.7398
  145MOL   H20837936   7.640   2.085   7.836  0.7516 -1.8046  1.9517
  145MOL   H20937937   7.729   2.047   7.681 -1.9213 -1.6740  1.2208
  145MOL   C21037938   7.783   2.235   7.770 -0.3363 -0.1932  0.2502
  145MOL   C21137939   7.690   2.331   7.698  0.3232 -0.0154  0.1300
  145MOL   C21237940   7.717   2.425   7.601  0.7953 -0.0661  0.2362
  145MOL   C21337941   7.843   2.447   7.523  0.3452 -0.3230 -0.9772
  145MOL   C21437942   7.617   2.527   7.551  0.5172 -0.6135  0.7540
  145MOL   H21537943   7.880   2.237   7.720 -0.7657  0.0753 -0.5903
  145MOL   H21637944   7.783   2.282   7.868  1.4184  2.9722 -1.2024
  145MOL   H21737945   7.587   2.334   7.732  0.2584 -0.6747  0.0105
  145MOL   H21837946   7.875   2.550   7.530 -1.6982  0.2892 -0.2784
  145MOL   H21937947   7.838   2.427   7.416  0.7545 -0.9013 -0.8902
  145MOL   H22037948   0.040   2.387   7.568  0.6671  0.5535 -0.3708
  145MOL   H22137949   7.583   2.501   7.450 -0.5204  2.2484  0.3256
  145MOL   H22237950   7.655   2.628   7.538 -0.7153 -0.1573  0.6259
  145MOL   C22337951   7.493   2.553   7.638  1.1352 -0.5361  0.7250
  145MOL   C22437952   7.428   2.685   7.606 -0.1271 -0.0954 -1.0302
  145MOL   C22537953   7.315   2.708   7.538 -0.3130 -0.3088  0.3265
  145MOL   C22637954   7.224   2.595   7.507  0.0191  0.1649 -0.7723
  145MOL   C22737955   7.267   2.852   7.514 -0.0203  0.5444  0.1325
  145MOL   H22837956   7.528   2.558   7.741 -0.4665  0.7622  1.2279
  145MOL   H22937957   7.429   2.466   7.629 -2.0281  1.5498  2.1476
  145MOL   H23037958   7.481   2.773   7.638 -1.4202  0.4702 -0.4410
  145MOL   H23137959   7.222   2.513   7.579  0.6888  1.7156  1.0481
  145MOL   H23237960   7.252   2.570   7.404 -0.3328 -1.2359 -0.5317
  145MOL   H23337961   7.125   2.640   7.501  0.6759  1.7775  0.1645
  145MOL   H23437962   7.313   2.932   7.572  0.5799  0.8977 -0.8179
  145MOL   H23537963   7.171   2.861   7.565  0.2582  0.3640  0.6831
  145MOL   C23637964   7.252   2.878   7.359 -0.4074  0.1639 -0.1946
  145MOL   C23737965   7.152   2.980   7.333 -0.4889  0.4315  0.1860
  145MOL   C23837966   7.170   3.119   7.326  0.6798  0.5382  0.6326
  145MOL   C23937967   7.304   3.175   7.345 -0.8186 -0.2660 -0.4638
  145MOL   C24037968   7.057   3.223   7.305  0.7266 -0.1145  0.3558
  145MOL   H24137969   7.231   2.782   7.310  0.4661  0.1966 -0.6417
  145MOL   H24237970   7.352   2.890   7.316 -1.0107  0.6214 -1.4857
  145MOL   H24337971   7.057   2.931   7.320  0.3595 -0.8969 -1.2107
  145MOL   H24437972   7.316   3.261   7.278 -0.4424  0.3086  0.3342
  145MOL   H24537973   7.383   3.106   7.315  0.2835 -0.1782  2.0991
  145MOL   H24637974   7.327   3.220   7.441  0.1050  1.4665 -1.4770
  145MOL   H24737975   7.090   3.317   7.261 -1.3435  0.1863 -0.6427
  145MOL   H24837976   7.026   3.257   7.404  0.2318  0.6778 -0.0663
  145MOL   C24937977   6.937   3.170   7.228 -0.0673  0.4873  0.2939
  145MOL   C25037978   6.821   3.273   7.225 -0.2983 -1.4110 -0.3231
  145MOL   C25137979   6.693   3.233   7.219  0.5900 -0.2432 -0.3623
  145MOL   C25237980   6.641   3.086   7.231 -1.2128  0.4058 -0.0885
  145MOL   C25337981   6.578   3.328   7.207 -0.5166 -0.0412  0.9556
  145MOL   H25437982   6.900   3.082   7.280  2.3038 -0.5408  0.2900
  145MOL   H25537983   6.955   3.141   7.124  0.3127 -0.1094  0.5225
  145MOL   H25637984   6.851   3.375   7.205 -1.8698 -0.9281 -0.2329
  145MOL   H25737985   6.651   3.051   7.334 -1.6560 -1.3415 -0.6204
  145MOL   H25837986   6.697   3.018   7.166 -0.4687  0.9397 -0.0133
  145MOL   H25937987   6.537   3.060   7.213 -0.7414 -3.6464  2.2880
  145MOL   H26037988   6.501   3.303   7.134  0.4311  2.5682 -1.0232
  145MOL   H26137989   6.610   3.431   7.193 -0.3945  0.0570  1.9797
  145MOL   H26237990   6.537   3.326   7.308 -0.8834  1.9650  0.8624
  146MOL     C137991   3.304   5.606   1.236 -0.8937  0.7369 -0.0532
  146MOL     C237992   3.242   5.693   1.341  0.2519 -0.2844 -0.2274
  146MOL     C337993   3.275   5.821   1.368 -0.4117 -0.1517 -0.5825
  146MOL     C437994   3.399   5.888   1.300  0.6149  0.5218  0.3120
  146MOL     C537995   3.211   5.909   1.464 -0.3597 -0.3824 -0.0323
  146MOL     H637996   3.380   5.663   1.184  0.5209 -0.6173  0.4925
  146MOL     H737997   3.352   5.520   1.283 -2.1473 -0.9606 -1.8228
  146MOL     H837998   3.154   5.651   1.387  0.0187 -0.0266 -0.4366
  146MOL     H937999   3.423   5.989   1.334 -2.0187  1.5081 -0.5912
  146MOL    H1038000   3.385   5.899   1.193  1.6778 -0.0330  0.1098
  146MOL    H1138001   3.487   5.831   1.327  0.7397  0.1339 -0.8754
  146MOL    H1238002   3.113   5.868   1.488  0.6517 -2.0669  1.3213
  146MOL    H1338003   3.189   6.010   1.429  0.7511  0.0211  0.4124
  146MOL    H1438004   3.222   5.588   1.167 -1.3439  0.5361  0.5285
  146MOL    C1538005   3.292   5.922   1.594 -0.4168 -0.2178  0.3356
  146MOL    C1638006   3.216   6.006   1.688 -0.5741 -0.2437  0.0232
  146MOL    C1738007   3.243   6.127   1.742  0.1158  0.1746  0.1015
  146MOL    C1838008   3.371   6.206   1.720 -0.2747  1.0445 -0.6385
  146MOL    C1938009   3.141   6.199   1.818 -0.0034 -0.1152  0.1621
  146MOL    H2038010   3.391   5.968   1.584  0.9659 -2.4258  3.1459
  146MOL    H2138011   3.304   5.821   1.632  1.6485 -0.2780 -0.3780
  146MOL    H2238012   3.118   5.971   1.716 -0.7992  1.9912  2.2057
  146MOL    H2338013   3.450   6.167   1.656 -0.7145  1.2134 -1.2816
  146MOL    H2438014   3.414   6.226   1.818 -2.9358 -0.1456  0.8217
  146MOL    H2538015   3.353   6.307   1.682 -0.8583 -0.1031 -3.5108
  146MOL    H2638016   3.193   6.262   1.890  0.1709 -0.4504  0.3302
  146MOL    H2738017   3.087   6.134   1.888 -0.8525 -1.3997 -1.6189
  146MOL    C2838018   3.049   6.288   1.730 -0.3978  0.2688  0.1158
  146MOL    C2938019   2.986   6.213   1.614 -0.9444  0.3472 -0.1251
  146MOL    C3038020   2.860   6.209   1.576  0.3766  0.6376 -0.3373
  146MOL    C3138021   2.750   6.261   1.657  0.2964 -0.3921  0.6207
  146MOL    C3238022   2.813   6.139   1.453  0.1921 -0.2508 -0.7601
  146MOL    H3338023   3.113   6.376   1.717 -0.4394  0.0846 -1.4074
  146MOL    H3438024   2.972   6.329   1.796  1.3955  0.0850  2.3800
  146MOL    H3538025   3.057   6.168   1.547 -1.5502  0.0890 -0.5954
  146MOL    H3638026   2.758   6.209   1.752 -0.8043 -0.5502  0.6309
  146MOL    H3738027   2.652   6.233   1.617  1.4430 -1.6336 -1.4090
  146MOL    H3838028   2.752   6.370   1.664  1.6534 -0.4066  0.6284
  146MOL    H3938029   2.901   6.121   1.391  1.6877  0.0091  1.2263
  146MOL    H4038030   2.746   6.208   1.402 -0.9882 -1.2141 -0.5159
  146MOL    C4138031   2.738   6.011   1.480 -0.1541  0.6341 -0.0408
  146MOL    C4238032   2.680   5.950   1.349  0.5193  0.3055 -0.3457
  146MOL    C4338033   2.734   5.843   1.282 -0.3364 -0.0253 -0.1024
  146MOL    C4438034   2.857   5.779   1.342  0.9369 -0.8626 -0.4254
  146MOL    C4538035   2.674   5.787   1.150 -0.3066 -0.5979 -0.3363
  146MOL    H4638036   2.659   6.027   1.553  0.8269  0.1701  1.1535
  146MOL    H4738037   2.789   5.934   1.538 -2.5000 -1.2445 -0.4202
  146MOL    H4838038   2.602   6.013   1.308 -0.2758 -0.2618  0.2964
  146MOL    H4938039   2.897   5.703   1.276  0.8153 -0.6096 -0.7918
  146MOL    H5038040   2.821   5.738   1.436  1.5404 -1.1705 -0.3291
  146MOL    H5138041   2.935   5.851   1.370 -1.0935  2.1433 -2.1401
  146MOL    H5238042   2.655   5.684   1.180 -1.4328 -0.9651 -2.1953
  146MOL    H5338043   2.761   5.775   1.086  0.2492 -1.3921  0.5543
  146MOL    C5438044   2.550   5.853   1.095  0.1854 -0.0129 -0.2802
  146MOL    C5538045   2.482   5.758   0.998 -0.0080 -0.0392 -0.6770
  146MOL    C5638046   2.423   5.782   0.882  0.2535  0.1855  0.0531
  146MOL    C5738047   2.411   5.913   0.809 -0.4155 -0.3556  0.0810
  146MOL    C5838048   2.366   5.675   0.800 -0.3791  0.0142 -0.4891
  146MOL    H5938049   2.591   5.940   1.043 -0.5261  0.9229  0.7173
  146MOL    H6038050   2.482   5.890   1.172  1.6679  1.4258  0.3868
  146MOL    H6138051   2.479   5.656   1.034 -2.6418  0.2463  0.0042
  146MOL    H6238052   2.313   5.943   0.772  0.1776  0.5708 -0.7679
  146MOL    H6338053   2.478   5.905   0.724 -0.9194  0.6685 -0.4154
  146MOL    H6438054   2.442   5.995   0.875 -0.7041 -0.9014  0.9071
  146MOL    H6538055   2.264   5.710   0.781 -0.2128  0.2601 -0.9213
  146MOL    H6638056   2.363   5.589   0.868 -0.0492 -1.4918 -2.3469
  146MOL    C6738057   2.449   5.644   0.674  0.2128 -0.0162  0.1063
  146MOL    C6838058   2.383   5.543   0.578 -0.5377  0.8864 -0.0838
  146MOL    C6938059   2.447   5.437   0.516  1.1728  0.0807 -0.3843
  146MOL    C7038060   2.582   5.391   0.543  0.5282  0.2880 -1.0382
  146MOL    C7138061   2.365   5.345   0.429  0.3765  0.1390 -0.1029
  146MOL    H7238062   2.544   5.601   0.704 -0.8972 -0.5577  2.9733
  146MOL    H7338063   2.462   5.734   0.613 -1.3203  0.2313  0.1206
  146MOL    H7438064   2.279   5.559   0.551 -0.6832  0.8808  0.4552
  146MOL    H7538065   2.589   5.320   0.626 -0.8798 -1.4928 -2.3810
  146MOL    H7638066   2.656   5.470   0.548  2.1557 -1.1483 -1.8289
  146MOL    H7738067   2.613   5.331   0.458 -1.4266  0.0911 -1.6330
  146MOL    H7838068   2.421   5.305   0.344  0.7590  0.3002  0.0703
  146MOL    H7938069   2.284   5.404   0.386 -0.7669  0.0399  1.8382
  146MOL    C8038070   2.314   5.221   0.507  0.2668 -0.1618  0.7254
  146MOL    C8138071   2.261   5.119   0.410 -0.0510  0.5805 -0.1856
  146MOL    C8238072   2.144   5.056   0.414  0.1403 -0.0770  0.2877
  146MOL    C8338073   2.039   5.086   0.524  0.3036  0.2955 -0.3910
  146MOL    C8438074   2.095   4.957   0.306 -0.4392  0.4204 -0.2964
  146MOL    H8538075   2.240   5.252   0.582  0.7507  0.1432  1.0798
  146MOL    H8638076   2.400   5.176   0.557 -0.8636 -3.0764  0.1601
  146MOL    H8738077   2.338   5.095   0.338 -0.4412  0.6784 -0.6375
  146MOL    H8838078   1.946   5.103   0.469  0.7067  0.5169 -1.0192
  146MOL    H8938079   2.047   5.173   0.589 -0.0623  0.5844 -0.7301
  146MOL    H9038080   2.026   4.997   0.585 -2.9463  0.0147 -1.3779
  146MOL    H9138081   2.050   4.864   0.341  1.6438 -1.5468 -2.6387
  146MOL    H9238082   2.172   4.937   0.231  0.2845  0.9623  0.3068
  146MOL    C9338083   1.986   5.013   0.214 -0.1477 -0.5419  0.1055
  146MOL    C9438084   1.942   4.898   0.116  0.8596  0.1412 -0.1850
  146MOL    C9538085   1.825   4.834   0.114 -0.3192  0.5212  0.3378
  146MOL    C9638086   1.710   4.866   0.203  0.0068  0.2618 -0.5986
  146MOL    C9738087   1.791   4.715   0.022  0.2776 -0.2653 -0.0145
  146MOL    H9838088   2.034   5.094   0.160 -3.2836  1.1067 -0.3440
  146MOL    H9938089   1.897   5.054   0.262 -0.2992 -0.9065  0.1450
  146MOL   H10038090   2.023   4.866   0.052  0.4296 -4.9228  1.5730
  146MOL   H10138091   1.609   4.877   0.163 -0.2229  0.0215 -0.0888
  146MOL   H10238092   1.733   4.957   0.259  1.2695 -0.8880  0.7899
  146MOL   H10338093   1.702   4.782   0.272  0.7535  0.5625 -0.1415
  146MOL   H10438094   1.697   4.739   7.856  0.9167 -1.2334 -1.7625
  146MOL   H10538095   1.777   4.625   0.082 -0.4385  0.9431  1.6861
  146MOL   C10638096   1.891   4.669   7.805  0.5582 -0.0067  0.1893
  146MOL   C10738097   1.908   4.779   7.695 -0.5504  0.0113  0.9072
  146MOL   C10838098   2.004   4.777   7.598  0.3408  0.5509 -0.0019
  146MOL   C10938099   2.122   4.676   7.597  0.0557 -0.1466 -0.2646
  146MOL   C11038100   2.024   4.868   7.479  1.0688  0.1554  0.0302
  146MOL   H11138101   1.857   4.574   7.765 -1.4900  0.9412 -0.3734
  146MOL   H11238102   1.979   4.655   7.868 -0.0483 -0.4635  0.9561
  146MOL   H11338103   1.824   4.843   7.669  0.1251  0.1016 -1.1805
  146MOL   H11438104   2.100   4.592   7.664 -1.3309  0.8292  0.5328
  146MOL   H11538105   2.216   4.727   7.620 -0.1775  0.0774  0.1935
  146MOL   H11638106   2.123   4.632   7.497 -1.6267  0.7362 -0.6835
  146MOL   H11738107   2.049   4.806   7.393  1.8107  0.7067 -0.1567
  146MOL   H11838108   2.106   4.935   7.504  0.9603  0.7309 -1.1177
  146MOL   C11938109   1.892   4.952   7.443  0.0539 -0.4337 -0.1482
  146MOL   C12038110   1.898   5.003   7.302 -0.1858 -0.5586  0.0486
  146MOL   C12138111   1.867   5.125   7.259 -0.4894  0.2855 -0.6102
  146MOL   C12238112   1.858   5.239   7.358 -0.3551  0.0066 -0.2707
  146MOL   C12338113   1.857   5.165   7.114  0.4605 -0.1936 -0.1622
  146MOL   H12438114   1.883   5.038   7.508 -2.4844 -0.0805 -0.9018
  146MOL   H12538115   1.802   4.893   7.461  0.4184 -0.1814  2.6615
  146MOL   H12638116   1.937   4.936   7.227 -1.0025 -0.0135 -0.8762
  146MOL   H12738117   1.813   5.329   7.316  0.0820  0.0193 -0.7079
  146MOL   H12838118   1.955   5.277   7.389 -0.7740  1.1169 -0.2893
  146MOL   H12938119   1.792   5.209   7.439 -0.5370 -0.9947 -0.7799
  146MOL   H13038120   1.769   5.222   7.086  0.9084  0.2054 -0.7559
  146MOL   H13138121   1.856   5.066   7.070 -0.2285 -0.5540  0.6620
  146MOL   C13238122   1.973   5.254   7.071 -0.0947  0.1640  0.6711
  146MOL   C13338123   1.990   5.239   6.918  0.4875  0.6596 -0.3336
  146MOL   C13438124   2.080   5.163   6.852  0.4314  0.0087 -0.3984
  146MOL   C13538125   2.182   5.072   6.924  0.1725  0.0020  0.4283
  146MOL   C13638126   2.085   5.138   6.708  0.4432 -0.0527 -0.1282
  146MOL   H13738127   2.065   5.233   7.125 -0.1070  0.4162  0.7925
  146MOL   H13838128   1.951   5.358   7.096 -1.4632 -0.1978  1.0238
  146MOL   H13938129   1.917   5.290   6.857  0.7059  1.1952 -0.1544
  146MOL   H14038130   2.281   5.088   6.880 -0.0624  1.6846  0.4789
  146MOL   H14138131   2.169   4.966   6.902  3.2928 -0.2408 -0.5709
  146MOL   H14238132   2.195   5.084   7.031  1.5726  1.2797  0.1328
  146MOL   H14338133   1.984   5.132   6.669 -0.5214 -0.7966  2.4095
  146MOL   H14438134   2.133   5.041   6.691  2.8535  0.9829  0.5662
  146MOL   C14538135   2.150   5.262   6.637 -0.4672  0.1604 -0.2106
  146MOL   C14638136   2.142   5.249   6.490 -0.2479  0.5690 -0.0408
  146MOL   C14738137   2.044   5.295   6.408 -0.2410 -0.1450 -0.2768
  146MOL   C14838138   1.925   5.378   6.458  0.6794 -0.6729 -0.6918
  146MOL   C14938139   2.049   5.272   6.256 -0.0919  0.6260 -0.2095
  146MOL   H15038140   2.256   5.259   6.662  0.0700  4.3517 -1.5057
  146MOL   H15138141   2.112   5.358   6.671  0.0439  0.8568 -1.5854
  146MOL   H15238142   2.218   5.189   6.442  1.0490  2.2718 -0.1766
  146MOL   H15338143   1.930   5.404   6.563 -0.9463 -0.4921 -0.6400
  146MOL   H15438144   1.832   5.326   6.434  1.6911 -1.1048 -3.9251
  146MOL   H15538145   1.927   5.470   6.399  0.7332 -0.4140 -0.2842
  146MOL   H15638146   2.150   5.243   6.228  0.3227  0.3841  1.4548
  146MOL   H15738147   2.028   5.361   6.197  1.8726  1.0554 -0.3103
  146MOL   C15838148   1.958   5.160   6.202  0.2246  0.4941 -0.0067
  146MOL   C15938149   1.971   5.022   6.270  0.1237 -0.0913 -0.5601
  146MOL   C16038150   1.881   4.954   6.343 -0.7187 -0.2085  0.6874
  146MOL   C16138151   1.749   5.024   6.396  0.8503 -0.0789 -0.4822
  146MOL   C16238152   1.909   4.809   6.387 -0.6965 -0.1113  0.1202
  146MOL   H16338153   1.960   5.153   6.094 -0.4252  3.0769 -0.2021
  146MOL   H16438154   1.856   5.197   6.209  0.1494  1.0280 -3.1676
  146MOL   H16538155   2.064   4.975   6.242  0.6839 -0.1165  1.2736
  146MOL   H16638156   1.750   5.022   6.505  1.4982  2.1983 -0.4340
  146MOL   H16738157   1.659   4.968   6.372 -0.7717  1.6336  1.4549
  146MOL   H16838158   1.725   5.127   6.369 -2.6541 -0.3072  1.5266
  146MOL   H16938159   1.977   4.764   6.316 -1.1745 -1.3754  0.4604
  146MOL   H17038160   1.819   4.749   6.375 -0.2981 -0.9468  1.2248
  146MOL   C17138161   1.960   4.804   6.523 -0.2312 -0.9643 -0.1155
  146MOL   C17238162   1.946   4.666   6.574  0.2220 -0.2094  0.7930
  146MOL   C17338163   1.859   4.612   6.656 -0.0090 -0.4004  0.4743
  146MOL   C17438164   1.739   4.690   6.707 -0.6268  0.0691  0.1879
  146MOL   C17538165   1.848   4.463   6.685 -0.1753 -0.7552 -1.0633
  146MOL   H17638166   1.898   4.862   6.592 -0.3030 -0.3289 -0.7042
  146MOL   H17738167   2.061   4.842   6.535 -1.6732  2.5307  2.1026
  146MOL   H17838168   2.026   4.599   6.546 -0.1235  0.2176 -1.2723
  146MOL   H17938169   1.763   4.721   6.809 -0.1621 -2.1336  0.7716
  146MOL   H18038170   1.654   4.622   6.719 -0.2157 -0.4232  0.3291
  146MOL   H18138171   1.711   4.777   6.648 -0.2889  0.9178  1.2646
  146MOL   H18238172   1.907   4.405   6.614 -1.6286 -2.2341 -1.0934
  146MOL   H18338173   1.746   4.429   6.668 -0.5749  0.0900 -0.3789
  146MOL   C18438174   1.893   4.439   6.831  0.1227 -0.0875 -0.5847
  146MOL   C18538175   1.866   4.300   6.867 -0.5328  0.6597  0.4499
  146MOL   C18638176   1.772   4.254   6.955  0.0006 -0.1140  0.1928
  146MOL   C18738177   1.692   4.353   7.034  0.4061 -0.0291  0.9932
  146MOL   C18838178   1.770   4.108   6.990 -0.2267 -0.3776 -0.3408
  146MOL   H18938179   1.847   4.508   6.901  0.7355 -0.5321  0.2543
  146MOL   H19038180   1.999   4.460   6.840 -0.2738  0.4756  3.2620
  146MOL   H19138181   1.942   4.234   6.827 -0.2707  0.9085  0.5371
  146MOL   H19238182   1.662   4.446   6.987  0.5161  0.8833  2.6701
  146MOL   H19338183   1.718   4.375   7.138 -1.5753  0.5146  1.4032
  146MOL   H19438184   1.594   4.305   7.040  1.0750 -1.7752 -1.4708
  146MOL   H19538185   1.859   4.050   6.965 -0.0795 -0.8359  1.1768
  146MOL   H19638186   1.686   4.073   6.929 -1.5023 -0.8040  1.5952
  146MOL   C19738187   1.735   4.072   7.139  0.5533 -0.8098  0.5639
  146MOL   C19838188   1.704   3.927   7.163 -0.1234  0.3008 -0.2420
  146MOL   C19938189   1.592   3.873   7.212 -0.5571  0.1236 -0.0545
  146MOL   C20038190   1.453   3.948   7.226  0.2520  1.0412 -0.3370
  146MOL   C20138191   1.591   3.730   7.257  0.1214  0.9798  0.8128
  146MOL   H20238192   1.671   4.141   7.195  0.4205  1.1861 -1.9596
  146MOL   H20338193   1.826   4.091   7.196  0.8845  1.0075 -0.5088
  146MOL   H20438194   1.790   3.863   7.171 -0.1652  0.3664  0.8554
  146MOL   H20538195   1.418   3.955   7.329  0.3708  0.7897 -0.2793
  146MOL   H20638196   1.373   3.911   7.161 -0.9729 -1.6293  2.5570
  146MOL   H20738197   1.458   4.054   7.202 -0.3126  0.9090 -1.0458
  146MOL   H20838198   1.668   3.676   7.201  0.1950  1.0967  0.8009
  146MOL   H20938199   1.494   3.687   7.232 -0.4790  1.1907  2.6781
  146MOL   C21038200   1.616   3.702   7.402  0.3646 -0.0113 -0.2144
  146MOL   C21138201   1.625   3.553   7.428 -0.4408  0.1252  0.2160
  146MOL   C21238202   1.574   3.483   7.533  0.3079  0.2760 -0.1299
  146MOL   C21338203   1.487   3.539   7.640  0.2394 -0.0418 -0.4409
  146MOL   C21438204   1.595   3.331   7.547  0.1579  0.1748  0.3178
  146MOL   H21538205   1.534   3.739   7.463  0.4769 -1.0520  0.5792
  146MOL   H21638206   1.705   3.750   7.442  0.3496 -1.8793  2.1626
  146MOL   H21738207   1.675   3.503   7.345 -3.1223 -1.6014 -0.4203
  146MOL   H21838208   1.518   3.513   7.742 -3.0081 -1.3988  0.2581
  146MOL   H21938209   1.383   3.506   7.631 -0.5440  1.2472  3.1962
  146MOL   H22038210   1.485   3.647   7.630  0.4343  0.2606  2.2991
  146MOL   H22138211   1.667   3.299   7.472  2.0897 -1.2096  2.6946
  146MOL   H22238212   1.499   3.279   7.551  0.5750 -0.6299 -0.0073
  146MOL   C22338213   1.669   3.277   7.677  0.3103 -0.5665  0.0516
  146MOL   C22438214   1.693   3.125   7.680 -0.0452  0.0329  0.8487
  146MOL   C22538215   1.665   3.038   7.777  0.5322 -0.3865 -0.4582
  146MOL   C22638216   1.587   3.072   0.022 -0.2101 -0.8411 -0.4280
  146MOL   C22738217   1.682   2.889   7.761  0.7624  0.6440  0.3070
  146MOL   H22838218   1.610   3.314   7.761  0.5521 -0.5615  0.2190
  146MOL   H22938219   1.763   3.329   7.691  1.0261 -1.5680 -1.0304
  146MOL   H23038220   1.741   3.079   7.594 -0.6146  0.8053  0.1064
  146MOL   H23138221   1.606   2.989   0.090 -1.1166 -1.9191 -1.4868
  146MOL   H23238222   1.481   3.086   0.001 -0.1926 -1.7781 -1.1739
  146MOL   H23338223   1.627   3.164   0.065  0.5181 -0.9682 -0.8320
  146MOL   H23438224   1.696   2.863   7.656 -0.2351 -0.1152  0.3560
  146MOL   H23538225   1.589   2.837   7.784 -0.2463  0.7447 -3.2376
  146MOL   C23638226   1.792   2.818   7.846  0.3503 -0.1978  0.3652
  146MOL   C23738227   1.806   2.669   7.824 -0.1327 -0.0535  0.2370
  146MOL   C23838228   1.923   2.602   7.829  0.1181 -0.9409 -0.3588
  146MOL   C23938229   2.056   2.662   7.859  0.9113 -0.8867 -0.0645
  146MOL   C24038230   1.921   2.451   7.796 -0.9192 -0.2747  0.1688
  146MOL   H24138231   1.764   2.842   0.066  0.3886  1.1265  0.0759
  146MOL   H24238232   1.889   2.865   7.833  0.7536 -0.6490  1.7180
  146MOL   H24338233   1.717   2.612   7.803 -0.1711 -1.3066  3.5053
  146MOL   H24438234   2.054   2.741   0.052 -1.7066  0.6546 -1.6711
  146MOL   H24538235   2.101   2.715   7.775  1.7873 -0.1522  0.8415
  146MOL   H24638236   2.126   2.584   0.004 -0.4273 -1.9655  0.3277
  146MOL   H24738237   1.818   2.415   7.789  0.3059 -3.5271 -2.4318
  146MOL   H24838238   1.970   2.400   7.879  2.6999  0.7972 -1.2171
  146MOL   C24938239   1.990   2.407   7.662 -0.4182 -0.4317 -0.2342
  146MOL   C25038240   2.012   2.252   7.653 -0.2831  0.2840  0.3446
  146MOL   C25138241   1.940   2.161   7.583 -0.3873 -0.0944  0.1484
  146MOL   C25238242   1.833   2.199   7.484  0.0581 -0.3600  0.0302
  146MOL   C25338243   1.965   2.014   7.588 -0.3523  0.4589  0.7313
  146MOL   H25438244   2.080   2.453   7.621 -1.2897 -0.5101 -2.2627
  146MOL   H25538245   1.919   2.430   7.584  0.0610 -1.5205 -1.0051
  146MOL   H25638246   2.081   2.218   7.728  2.4299 -1.4487 -2.8039
  146MOL   H25738247   1.733   2.174   7.520 -0.9429  0.4995 -2.0872
  146MOL   H25838248   1.843   2.139   7.393  1.6258  1.2220 -0.8620
  146MOL   H25938249   1.838   2.302   7.449 -1.0736 -0.9342 -1.8860
  146MOL   H26038250   1.883   1.957   7.632  0.3060 -0.4394  0.7892
  146MOL   H26138251   2.058   1.987   7.637  0.0591 -1.2494 -0.9446
  146MOL   H26238252   1.972   1.969   7.489 -3.0618  1.1005  0.1856
  147MOL     C138253   3.282   3.517   0.593  0.5693  0.9270  0.9887
  147MOL     C238254   3.338   3.651   0.533 -0.0072 -0.1358  0.4734
  147MOL     C338255   3.460   3.660   0.470 -0.2605 -0.8783 -0.8253
  147MOL     C438256   3.543   3.535   0.432 -0.1982 -0.1318 -0.0908
  147MOL     C538257   3.516   3.794   0.433 -0.8855 -0.4638 -0.7301
  147MOL     H638258   3.200   3.486   0.529  0.2419  4.1703 -0.2826
  147MOL     H738259   3.356   3.437   0.595 -0.2752  0.1586  2.0909
  147MOL     H838260   3.277   3.739   0.525 -0.7395 -0.7825 -1.4834
  147MOL     H938261   3.636   3.514   0.485 -1.6869 -1.0673  2.2299
  147MOL    H1038262   3.564   3.540   0.325 -1.6337 -0.3903 -0.3979
  147MOL    H1138263   3.475   3.450   0.434  1.7327 -1.6936  2.0518
  147MOL    H1238264   3.454   3.852   0.364  1.0430 -1.4667 -3.4022
  147MOL    H1338265   3.611   3.785   0.380 -0.3932  1.4083 -0.2098
  147MOL    H1438266   3.252   3.537   0.696 -1.5150  0.7351  0.4356
  147MOL    C1538267   3.561   3.886   0.548 -0.7393  0.3643  0.0648
  147MOL    C1638268   3.456   3.936   0.637  0.4014  0.0678 -0.1382
  147MOL    C1738269   3.425   3.886   0.756 -0.1898  0.4037 -1.0752
  147MOL    C1838270   3.495   3.763   0.815 -0.0999 -0.3013  0.2884
  147MOL    C1938271   3.305   3.938   0.827 -0.3027 -0.6279 -0.4966
  147MOL    H2038272   3.606   3.975   0.505 -1.2150 -0.1547 -1.5449
  147MOL    H2138273   3.637   3.838   0.611  0.2986 -1.8381 -2.7652
  147MOL    H2238274   3.405   4.025   0.605 -0.5030 -0.6146 -0.6082
  147MOL    H2338275   3.499   3.787   0.922 -1.2693  2.7988 -0.3268
  147MOL    H2438276   3.600   3.752   0.787 -0.0023  1.7111 -0.2065
  147MOL    H2538277   3.450   3.668   0.787  2.3521 -1.2117 -0.6837
  147MOL    H2638278   3.307   4.047   0.822  3.2028 -0.4370  2.8785
  147MOL    H2738279   3.298   3.914   0.933  1.0637  1.3239  0.0457
  147MOL    C2838280   3.172   3.899   0.762 -0.4302  0.6390  0.0081
  147MOL    C2938281   3.048   3.957   0.815  0.7269 -0.9191  0.6982
  147MOL    C3038282   2.929   3.952   0.758  0.6542  0.0963  0.2406
  147MOL    C3138283   2.906   3.916   0.613 -0.6884  0.0290  0.1644
  147MOL    C3238284   2.799   3.979   0.832 -0.4992 -1.1965  0.2013
  147MOL    H3338285   3.166   3.792   0.785 -2.2288  0.5028 -0.9878
  147MOL    H3438286   3.176   3.903   0.653  2.6568 -0.7619  0.0117
  147MOL    H3538287   3.051   3.982   0.920 -2.4089  1.1761  0.3579
  147MOL    H3638288   2.996   3.917   0.551 -1.0750  2.3598 -0.4064
  147MOL    H3738289   2.842   3.993   0.571  0.9700  2.0799  1.2756
  147MOL    H3838290   2.855   3.822   0.596 -0.4070 -0.1718  0.4156
  147MOL    H3938291   2.801   3.954   0.938 -0.5456  0.1446  0.5306
  147MOL    H4038292   2.714   3.927   0.789 -1.3171  2.0768 -2.2527
  147MOL    C4138293   2.762   4.130   0.818  0.3576 -0.5249 -0.5477
  147MOL    C4238294   2.623   4.166   0.869 -0.1588 -0.3144  0.2985
  147MOL    C4338295   2.551   4.273   0.836 -0.0167 -0.5231  0.3452
  147MOL    C4438296   2.614   4.390   0.760  0.2170 -1.1744  0.3972
  147MOL    C4538297   2.405   4.273   0.875  0.6278 -0.1145 -0.2262
  147MOL    H4638298   2.771   4.156   0.713 -1.4060 -0.3263 -0.6708
  147MOL    H4738299   2.838   4.182   0.876 -1.3341  1.3424  0.0706
  147MOL    H4838300   2.577   4.088   0.926  1.4984 -1.5295  0.0119
  147MOL    H4938301   2.620   4.375   0.652  1.5872 -0.5368  0.3810
  147MOL    H5038302   2.714   4.425   0.782  0.7227 -1.3575 -1.4972
  147MOL    H5138303   2.543   4.473   0.770  0.8577 -0.4013 -1.3109
  147MOL    H5238304   2.377   4.370   0.917 -2.0709 -0.2672 -1.5556
  147MOL    H5338305   2.374   4.189   0.936  2.1617 -1.8304 -1.7463
  147MOL    C5438306   2.317   4.265   0.751 -0.6205  0.4228  0.1471
  147MOL    C5538307   2.168   4.293   0.778  0.3907  0.5478 -0.2148
  147MOL    C5638308   2.068   4.202   0.784 -0.7024  0.4764 -0.3812
  147MOL    C5738309   2.088   4.046   0.774 -1.2422 -0.3843  0.1465
  147MOL    C5838310   1.934   4.252   0.825  0.7093 -0.2206  0.9806
  147MOL    H5938311   2.339   4.169   0.705 -1.2323 -0.1960  1.1243
  147MOL    H6038312   2.362   4.333   0.679  0.6141 -1.0251 -0.4658
  147MOL    H6138313   2.147   4.396   0.805 -1.0680 -0.3517  2.1788
  147MOL    H6238314   2.192   4.014   0.765 -1.0222 -0.0970  1.6199
  147MOL    H6338315   2.035   4.005   0.688 -1.0770  0.9385 -0.6064
  147MOL    H6438316   2.053   3.991   0.861 -0.8886 -2.0661 -0.7356
  147MOL    H6538317   1.856   4.189   0.782  1.4935 -0.0291 -0.7386
  147MOL    H6638318   1.912   4.349   0.781  0.8145 -0.8565 -0.4835
  147MOL    C6738319   1.913   4.258   0.980  0.1119 -0.0300 -0.7827
  147MOL    C6838320   1.878   4.124   1.046 -0.0462  0.1617 -0.7628
  147MOL    C6938321   1.956   4.051   1.129  0.1789  0.3625 -0.4007
  147MOL    C7038322   2.094   4.090   1.185  0.0608  0.2050 -0.7266
  147MOL    C7138323   1.911   3.910   1.179 -0.2115 -0.7105  0.2355
  147MOL    H7238324   1.848   4.343   1.004  0.7213  0.3271 -0.3812
  147MOL    H7338325   2.003   4.299   1.024 -0.6424  0.9315 -0.1090
  147MOL    H7438326   1.778   4.087   1.030  0.2586 -1.5531  1.1818
  147MOL    H7538327   2.173   4.055   1.119 -0.0735  1.6622 -1.6729
  147MOL    H7638328   2.112   4.052   1.286 -0.4748 -0.6664 -0.9550
  147MOL    H7738329   2.113   4.195   1.205  0.2101  0.2029 -0.8645
  147MOL    H7838330   1.967   3.828   1.133 -0.3965 -1.5093  1.4061
  147MOL    H7938331   1.811   3.886   1.143  0.1997 -1.0326 -0.6994
  147MOL    C8038332   1.907   3.882   1.328  0.4182 -0.6743 -0.0194
  147MOL    C8138333   1.847   3.746   1.357  0.1064  0.2912  0.0367
  147MOL    C8238334   1.790   3.701   1.473  0.6703  0.6230 -0.1947
  147MOL    C8338335   1.785   3.780   1.605  0.0102  0.3068  0.1414
  147MOL    C8438336   1.732   3.561   1.485 -0.2561  0.4841  0.3645
  147MOL    H8538337   1.844   3.960   1.372  1.5991 -0.2860  1.0192
  147MOL    H8638338   2.007   3.886   1.370  0.1833  0.0708  0.4949
  147MOL    H8738339   1.855   3.671   1.280  3.7724  0.4650  0.1324
  147MOL    H8838340   1.873   3.750   1.662  1.2006  0.3272 -1.6459
  147MOL    H8938341   1.702   3.756   1.672  0.6136 -1.5087  0.2507
  147MOL    H9038342   1.795   3.887   1.587  0.1900  0.3598  0.5703
  147MOL    H9138343   1.718   3.504   1.393  1.6609  0.6848 -0.0633
  147MOL    H9238344   1.631   3.574   1.524 -0.1106 -0.2277  0.9902
  147MOL    C9338345   1.812   3.483   1.581  0.2194 -0.1144 -0.1164
  147MOL    C9438346   1.736   3.359   1.631  0.2860 -0.1489  0.9682
  147MOL    C9538347   1.783   3.230   1.639 -0.2787 -0.9321 -0.8073
  147MOL    C9638348   1.916   3.203   1.581 -0.3717 -0.1842  0.0099
  147MOL    C9738349   1.696   3.117   1.675 -0.2015 -0.2359 -0.4629
  147MOL    H9838350   1.844   3.536   1.670  0.6274  0.0172 -0.3442
  147MOL    H9938351   1.908   3.453   1.539 -0.9838 -2.8318 -1.0915
  147MOL   H10038352   1.643   3.377   1.681  0.0188  0.1344  0.3766
  147MOL   H10138353   1.991   3.252   1.643 -0.4299 -1.8050  1.4069
  147MOL   H10238354   1.928   3.230   1.476  0.2570  0.5268  0.2655
  147MOL   H10338355   1.940   3.097   1.590 -2.5339 -0.6805  0.3179
  147MOL   H10438356   1.702   3.038   1.601 -0.8186  1.0438 -1.9093
  147MOL   H10538357   1.591   3.147   1.670 -0.0946  0.4543  0.9985
  147MOL   C10638358   1.732   3.048   1.806  0.3165  0.4297 -0.5695
  147MOL   C10738359   1.711   3.130   1.932 -0.0891  0.1305 -0.0273
  147MOL   C10838360   1.626   3.117   2.037 -1.1641 -0.2602 -0.3551
  147MOL   C10938361   1.511   3.016   2.032  0.5299  0.0382 -0.0650
  147MOL   C11038362   1.634   3.199   2.163  0.7344 -0.5457  0.1670
  147MOL   H11138363   1.835   3.013   1.791 -0.2381 -1.4796 -0.0168
  147MOL   H11238364   1.678   2.954   1.806  3.5893 -1.5499  1.1899
  147MOL   H11338365   1.780   3.212   1.943  0.3493 -0.1247 -0.8154
  147MOL   H11438366   1.418   3.072   2.045  1.0823  0.8168  0.5796
  147MOL   H11538367   1.512   2.938   2.109  2.1920 -0.7354 -0.8483
  147MOL   H11638368   1.516   2.963   1.937  2.6888 -0.4773  0.3183
  147MOL   H11738369   1.735   3.233   2.184  0.7743 -1.0614  0.8620
  147MOL   H11838370   1.598   3.143   2.250  0.7284 -0.4470  0.2287
  147MOL   C11938371   1.556   3.329   2.161 -0.1358 -0.6689 -0.0887
  147MOL   C12038372   1.625   3.431   2.068 -0.1181  0.0250  0.0800
  147MOL   C12138373   1.647   3.560   2.086  0.1276 -0.1354 -0.0305
  147MOL   C12238374   1.596   3.645   2.207 -0.0134 -0.0174 -0.0418
  147MOL   C12338375   1.705   3.641   1.972  0.3019  0.3819  0.2607
  147MOL   H12438376   1.548   3.372   2.261  1.6463  0.3620 -0.3726
  147MOL   H12538377   1.452   3.304   2.139 -0.7200  0.6606  1.1104
  147MOL   H12638378   1.661   3.387   1.976 -0.1019  0.2609 -0.0267
  147MOL   H12738379   1.503   3.602   2.245 -0.5578 -0.1729 -1.5405
  147MOL   H12838380   1.573   3.746   2.173  1.7506  1.4835  3.0095
  147MOL   H12938381   1.669   3.666   2.285 -0.3571  1.7994 -0.1793
  147MOL   H13038382   1.663   3.739   1.953 -1.7907 -0.8138 -1.5478
  147MOL   H13138383   1.685   3.575   1.887 -0.9202  0.8992  0.1411
  147MOL   C13238384   1.861   3.643   1.984 -0.7909 -0.1308 -0.6650
  147MOL   C13338385   1.932   3.513   1.972 -0.3397  0.2980  0.1525
  147MOL   C13438386   1.977   3.433   2.073  0.2320 -0.0152  0.2903
  147MOL   C13538387   1.948   3.470   2.213 -0.0730  0.0848  0.5017
  147MOL   C13638388   2.063   3.311   2.049 -0.2454 -0.1784  0.1274
  147MOL   H13738389   1.897   3.695   2.072 -4.4909 -0.3676  1.0854
  147MOL   H13838390   1.902   3.692   1.896 -1.7982 -2.0331 -2.2349
  147MOL   H13938391   1.959   3.488   1.871 -0.3098  0.7148  0.0568
  147MOL   H14038392   1.946   3.375   2.267 -0.4322 -0.2466 -0.0918
  147MOL   H14138393   1.856   3.526   2.226  0.8389  1.6678  0.2111
  147MOL   H14238394   2.027   3.526   2.264  1.3430 -1.6594  0.3094
  147MOL   H14338395   2.074   3.285   1.944 -1.3567 -2.1630  0.4609
  147MOL   H14438396   2.013   3.226   2.095 -0.3940 -0.0158  0.2645
  147MOL   C14538397   2.201   3.323   2.110 -0.3729  0.0514  0.1136
  147MOL   C14638398   2.290   3.228   2.038 -0.7058 -0.7101  0.0422
  147MOL   C14738399   2.347   3.108   2.079  0.5537  0.6838  0.0818
  147MOL   C14838400   2.345   3.056   2.222  0.1317 -0.3549 -0.3864
  147MOL   C14938401   2.438   3.029   1.984 -0.1615 -0.0399 -0.2367
  147MOL   H15038402   2.206   3.303   2.217 -0.2852  0.4365  0.1797
  147MOL   H15138403   2.248   3.421   2.106 -0.1168  0.0471  2.4869
  147MOL   H15238404   2.300   3.251   1.933 -2.9002  2.4260  0.4373
  147MOL   H15338405   2.448   3.052   2.255 -0.1646  1.4378  0.8920
  147MOL   H15438406   2.298   2.960   2.242 -0.8701  0.0030 -0.9774
  147MOL   H15538407   2.304   3.139   2.282 -1.1801  0.0957 -1.8685
  147MOL   H15638408   2.437   3.065   1.881  0.1812 -0.6754 -0.4591
  147MOL   H15738409   2.391   2.932   1.971 -0.8332 -0.3924  4.1529
  147MOL   C15838410   2.587   3.028   2.023  0.1051  0.2897  0.3183
  147MOL   C15938411   2.684   2.998   1.906  0.2323  0.1725 -0.1623
  147MOL   C16038412   2.745   3.073   1.810  0.6478 -0.3215  0.1623
  147MOL   C16138413   2.707   3.220   1.798 -0.2233 -0.2375  0.3412
  147MOL   C16238414   2.817   3.012   1.692 -0.4849  0.0037  0.9531
  147MOL   H16338415   2.596   2.944   2.092  1.5321 -0.6114 -0.9136
  147MOL   H16438416   2.615   3.117   2.078 -2.0116  1.1696  0.0153
  147MOL   H16538417   2.695   2.891   1.910  1.0995  0.2296 -0.9106
  147MOL   H16638418   2.646   3.235   1.709 -0.5002 -0.1628  0.5426
  147MOL   H16738419   2.789   3.287   1.774  0.0817 -0.1838  1.4996
  147MOL   H16838420   2.648   3.249   1.885  0.6943 -2.7140  1.8504
  147MOL   H16938421   2.923   3.010   1.718  0.5602 -0.3478 -2.9272
  147MOL   H17038422   2.797   3.062   1.597 -1.5986  1.5979  1.9933
  147MOL   C17138423   2.780   2.865   1.660  0.1480 -0.0058  0.0675
  147MOL   C17238424   2.850   2.809   1.539  0.1200  0.1193 -0.2576
  147MOL   C17338425   2.962   2.730   1.537  0.9886 -0.4031 -0.3192
  147MOL   C17438426   3.042   2.689   1.655 -0.5490  0.7952  0.0417
  147MOL   C17538427   3.018   2.673   1.405 -0.6661 -0.6510  0.9408
  147MOL   H17638428   2.673   2.845   1.649 -0.5842  2.4336  1.9977
  147MOL   H17738429   2.820   2.802   1.740 -2.7888  0.3139  1.8779
  147MOL   H17838430   2.804   2.843   1.447 -1.0698  1.9927  0.9972
  147MOL   H17938431   3.051   2.582   1.637 -2.3194  0.3442  1.7368
  147MOL   H18038432   3.003   2.703   1.756  0.9547  0.4908  0.6789
  147MOL   H18138433   3.139   2.739   1.661 -1.1506  2.0797 -0.6570
  147MOL   H18238434   3.125   2.664   1.424 -0.2704  1.7107  0.0119
  147MOL   H18338435   3.011   2.759   1.339  0.6351 -0.2551  1.2935
  147MOL   C18438436   2.934   2.561   1.357  0.4975  0.1895 -0.2205
  147MOL   C18538437   2.934   2.540   1.205  0.6855  0.0993 -0.1884
  147MOL   C18638438   2.844   2.562   1.109 -0.5796  0.2109 -0.6335
  147MOL   C18738439   2.703   2.628   1.120  0.1818  0.2014  0.5983
  147MOL   C18838440   2.858   2.513   0.964  0.0360  0.2245 -0.3854
  147MOL   H18938441   2.832   2.586   1.386 -0.4512 -2.1293 -1.4142
  147MOL   H19038442   2.956   2.470   1.412 -0.0542  0.5106  0.5419
  147MOL   H19138443   3.014   2.478   1.165  1.5249  0.5669  0.7275
  147MOL   H19238444   2.688   2.662   1.223  0.1673 -0.3018  0.7626
  147MOL   H19338445   2.624   2.554   1.115 -0.2191  0.5166  2.0157
  147MOL   H19438446   2.678   2.712   1.056  1.3641  0.6394  0.6854
  147MOL   H19538447   2.771   2.453   0.937  0.3215  0.6220 -2.2671
  147MOL   H19638448   2.948   2.457   0.938 -0.9723 -2.0141  0.8305
  147MOL   C19738449   2.870   2.634   0.868  0.0446 -0.5049  0.0894
  147MOL   C19838450   2.901   2.602   0.721 -0.7837 -0.4150 -0.3957
  147MOL   C19938451   2.811   2.587   0.622 -0.0327  0.4020 -0.3374
  147MOL   C20038452   2.660   2.604   0.645  0.7093  1.1088 -0.1414
  147MOL   C20138453   2.837   2.551   0.475 -0.5610  0.1144 -0.1437
  147MOL   H20238454   2.944   2.703   0.907  1.1806 -0.5260 -1.9437
  147MOL   H20338455   2.787   2.704   0.875  0.0835 -0.4781  0.2732
  147MOL   H20438456   3.008   2.587   0.709 -0.8588 -0.4955 -0.9849
  147MOL   H20538457   2.635   2.645   0.743 -1.0605  0.5330 -0.3265
  147MOL   H20638458   2.609   2.508   0.646  1.8026  0.5188  0.5617
  147MOL   H20738459   2.612   2.657   0.564 -1.9245 -0.6228  0.2121
  147MOL   H20838460   2.797   2.637   0.421 -0.8172 -0.1816 -0.4276
  147MOL   H20938461   2.776   2.470   0.435  1.2431 -0.4361 -1.8919
  147MOL   C21038462   2.985   2.538   0.429  0.1988 -0.7177 -0.4252
  147MOL   C21138463   2.989   2.491   0.278  0.3048 -0.6591 -0.3515
  147MOL   C21238464   3.007   2.570   0.168 -0.8143  0.0423  0.0936
  147MOL   C21338465   3.031   2.718   0.171  1.0337 -0.1372 -0.2880
  147MOL   C21438466   3.002   2.505   0.032 -0.2635 -0.1733  0.9889
  147MOL   H21538467   3.029   2.457   0.488 -1.1380 -0.1893  1.3479
  147MOL   H21638468   3.026   2.636   0.453 -0.5730 -0.0818 -1.6482
  147MOL   H21738469   2.963   2.387   0.265  0.8365 -0.8357 -0.0130
  147MOL   H21838470   3.139   2.729   0.164  1.6567 -3.0385  3.5103
  147MOL   H21938471   2.998   2.779   0.256  2.4404  1.0958 -0.6079
  147MOL   H22038472   2.996   2.764   0.079 -0.5949  1.8733  1.2709
  147MOL   H22138473   2.917   2.554   7.867 -0.5102 -1.5803 -0.0531
  147MOL   H22238474   2.984   2.398   0.040 -1.2357  0.0635  1.9997
  147MOL   C22338475   3.137   2.522   7.837 -0.4049 -0.4618  0.2152
  147MOL   C22438476   3.121   2.505   7.687  0.5376 -0.3313 -0.6431
  147MOL   C22538477   3.142   2.394   7.612 -0.1569  0.3956  0.2746
  147MOL   C22638478   3.169   2.250   7.670 -0.0593 -0.1719  0.1873
  147MOL   C22738479   3.143   2.402   7.459 -0.1385 -0.1579 -0.3220
  147MOL   H22838480   3.205   2.442   7.865 -1.2372 -1.4080 -0.4146
  147MOL   H22938481   3.190   2.614   7.863 -1.2684  0.0920  0.0608
  147MOL   H23038482   3.113   2.603   7.643  0.4048  0.6772  1.5587
  147MOL   H23138483   3.101   2.174   7.633  0.0188 -0.4061  0.5205
  147MOL   H23238484   3.157   2.247   7.778  1.9462 -0.7024  0.4307
  147MOL   H23338485   3.271   2.224   7.639 -0.3797  1.2450 -2.1750
  147MOL   H23438486   3.113   2.503   7.430 -0.6911 -0.4719 -0.8494
  147MOL   H23538487   3.068   2.345   7.405  0.3082  1.0799 -2.2926
  147MOL   C23638488   3.278   2.371   7.386 -0.1826 -0.2211 -0.2773
  147MOL   C23738489   3.274   2.429   7.245  0.6059  0.4896 -0.3733
  147MOL   C23838490   3.244   2.366   7.133  0.5373 -0.1596 -0.3583
  147MOL   C23938491   3.210   2.220   7.120  0.4279  0.7948  0.2407
  147MOL   C24038492   3.222   2.434   7.000 -0.0368 -0.7105 -0.0474
  147MOL   H24138493   3.301   2.264   7.391  2.4605  0.3933  2.3226
  147MOL   H24238494   3.357   2.426   7.437 -0.5742  2.1713 -2.1943
  147MOL   H24338495   3.288   2.536   7.236 -0.2158  0.8185  2.0520
  147MOL   H24438496   3.126   2.195   7.185  0.7631 -1.8735 -0.3100
  147MOL   H24538497   3.301   2.168   7.149 -0.5262 -0.6588  0.6635
  147MOL   H24638498   3.197   2.183   7.019  0.0129 -0.6789  0.8252
  147MOL   H24738499   3.273   2.397   6.912  1.0220 -1.3495  0.8189
  147MOL   H24838500   3.260   2.536   7.005  1.3502 -1.2564  0.9435
  147MOL   C24938501   3.065   2.449   6.970 -0.2568  0.7565  0.3102
  147MOL   C25038502   3.029   2.508   6.840 -0.2691 -0.4779 -0.4426
  147MOL   C25138503   2.983   2.445   6.731 -0.7654  0.6585  0.3285
  147MOL   C25238504   2.942   2.292   6.735  0.0133  0.7904  0.0607
  147MOL   C25338505   2.945   2.520   6.600 -0.9669  0.6729 -0.1960
  147MOL   H25438506   3.014   2.508   7.046 -2.0007  0.4206 -0.5704
  147MOL   H25538507   3.020   2.350   6.970 -0.1630  0.7138  0.2421
  147MOL   H25638508   3.052   2.613   6.829 -0.4390 -0.3963 -0.0200
  147MOL   H25738509   2.997   2.237   6.811  0.4390  0.6285 -0.3601
  147MOL   H25838510   2.976   2.241   6.645  0.5035 -1.2634  1.3808
  147MOL   H25938511   2.837   2.270   6.750 -0.4417  1.2835 -2.1550
  147MOL   H26038512   2.836   2.522   6.600 -0.9673  2.4898  2.3348
  147MOL   H26138513   2.990   2.464   6.518  1.7479  0.8915  1.0927
  147MOL   H26238514   2.986   2.620   6.593  0.1423  0.2078 -0.5050
  148MOL     C138515   0.953   1.166   2.238 -0.5126 -0.4946  0.2499
  148MOL     C238516   0.911   1.107   2.104  0.3420 -0.0644 -0.1536
  148MOL     C338517   0.870   1.164   1.988  0.7955 -0.1447  0.0726
  148MOL     C438518   0.864   1.316   1.974  0.3970  0.2460  0.3291
  148MOL     C538519   0.838   1.088   1.867  0.3143  0.0136  0.4740
  148MOL     H638520   1.061   1.173   2.244 -0.3484 -0.5010 -2.0087
  148MOL     H738521   0.921   1.269   2.256 -0.8651 -1.0004  2.7142
  148MOL     H838522   0.918   1.000   2.118 -2.2161 -0.2449  0.0210
  148MOL     H938523   0.884   1.363   2.070  2.7914 -0.0420 -0.0123
  148MOL    H1038524   0.761   1.347   1.958 -0.3426 -1.5299  1.4561
  148MOL    H1138525   0.937   1.350   1.901  1.9967 -1.9013  0.8932
  148MOL    H1238526   0.745   1.135   1.835 -0.4029 -2.5345 -1.3961
  148MOL    H1338527   0.814   0.987   1.900 -1.2377 -0.0022 -0.6721
  148MOL    H1438528   0.912   1.115   2.325 -2.5001 -0.5714 -0.7041
  148MOL    C1538529   0.948   1.099   1.766  0.4236  0.1015  0.3085
  148MOL    C1638530   0.905   1.029   1.639 -0.2169  0.0266  0.0393
  148MOL    C1738531   0.973   0.936   1.569  0.1198 -0.7471 -0.3330
  148MOL    C1838532   1.115   0.887   1.618  0.6634  0.5800  0.1354
  148MOL    C1938533   0.923   0.879   1.438  0.0266  0.2950 -0.2954
  148MOL    H2038534   1.027   1.040   1.811 -1.5386 -3.3551 -0.5302
  148MOL    H2138535   0.970   1.204   1.744  0.0391 -0.1243 -1.2758
  148MOL    H2238536   0.816   1.067   1.591  0.9675  2.9236  0.0084
  148MOL    H2338537   1.185   0.964   1.648 -1.4778  1.6138  2.7719
  148MOL    H2438538   1.164   0.858   1.525 -0.6731 -0.2336 -0.3381
  148MOL    H2538539   1.111   0.804   1.689 -0.1137 -0.8373 -1.5227
  148MOL    H2638540   0.816   0.898   1.449  0.0640  0.0294  0.5439
  148MOL    H2738541   0.938   0.771   1.441  1.0032  0.4203 -0.5134
  148MOL    C2838542   0.997   0.936   1.313  0.3584  0.8721 -0.1146
  148MOL    C2938543   0.962   0.851   1.188 -0.6293 -0.2718 -0.7092
  148MOL    C3038544   1.046   0.775   1.114  0.2726 -0.1398 -0.3046
  148MOL    C3138545   1.193   0.763   1.144 -0.1233  0.5137 -0.0165
  148MOL    C3238546   0.989   0.690   1.008  0.1663 -0.2985  0.0235
  148MOL    H3338547   1.104   0.940   1.331  0.1593  0.8767  1.1322
  148MOL    H3438548   0.968   1.041   1.301 -1.5813  0.3721  0.0371
  148MOL    H3538549   0.857   0.865   1.166 -0.5507  1.1312 -0.2387
  148MOL    H3638550   1.238   0.851   1.098  0.5307  1.0625  1.6215
  148MOL    H3738551   1.232   0.673   1.097 -1.8536 -1.4176  2.1174
  148MOL    H3838552   1.228   0.765   1.247 -1.1837  1.5783  0.3221
  148MOL    H3938553   1.065   0.690   0.930  0.4188 -2.6805  0.2507
  148MOL    H4038554   0.893   0.731   0.975 -0.8240 -0.9093  2.1135
  148MOL    C4138555   0.964   0.544   1.056  0.3692 -1.3248 -0.3915
  148MOL    C4238556   0.889   0.449   0.966 -0.2743 -0.0104 -1.4308
  148MOL    C4338557   0.927   0.323   0.937 -0.1795  0.1088 -0.0101
  148MOL    C4438558   1.056   0.251   0.971 -0.0250 -0.1001  0.1801
  148MOL    C4538559   0.831   0.230   0.868  0.7735  0.3793  0.2810
  148MOL    H4638560   0.910   0.546   1.150  1.3886  0.2118  0.1691
  148MOL    H4738561   1.061   0.505   1.087 -0.9758 -3.3755  1.4418
  148MOL    H4838562   0.796   0.484   0.923 -0.7588 -1.2222 -1.4015
  148MOL    H4938563   1.114   0.316   1.037 -0.7137  0.3865  0.3174
  148MOL    H5038564   1.114   0.220   0.884 -2.1578  2.3198 -2.1910
  148MOL    H5138565   1.034   0.154   1.015  0.0300 -0.5462 -0.7703
  148MOL    H5238566   0.892   0.202   0.782 -0.6035 -2.0147  0.0527
  148MOL    H5338567   0.747   0.285   0.826 -1.5514 -3.6925 -0.6742
  148MOL    C5438568   0.779   0.115   0.956 -0.4748 -0.5513  0.2224
  148MOL    C5538569   0.663   0.047   0.902 -0.0606  0.3071  0.0692
  148MOL    C5638570   0.649   7.800   0.874  0.3316  0.1755  0.3548
  148MOL    C5738571   0.755   7.692   0.878  0.9270 -1.0861 -0.3958
  148MOL    C5838572   0.512   7.753   0.827 -0.0920  0.1890  0.3049
  148MOL    H5938573   0.755   0.159   1.053  2.4278 -0.5876  0.9972
  148MOL    H6038574   0.853   0.041   0.988  0.6185  0.6872  0.6189
  148MOL    H6138575   0.574   0.108   0.897 -0.3113 -0.0217  0.5075
  148MOL    H6238576   0.862   7.711   0.878  1.0176 -1.6004 -0.4088
  148MOL    H6338577   0.739   7.609   0.809 -1.3789 -2.5763  1.8867
  148MOL    H6438578   0.744   7.647   0.976  0.8455  0.7812  0.4804
  148MOL    H6538579   0.436   7.812   0.878  0.6957  2.1044 -0.6628
  148MOL    H6638580   0.495   7.651   0.861  0.7562 -0.9580 -2.5149
  148MOL    C6738581   0.498   7.757   0.673  0.4354 -1.0480  0.8977
  148MOL    C6838582   0.518   0.010   0.608 -0.5511  0.2689 -0.6484
  148MOL    C6938583   0.448   0.067   0.506 -0.3208 -0.1045  0.1233
  148MOL    C7038584   0.331   0.004   0.424 -0.4933  0.7748 -0.1109
  148MOL    C7138585   0.480   0.214   0.462 -0.5067  0.7323 -0.6679
  148MOL    H7238586   0.395   7.737   0.641 -0.1190  1.7540  0.7819
  148MOL    H7338587   0.562   7.687   0.620  1.4480  0.8838 -0.4693
  148MOL    H7438588   0.599   0.058   0.660  1.5379 -1.7248 -1.9709
  148MOL    H7538589   0.245   0.070   0.432 -1.2398  0.1536 -2.7690
  148MOL    H7638590   0.297   7.793   0.469 -0.7025  0.5012 -0.8391
  148MOL    H7738591   0.363   7.862   0.323 -0.3251 -2.8061  0.7479
  148MOL    H7838592   0.477   0.221   0.354  0.4478 -2.6114 -0.9792
  148MOL    H7938593   0.586   0.229   0.482  0.1522 -1.8273 -2.0059
  148MOL    C8038594   0.403   0.324   0.536  0.3327 -0.3620  0.5497
  148MOL    C8138595   0.441   0.460   0.479 -0.4891  0.5769 -0.0632
  148MOL    C8238596   0.368   0.572   0.465  1.3692 -0.0151  0.2341
  148MOL    C8338597   0.220   0.573   0.494 -0.2459  0.5492 -0.6183
  148MOL    C8438598   0.418   0.700   0.409 -0.5103 -0.1059 -0.4841
  148MOL    H8538599   0.423   0.310   0.642 -0.1489 -0.6679  0.6015
  148MOL    H8638600   0.296   0.311   0.520  0.1956  0.5494  0.6605
  148MOL    H8738601   0.541   0.456   0.437 -0.1166 -0.1342  0.8609
  148MOL    H8838602   0.188   0.661   0.549 -1.5144 -0.9350  1.1165
  148MOL    H8938603   0.191   0.492   0.562 -1.9004  0.9431 -0.8168
  148MOL    H9038604   0.145   0.559   0.415 -0.1914 -1.2550 -0.3908
  148MOL    H9138605   0.526   0.691   0.404 -0.3851  0.7188  0.4650
  148MOL    H9238606   0.405   0.785   0.476 -1.0854  0.0104 -0.7344
  148MOL    C9338607   0.360   0.739   0.269  0.0289 -0.1918  0.4954
  148MOL    C9438608   0.364   0.885   0.232 -1.0040  0.0944  0.7808
  148MOL    C9538609   0.259   0.958   0.206  0.2610 -0.0460  0.6393
  148MOL    C9638610   0.119   0.901   0.201 -0.2680  0.3463  0.4788
  148MOL    C9738611   0.298   1.102   0.177  0.5299 -0.4124  0.4427
  148MOL    H9838612   0.262   0.694   0.248  0.1764 -0.5523  0.5735
  148MOL    H9938613   0.417   0.692   0.189  0.3594 -1.8019  1.6527
  148MOL   H10038614   0.460   0.935   0.228 -0.8460 -0.2653 -0.4369
  148MOL   H10138615   0.107   0.848   0.107  1.2885  0.3047  0.2766
  148MOL   H10238616   0.047   0.983   0.201  1.4927  1.9396 -0.4949
  148MOL   H10338617   0.100   0.821   0.273 -2.5269  0.5881  0.1745
  148MOL   H10438618   0.401   1.129   0.202  0.4503 -0.5824  0.9712
  148MOL   H10538619   0.252   1.163   0.254  0.7827 -0.6180  0.7609
  148MOL   C10638620   0.250   1.152   0.043 -0.6866  0.7238 -0.2105
  148MOL   C10738621   0.305   1.285   0.010  0.0353  0.2642  0.6941
  148MOL   C10838622   0.243   1.402   7.871  0.4168 -0.2331  0.1417
  148MOL   C10938623   0.095   1.427   7.854 -0.0922  0.7397  0.3986
  148MOL   C11038624   0.329   1.524   7.828 -0.0086  0.0292  0.4453
  148MOL   H11138625   0.141   1.146   0.044 -0.7030 -0.3361 -3.2387
  148MOL   H11238626   0.280   1.090   7.841  1.3563  0.8792  0.3717
  148MOL   H11338627   0.413   1.286   0.003 -0.0556 -0.8303 -0.9900
  148MOL   H11438628   0.063   1.442   7.751  2.6925 -0.9598 -0.7810
  148MOL   H11538629   0.074   1.517   0.030 -1.5551  0.5620  0.1736
  148MOL   H11638630   0.029   1.347   0.006 -0.7854  1.2619  0.3020
  148MOL   H11738631   0.435   1.499   7.827 -0.0950 -0.3489  0.7847
  148MOL   H11838632   0.314   1.582   0.037  0.8872 -1.6272  1.6773
  148MOL   C11938633   0.291   1.591   7.687 -1.0419 -0.3600 -0.1742
  148MOL   C12038634   0.381   1.707   7.662  0.4549 -0.2496  0.1426
  148MOL   C12138635   0.427   1.769   7.553 -0.0236  0.1909  0.5559
  148MOL   C12238636   0.387   1.740   7.406  0.1168  0.3686 -0.9523
  148MOL   C12338637   0.515   1.889   7.580  0.3538  0.3358 -0.2535
  148MOL   H12438638   0.189   1.628   7.690 -1.5353 -1.7462  2.9681
  148MOL   H12538639   0.298   1.511   7.613  1.0110 -0.9169  0.6021
  148MOL   H12638640   0.433   1.743   7.749  3.8392 -4.2557 -0.0586
  148MOL   H12738641   0.465   1.777   7.339  0.9405 -2.3861 -1.5779
  148MOL   H12838642   0.293   1.792   7.388 -1.1095 -0.9186  1.5515
  148MOL   H12938643   0.382   1.632   7.390 -1.8767  0.2569  0.3323
  148MOL   H13038644   0.586   1.910   7.500  0.4644 -1.7340 -0.7289
  148MOL   H13138645   0.595   1.886   7.654  0.3298  0.1618 -0.2344
  148MOL   C13238646   0.426   2.006   7.614  0.7399  0.3774  0.7365
  148MOL   C13338647   0.506   2.130   7.619 -0.3260  0.0147  0.5507
  148MOL   C13438648   0.465   2.255   7.578  0.5629  0.6888 -0.6575
  148MOL   C13538649   0.324   2.268   7.528 -0.1071 -0.0695  0.6256
  148MOL   C13638650   0.547   2.383   7.592 -0.5873 -0.2420 -0.0876
  148MOL   H13738651   0.381   1.991   7.712  0.6890 -0.8511  0.5360
  148MOL   H13838652   0.345   2.011   7.542  0.2110 -0.0488  1.2947
  148MOL   H13938653   0.604   2.119   7.664  0.3455  1.1826 -0.5637
  148MOL   H14038654   0.236   2.223   7.574  0.1962  0.3437  1.6255
  148MOL   H14138655   0.322   2.245   7.421 -0.0947  0.4272  0.5199
  148MOL   H14238656   0.303   2.374   7.515 -0.6867 -0.3875 -1.2729
  148MOL   H14338657   0.507   2.430   7.681 -0.7377 -1.7739  0.6658
  148MOL   H14438658   0.536   2.445   7.502  2.1413  0.7947  0.2192
  148MOL   C14538659   0.706   2.362   7.614  0.7944 -0.2579  0.6169
  148MOL   C14638660   0.782   2.489   7.604  0.4495  0.2088 -1.0441
  148MOL   C14738661   0.884   2.525   7.525 -0.0479 -0.0105 -0.1108
  148MOL   C14838662   0.942   2.435   7.420 -0.0827  0.2619  0.0321
  148MOL   C14938663   0.932   2.668   7.526 -0.0126  0.7761  0.2126
  148MOL   H15038664   0.753   2.277   7.564 -1.0568 -1.2724  0.5531
  148MOL   H15138665   0.728   2.330   7.716  1.2596 -2.7492 -0.2345
  148MOL   H15238666   0.736   2.564   7.666 -2.7615 -2.6522  0.1956
  148MOL   H15338667   0.942   2.489   7.326 -2.5491  0.2230 -0.0086
  148MOL   H15438668   0.885   2.346   7.392  0.5136  0.6947 -2.6904
  148MOL   H15538669   1.042   2.399   7.445 -0.7049 -2.8531 -1.7744
  148MOL   H15638670   0.876   2.724   7.601  0.7159 -1.7188  2.7069
  148MOL   H15738671   0.891   2.704   7.432  1.2525  1.8018  0.0428
  148MOL   C15838672   1.081   2.688   7.550  0.3478  0.4938  0.0092
  148MOL   C15938673   1.121   2.835   7.535  0.2320 -0.2745  0.0955
  148MOL   C16038674   1.205   2.879   7.442 -0.1748 -0.3348 -0.1737
  148MOL   C16138675   1.273   2.778   7.338  0.4085 -0.1478 -0.2850
  148MOL   C16238676   1.245   3.024   7.417 -0.3440 -0.1541  0.2904
  148MOL   H16338677   1.141   2.621   7.489 -1.0983 -0.9863  0.1670
  148MOL   H16438678   1.115   2.663   7.651  1.9028  1.5822 -0.2304
  148MOL   H16538679   1.070   2.915   7.587  1.8086  0.6692  0.2031
  148MOL   H16638680   1.215   2.688   7.318 -0.1239 -0.0048  0.5765
  148MOL   H16738681   1.369   2.758   7.386  0.1572  0.6343  0.5461
  148MOL   H16838682   1.289   2.829   7.243  0.1920 -1.5962 -1.1252
  148MOL   H16938683   1.251   3.039   7.309 -1.2425 -0.0345  0.2504
  148MOL   H17038684   1.341   3.041   7.466 -0.4797 -1.5101  1.0623
  148MOL   C17138685   1.132   3.129   7.449 -0.1839 -0.5068 -0.0803
  148MOL   C17238686   1.009   3.116   7.359 -0.4867 -0.2993  0.3135
  148MOL   C17338687   0.882   3.076   7.383  0.0840 -0.2447  0.2281
  148MOL   C17438688   0.833   3.039   7.517  0.2250  0.2764 -0.5273
  148MOL   C17538689   0.777   3.046   7.277 -0.0102  0.6182 -0.0578
  148MOL   H17638690   1.174   3.229   7.440 -0.0122 -0.6517 -1.0100
  148MOL   H17738691   1.105   3.128   7.554 -0.0211  1.7096  0.0062
  148MOL   H17838692   1.032   3.138   7.256 -0.4639  1.9317  0.7712
  148MOL   H17938693   0.745   3.094   7.548  0.2099 -0.1411  0.1726
  148MOL   H18038694   0.906   3.049   7.597 -0.4428 -2.2213  0.4420
  148MOL   H18138695   0.810   2.933   7.508 -0.5030  0.3129  0.7783
  148MOL   H18238696   0.731   2.949   7.297  0.6220  0.7370  2.1006
  148MOL   H18338697   0.830   3.038   7.182 -0.8486 -0.1881 -0.4688
  148MOL   C18438698   0.668   3.152   7.269 -0.0656  0.4331 -0.1013
  148MOL   C18538699   0.590   3.154   7.137  0.1684  0.0075  0.2253
  148MOL   C18638700   0.459   3.118   7.115 -0.8862 -0.5386 -0.1377
  148MOL   C18738701   0.364   3.095   7.235 -0.2238 -0.3178  0.2046
  148MOL   C18838702   0.393   3.085   6.976 -0.9255 -0.9647  0.0818
  148MOL   H18938703   0.726   3.244   7.276  1.9801 -0.9506  1.5600
  148MOL   H19038704   0.600   3.148   7.353 -1.5655  0.5429 -1.2796
  148MOL   H19138705   0.660   3.169   7.056 -2.0368  0.7101 -1.5666
  148MOL   H19238706   0.403   3.131   7.330  0.5534  2.8422 -1.2751
  148MOL   H19338707   0.342   2.988   7.244 -0.7613 -0.2804 -0.6114
  148MOL   H19438708   0.265   3.136   7.216 -0.2139 -0.7656 -0.8272
  148MOL   H19538709   0.321   3.163   6.953  0.2987  0.2844  0.3870
  148MOL   H19638710   0.342   2.990   6.986  1.7872 -2.3687  1.3055
  148MOL   C19738711   0.487   3.070   6.854  0.1726 -0.4189  0.1332
  148MOL   C19838712   0.414   3.019   6.725  0.2235 -0.7092  0.5539
  148MOL   C19938713   0.467   3.037   6.598  0.0658 -0.1250 -0.0978
  148MOL   C20038714   0.591   3.111   6.555 -0.7481 -0.8844 -0.1502
  148MOL   C20138715   0.394   2.971   6.485  0.8243  0.0699 -0.4992
  148MOL   H20238716   0.555   2.989   6.879 -1.2109 -1.6637 -0.0036
  148MOL   H20338717   0.549   3.158   6.842 -0.5783  0.1248  0.1854
  148MOL   H20438718   0.317   2.972   6.731 -1.0438  1.8989  0.9470
  148MOL   H20538719   0.654   3.050   6.491  0.2444  0.6082 -0.6247
  148MOL   H20638720   0.653   3.153   6.634  0.2861  0.7079 -1.7799
  148MOL   H20738721   0.564   3.193   6.488 -0.7323 -0.4941  0.3159
  148MOL   H20838722   0.307   2.916   6.521  2.2315 -0.2707  2.6398
  148MOL   H20938723   0.464   2.904   6.436 -0.9405 -1.5340 -0.9011
  148MOL   C21038724   0.341   3.067   6.381  0.3206  0.0371 -0.3982
  148MOL   C21138725   0.269   2.990   6.274 -0.4271 -0.7823 -0.0312
  148MOL   C21238726   0.298   2.995   6.142  0.5450 -0.2378  0.0411
  148MOL   C21338727   0.406   3.071   6.073 -0.1808 -0.5363  0.7753
  148MOL   C21438728   0.209   2.919   6.047  0.0763  0.6836 -0.4225
  148MOL   H21538729   0.412   3.133   6.332  0.1208  0.5513 -0.0050
  148MOL   H21638730   0.273   3.133   6.435  0.4385 -0.0324 -0.1679
  148MOL   H21738731   0.182   2.935   6.308 -0.4307 -2.2375 -2.3295
  148MOL   H21838732   0.443   3.034   5.977  0.3175  2.6415 -0.3163
  148MOL   H21938733   0.494   3.103   6.128  0.0626  1.3992 -0.7094
  148MOL   H22038734   0.364   3.165   6.037  1.7199  0.1662  0.3225
  148MOL   H22138735   0.262   2.826   6.026  0.2671  0.7201 -0.1048
  148MOL   H22238736   0.194   2.976   5.956 -3.4473 -0.9966 -1.0007
  148MOL   C22338737   0.065   2.886   6.100  0.1921  0.6747 -0.2062
  148MOL   C22438738   7.862   3.013   6.094  0.0313  0.7972 -0.5698
  148MOL   C22538739   7.774   3.058   6.185 -0.0407  0.1428 -0.4591
  148MOL   C22638740   7.755   2.989   6.318  0.3554  0.2554  0.1170
  148MOL   C22738741   7.693   3.178   6.164 -0.3292  0.0922  0.4776
  148MOL   H22838742   0.064   2.825   6.191  2.1249  0.3518 -0.3766
  148MOL   H22938743   0.020   2.820   6.026  0.0828  1.0301 -0.4611
  148MOL   H23038744   7.856   3.074   6.005  0.4540 -0.0601 -1.1976
  148MOL   H23138745   7.790   3.051   6.400  0.4112  0.4519 -0.0580
  148MOL   H23238746   7.797   2.889   6.324 -0.7886 -0.2143  0.5776
  148MOL   H23338747   7.648   2.980   6.338 -0.0677  1.3066 -1.5945
  148MOL   H23438748   7.588   3.148   6.160 -0.3817  0.4588 -1.4720
  148MOL   H23538749   7.697   3.224   6.065  3.5046  0.4904  0.7214
  148MOL   C23638750   7.721   3.284   6.271  0.5574  0.7176  0.1335
  148MOL   C23738751   7.862   3.334   6.270  0.1161  0.1322  1.0554
  148MOL   C23838752   0.044   3.402   6.366  0.6077  0.2542 -0.4055
  148MOL   C23938753   7.882   3.413   6.515  0.1173  0.2374 -0.5088
  148MOL   C24038754   0.174   3.479   6.346  0.2402  0.3308 -0.0955
  148MOL   H24138755   7.690   3.244   6.367 -0.8282  0.5265 -0.3821
  148MOL   H24238756   7.657   3.371   6.261 -0.4695 -0.1869 -1.5437
  148MOL   H24338757   0.036   3.318   6.179 -0.5373  0.8429  0.5133
  148MOL   H24438758   7.777   3.393   6.537  0.0926 -0.0768 -0.9276
  148MOL   H24538759   0.030   3.512   6.550 -0.0147  0.0435  0.1744
  148MOL   H24638760   0.063   3.344   6.571 -0.0302  1.2101  0.9011
  148MOL   H24738761   0.249   3.422   6.402  2.4596  0.4249 -2.8124
  148MOL   H24838762   0.169   3.575   6.397  1.6797 -1.6247  3.9324
  148MOL   C24938763   0.219   3.494   6.205  0.6593  0.5979  0.4508
  148MOL   C25038764   0.346   3.575   6.185  0.1202  0.5903  0.0374
  148MOL   C25138765   0.472   3.542   6.212 -0.5572  0.1717  0.3137
  148MOL   C25238766   0.505   3.413   6.269 -0.5604  0.5005 -0.2313
  148MOL   C25338767   0.584   3.633   6.197 -0.8851 -0.0999 -0.2305
  148MOL   H25438768   0.130   3.538   6.160  1.0878  1.4754  0.4477
  148MOL   H25538769   0.232   3.399   6.151  0.6880  1.0242 -0.3040
  148MOL   H25638770   0.312   3.671   6.149 -1.7702  0.0425  0.3202
  148MOL   H25738771   0.591   3.420   6.336 -0.9143  4.2639 -0.0355
  148MOL   H25838772   0.536   3.345   6.190  1.2558  0.0284  0.8504
  148MOL   H25938773   0.430   3.357   6.324  1.8083 -0.4105  2.1913
  148MOL   H26038774   0.555   3.711   6.127  1.4300 -0.0314 -1.1469
  148MOL   H26138775   0.671   3.578   6.162 -1.3529 -0.8949 -0.1481
  148MOL   H26238776   0.606   3.687   6.289  0.5483  0.6681 -1.0090
  149MOL     C138777   4.185   7.565   0.299 -0.7702 -0.0618  0.0236
  149MOL     C238778   4.254   7.456   0.212 -0.4184 -0.3118  0.1024
  149MOL     C338779   4.348   7.364   0.256  0.1096 -0.8767  0.9222
  149MOL     C438780   4.398   7.349   0.395  0.2239 -0.1004  0.7322
  149MOL     C538781   4.432   7.290   0.157 -0.6659  0.2349 -0.3875
  149MOL     H638782   4.229   7.665   0.288  1.6747 -0.9699  1.1622
  149MOL     H738783   4.080   7.574   0.271 -0.3514  1.8524 -1.0154
  149MOL     H838784   4.239   7.472   0.106  0.6509  1.6411  0.2210
  149MOL     H938785   4.338   7.400   0.470 -2.8023 -0.3979 -1.3674
  149MOL    H1038786   4.499   7.389   0.402 -0.0211  0.7073 -0.2085
  149MOL    H1138787   4.401   7.249   0.437 -1.3398 -0.7721 -0.6692
  149MOL    H1238788   4.535   7.289   0.195 -0.7722 -0.5654 -0.0993
  149MOL    H1338789   4.439   7.346   0.065  0.0764  1.6012  0.4788
  149MOL    H1438790   4.190   7.558   0.408 -0.0661  1.1828  0.0872
  149MOL    C1538791   4.367   7.157   0.127  0.6084  0.1458  0.3669
  149MOL    C1638792   4.472   7.048   0.101  0.4795 -0.2381  0.0930
  149MOL    C1738793   4.515   6.950   0.182  0.3839  0.5333 -0.2829
  149MOL    C1838794   4.459   6.928   0.326 -0.6915 -0.3065 -0.3163
  149MOL    C1938795   4.619   6.851   0.131 -0.0241  0.0116 -0.7859
  149MOL    H2038796   4.304   7.165   0.038 -0.6354  0.9621  1.3049
  149MOL    H2138797   4.302   7.126   0.209 -1.9310  0.6797 -1.3874
  149MOL    H2238798   4.523   7.050   0.006 -1.3033  0.3889 -0.8554
  149MOL    H2338799   4.372   6.986   0.354  1.0498  2.2768 -0.0148
  149MOL    H2438800   4.533   6.962   0.399  0.1082 -1.4625 -0.5734
  149MOL    H2538801   4.439   6.824   0.352 -1.7709 -0.0914 -0.2650
  149MOL    H2638802   4.704   6.843   0.198 -1.1280 -1.7852  0.4298
  149MOL    H2738803   4.662   6.878   0.034 -0.2212  0.5567 -0.7209
  149MOL    C2838804   4.549   6.719   0.094  0.5450  0.3270  0.0173
  149MOL    C2938805   4.640   6.614   0.034 -0.3812 -0.2218  0.2772
  149MOL    C3038806   4.622   6.562   7.791  0.2446 -0.1410  0.3157
  149MOL    C3138807   4.512   6.607   7.695  0.3667  0.5864  0.2016
  149MOL    C3238808   4.690   6.434   7.742 -0.3238 -0.3115 -0.7712
  149MOL    H3338809   4.466   6.743   0.028 -0.4069 -3.4027 -0.2366
  149MOL    H3438810   4.505   6.680   0.186  0.9430 -1.5047 -0.5409
  149MOL    H3538811   4.711   6.571   0.103  0.8139 -0.1472 -0.9051
  149MOL    H3638812   4.430   6.537   7.677  0.0044  1.3350 -1.1490
  149MOL    H3738813   4.547   6.623   7.593 -1.0788 -0.5944 -0.5099
  149MOL    H3838814   4.461   6.701   7.716 -2.1512 -0.7758  0.5093
  149MOL    H3938815   4.721   6.440   7.637  0.8611 -2.0725 -0.5587
  149MOL    H4038816   4.619   6.353   7.758 -1.2595  0.7507  0.5691
  149MOL    C4138817   4.822   6.395   7.826 -0.4135  0.7886 -0.3782
  149MOL    C4238818   4.896   6.283   7.753 -0.8547 -0.4758  0.5451
  149MOL    C4338819   4.952   6.296   7.630  0.2615  0.0961  0.1418
  149MOL    C4438820   4.962   6.423   7.550  0.5050  0.2081  1.0212
  149MOL    C4538821   5.001   6.173   7.570  0.6540  0.3771  0.9702
  149MOL    H4638822   4.802   6.364   0.045  2.5190  0.2397  0.0858
  149MOL    H4738823   4.894   6.477   7.828 -0.8850  1.2233 -0.8853
  149MOL    H4838824   4.903   6.189   7.806 -0.8211 -0.6064  0.3090
  149MOL    H4938825   5.062   6.431   7.506  0.3028  0.7976  0.6498
  149MOL    H5038826   4.948   6.514   7.608  1.2266  1.4385 -0.6758
  149MOL    H5138827   4.898   6.442   7.464  1.3676 -0.0836  0.3041
  149MOL    H5238828   5.011   6.092   7.642  3.6772  1.0664  1.3608
  149MOL    H5338829   5.097   6.181   7.519  0.3890  2.4277  0.7708
  149MOL    C5438830   4.898   6.136   7.457  0.5721  0.0598 -0.2657
  149MOL    C5538831   4.963   6.037   7.359  0.5769 -0.6152  0.3907
  149MOL    C5638832   5.015   6.062   7.234 -0.2639 -0.1841  0.1197
  149MOL    C5738833   5.005   6.202   7.172 -0.2180 -0.5900 -0.4185
  149MOL    C5838834   5.082   5.951   7.153  0.2495 -0.4081 -0.3460
  149MOL    H5938835   4.879   6.232   7.409  0.2708  0.3401  0.4044
  149MOL    H6038836   4.802   6.108   7.498  1.3976 -0.8592  1.0706
  149MOL    H6138837   4.969   5.936   7.396  1.4736 -0.6481  0.1625
  149MOL    H6238838   5.098   6.245   7.136  0.5194  0.6557  2.7618
  149MOL    H6338839   4.972   6.277   7.244 -2.5102 -0.9535 -1.0572
  149MOL    H6438840   4.944   6.214   7.083  2.2514  0.0195 -2.0633
  149MOL    H6538841   5.137   5.887   7.222  1.8913 -0.8345 -1.9929
  149MOL    H6638842   5.148   5.996   7.079 -2.2442 -1.6904 -3.4674
  149MOL    C6738843   4.981   5.861   7.073  0.3606 -0.0018 -0.0992
  149MOL    C6838844   4.886   5.938   6.984 -0.7866  0.1943 -1.1672
  149MOL    C6938845   4.768   5.985   7.014 -0.5681  0.3207  0.4155
  149MOL    C7038846   4.700   5.956   7.143  0.0247  0.1591 -0.3121
  149MOL    C7138847   4.683   6.071   6.921  0.7349 -0.5790 -0.1106
  149MOL    H7238848   4.941   5.800   7.153  2.5633  0.7331  1.6115
  149MOL    H7338849   5.033   5.791   7.008 -0.6052 -0.6769 -0.1501
  149MOL    H7438850   4.936   5.961   6.890 -0.2146 -0.5110 -1.0438
  149MOL    H7538851   4.599   5.917   7.135  0.3825 -1.0145  0.8517
  149MOL    H7638852   4.694   6.056   7.186  2.9711  0.6602 -0.9864
  149MOL    H7738853   4.740   5.884   7.213 -2.9927 -0.9592  0.3415
  149MOL    H7838854   4.620   6.146   6.969  0.2535  0.3903 -2.2012
  149MOL    H7938855   4.618   6.009   6.860 -0.4766 -2.7317  3.2777
  149MOL    C8038856   4.769   6.164   6.826 -0.5463 -0.8980  0.6575
  149MOL    C8138857   4.692   6.272   6.762  0.1208  0.5920  0.0752
  149MOL    C8238858   4.696   6.404   6.792  0.5172 -0.0870  0.2591
  149MOL    C8338859   4.770   6.464   6.909  0.7852  0.2369  0.3184
  149MOL    C8438860   4.619   6.508   6.712 -0.1637 -0.0348 -0.5890
  149MOL    H8538861   4.811   6.106   6.744 -0.3628 -1.6330  1.2606
  149MOL    H8638862   4.853   6.196   6.888 -1.4401 -1.7100  2.3407
  149MOL    H8738863   4.640   6.225   6.679 -0.7741 -0.4363  1.2038
  149MOL    H8838864   4.762   6.398   6.996  0.4369 -1.0095 -0.6461
  149MOL    H8938865   4.724   6.552   6.952 -0.2518 -0.6854  1.1293
  149MOL    H9038866   4.876   6.480   6.891  1.5210 -2.7783  1.6020
  149MOL    H9138867   4.595   6.456   6.620  1.5649 -0.4534 -0.8151
  149MOL    H9238868   4.686   6.590   6.686 -0.6858  1.5230  2.7171
  149MOL    C9338869   4.494   6.555   6.785 -0.6643 -0.2271  0.0477
  149MOL    C9438870   4.404   6.436   6.828 -0.4451  0.2520  0.6079
  149MOL    C9538871   4.329   6.358   6.752 -0.2284  0.6068 -0.1810
  149MOL    C9638872   4.304   6.361   6.601 -0.7745 -0.0836 -0.3868
  149MOL    C9738873   4.264   6.241   6.822 -0.5141  0.6907 -0.1744
  149MOL    H9838874   4.445   6.634   6.728  0.3449 -0.8721 -1.7526
  149MOL    H9938875   4.531   6.591   6.881  0.7676  1.3298 -1.0676
  149MOL   H10038876   4.404   6.414   6.933  0.3829  1.9937  0.9936
  149MOL   H10138877   4.202   6.335   6.573  1.1166 -2.4768 -5.7671
  149MOL   H10238878   4.367   6.293   6.544 -0.5007  2.3289 -3.1441
  149MOL   H10338879   4.327   6.460   6.560 -2.4099  0.7507  0.6626
  149MOL   H10438880   4.327   6.211   6.905 -0.7683  2.0408  0.5127
  149MOL   H10538881   4.278   6.155   6.755  0.8017  0.0244  0.9488
  149MOL   C10638882   4.115   6.259   6.863 -0.3945  0.4498 -0.1154
  149MOL   C10738883   4.051   6.135   6.919 -0.5789 -0.4465 -0.1287
  149MOL   C10838884   4.009   6.105   7.044 -0.8983 -0.8493 -0.0922
  149MOL   C10938885   4.017   6.205   7.162  0.7040  0.1815  0.2008
  149MOL   C11038886   3.970   5.960   7.078 -0.3625  0.4211  0.2777
  149MOL   H11138887   4.058   6.297   6.778 -0.1331  0.1284 -0.4347
  149MOL   H11238888   4.116   6.335   6.940 -1.6228 -0.5401  0.9083
  149MOL   H11338889   4.051   6.062   6.839  0.4936 -1.2452  0.5900
  149MOL   H11438890   4.073   6.161   7.245 -1.7593 -0.7488  1.4238
  149MOL   H11538891   3.917   6.237   7.188 -0.8737 -3.4222 -1.0394
  149MOL   H11638892   4.074   6.297   7.149  0.1851  0.3261 -1.0459
  149MOL   H11738893   4.052   5.913   7.132  0.6297  1.1246 -0.5929
  149MOL   H11838894   3.970   5.894   6.991 -1.5229  0.0550  0.5448
  149MOL   C11938895   3.830   5.957   7.151  1.1397 -0.3080  1.0750
  149MOL   C12038896   3.798   5.818   7.191 -0.2283  0.9628 -0.0886
  149MOL   C12138897   3.800   5.761   7.314  0.8002  0.1364  0.1706
  149MOL   C12238898   3.826   5.841   7.442 -0.0987  0.2695 -0.2327
  149MOL   C12338899   3.792   5.612   7.339  0.2276  0.4179 -0.1234
  149MOL   H12438900   3.747   6.003   7.097  1.5128 -1.4500 -0.4980
  149MOL   H12538901   3.835   6.025   7.236  0.3098  1.3423 -0.1627
  149MOL   H12638902   3.787   5.763   7.098  2.1476  4.9921 -2.9080
  149MOL   H12738903   3.924   5.815   7.480 -0.2700  0.5671  0.4173
  149MOL   H12838904   3.750   5.794   7.504  0.6701 -0.0821  0.4407
  149MOL   H12938905   3.810   5.948   7.427 -2.7612 -0.0616 -0.0586
  149MOL   H13038906   3.813   5.567   7.242  1.4126 -1.1111  0.8278
  149MOL   H13138907   3.687   5.587   7.357  0.5637 -0.3382  0.8112
  149MOL   C13238908   3.891   5.552   7.437 -0.2844 -0.9869 -0.0340
  149MOL   C13338909   3.900   5.398   7.420 -0.4466 -0.4634 -0.2045
  149MOL   C13438910   3.971   5.325   7.334 -0.0480 -0.4545 -0.2095
  149MOL   C13538911   4.059   5.397   7.232 -0.6468  0.2338 -0.2255
  149MOL   C13638912   3.965   5.178   7.320  0.2831 -0.7511  0.3124
  149MOL   H13738913   3.866   5.585   7.537 -0.4182 -0.3102 -0.2895
  149MOL   H13838914   3.987   5.602   7.424 -1.0775 -0.0265 -2.5183
  149MOL   H13938915   3.831   5.350   7.488  1.3327  1.0921  2.8015
  149MOL   H14038916   4.036   5.503   7.217 -0.0080  0.4337  0.1746
  149MOL   H14138917   4.053   5.354   7.132 -1.3943  2.5767 -1.2185
  149MOL   H14238918   4.163   5.391   7.266 -0.7857 -0.9864  0.0185
  149MOL   H14338919   3.935   5.126   7.411 -0.3192 -2.5978 -0.9079
  149MOL   H14438920   4.068   5.150   7.298  0.2417  0.8032 -2.0095
  149MOL   C14538921   3.869   5.133   7.211  0.1831  0.2378 -0.1803
  149MOL   C14638922   3.871   4.981   7.195  0.1881  0.7506  0.4408
  149MOL   C14738923   3.776   4.888   7.221  0.6863  0.2652  1.1493
  149MOL   C14838924   3.643   4.931   7.274 -0.4535  0.7541 -0.0258
  149MOL   C14938925   3.795   4.746   7.180  0.0736 -0.6890 -0.1654
  149MOL   H15038926   3.886   5.189   7.119 -1.2350  2.9943  1.1410
  149MOL   H15138927   3.770   5.169   7.242 -1.0702 -3.4487  0.3318
  149MOL   H15238928   3.968   4.952   7.155  0.8405  0.6483  2.0687
  149MOL   H15338929   3.636   5.009   7.350 -1.6168  0.6586 -0.0337
  149MOL   H15438930   3.584   4.849   7.316  0.9921 -1.6719 -2.5393
  149MOL   H15538931   3.588   4.969   7.188  1.4703 -0.8442 -2.0247
  149MOL   H15638932   3.758   4.678   7.257 -0.9948  0.4882  0.3825
  149MOL   H15738933   3.900   4.723   7.166  0.5537  0.1469  1.8323
  149MOL   C15838934   3.716   4.723   7.054 -0.1481  0.0645  0.2410
  149MOL   C15938935   3.687   4.568   7.039  0.3756  0.0700  0.2184
  149MOL   C16038936   3.725   4.479   6.945  0.2088  0.4314 -0.0211
  149MOL   C16138937   3.824   4.513   6.837  0.5423  1.1269 -0.3528
  149MOL   C16238938   3.682   4.334   6.962  0.9187 -0.0291 -0.2168
  149MOL   H16338939   3.765   4.770   6.969 -0.9004  0.2304 -0.1087
  149MOL   H16438940   3.616   4.767   7.051  0.1344  0.6185 -0.9952
  149MOL   H16538941   3.634   4.519   7.119  0.9598 -1.1847 -0.1481
  149MOL   H16638942   3.922   4.509   6.884  0.1693  1.7774  0.4910
  149MOL   H16738943   3.804   4.616   6.808  1.8768  1.6381  0.5200
  149MOL   H16838944   3.829   4.449   6.748 -0.2254  0.0423  0.3741
  149MOL   H16938945   3.673   4.309   6.857  0.1390  1.0664 -0.4204
  149MOL   H17038946   3.580   4.334   7.001  1.3975 -4.2466  1.2258
  149MOL   C17138947   3.784   4.246   7.033 -0.2473 -0.1362  0.1585
  149MOL   C17238948   3.735   4.104   7.028  0.0268  0.3089  0.1172
  149MOL   C17338949   3.791   4.016   7.119  0.4947 -0.0340  0.1867
  149MOL   C17438950   3.894   4.045   7.229 -0.4803 -0.0045  0.5175
  149MOL   C17538951   3.735   3.870   7.106  0.1950  0.4120 -0.1898
  149MOL   H17638952   3.799   4.276   7.136  0.6686  0.6790 -0.2047
  149MOL   H17738953   3.883   4.241   6.988  0.1912  0.5860  1.0586
  149MOL   H17838954   3.663   4.071   6.954 -1.2881  0.8066  1.1475
  149MOL   H17938955   3.977   3.976   7.211  0.0155  0.9741 -1.0536
  149MOL   H18038956   3.848   4.025   7.326  0.6889  2.1383  1.5567
  149MOL   H18138957   3.943   4.142   7.235 -1.6574  0.7224 -1.3561
  149MOL   H18238958   3.808   3.789   7.102  0.1702  0.4163 -0.6605
  149MOL   H18338959   3.678   3.864   7.014  3.9997  0.8434 -2.7221
  149MOL   C18438960   3.642   3.840   7.230  0.3956  0.6551  0.3734
  149MOL   C18538961   3.537   3.946   7.247  0.6580 -0.2082 -0.0127
  149MOL   C18638962   3.477   3.998   7.358  0.1272 -0.2612 -0.5135
  149MOL   C18738963   3.501   3.955   7.497 -1.4275  0.1770 -0.4924
  149MOL   C18838964   3.358   4.102   7.351 -0.1548 -0.2125  0.0331
  149MOL   H18938965   3.705   3.833   7.319  0.2507 -1.2262  0.3471
  149MOL   H19038966   3.595   3.741   7.233 -1.5573  1.5320 -0.2657
  149MOL   H19138967   3.491   3.974   7.153 -1.3502  0.8968  1.2748
  149MOL   H19238968   3.605   3.927   7.512 -1.5569 -0.8817 -1.5252
  149MOL   H19338969   3.443   3.870   7.533 -1.2118  0.7745  1.2837
  149MOL   H19438970   3.478   4.040   7.561 -2.4683 -1.1646  0.9620
  149MOL   H19538971   3.293   4.081   7.436 -0.0828  0.1777  0.1830
  149MOL   H19638972   3.296   4.093   7.262 -2.0664  1.4621  1.1455
  149MOL   C19738973   3.413   4.242   7.366  0.0376 -0.2834 -0.3998
  149MOL   C19838974   3.308   4.356   7.364 -0.4487 -0.5898 -0.8798
  149MOL   C19938975   3.242   4.396   7.470  0.6998 -0.3854 -0.3025
  149MOL   C20038976   3.256   4.335   7.610 -0.1969 -0.0712  0.1460
  149MOL   C20138977   3.146   4.509   7.469 -0.1212  0.2020  0.3405
  149MOL   H20238978   3.464   4.261   7.272  3.0827 -0.0505  1.2545
  149MOL   H20338979   3.481   4.254   7.450 -0.0806 -0.8392 -0.2229
  149MOL   H20438980   3.278   4.397   7.268 -3.4884 -1.4583 -0.3746
  149MOL   H20538981   3.211   4.391   7.692 -1.6183 -0.5305 -0.3141
  149MOL   H20638982   3.360   4.307   7.627  0.0726  0.9429  0.2159
  149MOL   H20738983   3.203   4.240   7.600 -0.9020  0.3057  0.2931
  149MOL   H20838984   3.057   4.465   7.513 -0.2824 -1.3994 -1.5363
  149MOL   H20938985   3.141   4.546   7.367 -2.7124 -0.9527  0.0221
  149MOL   C21038986   3.195   4.631   7.552 -0.4702 -0.6079 -0.7718
  149MOL   C21138987   3.123   4.762   7.512  0.2084  0.2592 -0.5763
  149MOL   C21238988   3.173   4.888   7.489  0.6426 -0.7679 -0.5631
  149MOL   C21338989   3.321   4.929   7.484  0.3010 -0.1501 -0.1463
  149MOL   C21438990   3.082   5.007   7.451 -0.5990  0.5751  0.3783
  149MOL   H21538991   3.302   4.650   7.553 -0.7962  1.2323  1.0748
  149MOL   H21638992   3.177   4.614   7.658  3.8075 -0.4761  0.0553
  149MOL   H21738993   3.015   4.757   7.512  0.1485  1.5708 -0.9560
  149MOL   H21838994   3.343   5.025   7.532 -1.7711  0.6796 -0.8249
  149MOL   H21938995   3.376   4.909   7.392  1.0317 -0.2830  0.3107
  149MOL   H22038996   3.359   4.859   7.559 -0.1232 -1.2598 -0.9486
  149MOL   H22138997   3.093   5.091   7.519  0.3782  0.1103  0.8066
  149MOL   H22238998   2.978   4.976   7.454 -0.5018 -0.2839 -3.1795
  149MOL   C22338999   3.099   5.049   7.299  0.9025 -0.1700  0.4416
  149MOL   C22439000   3.061   4.936   7.202 -0.2333 -0.0781 -0.7762
  149MOL   C22539001   3.139   4.869   7.115  0.7412  0.4566  0.4229
  149MOL   C22639002   3.280   4.904   7.086  0.3877 -0.5681 -0.0525
  149MOL   C22739003   3.081   4.754   7.041  0.2492  0.1017 -0.4076
  149MOL   H22839004   3.202   5.078   7.280  0.7056  0.2970  0.0881
  149MOL   H22939005   3.041   5.138   7.278  1.0535 -0.1892 -0.0757
  149MOL   H23039006   2.955   4.920   7.207 -0.2478 -0.9246 -3.1689
  149MOL   H23139007   3.346   4.855   7.158  0.0954 -0.3585  0.3563
  149MOL   H23239008   3.315   5.006   7.101 -2.0800  0.2134  0.5177
  149MOL   H23339009   3.316   4.866   6.990  1.9880 -0.4511  0.4772
  149MOL   H23439010   3.054   4.798   6.945 -0.6371 -0.5522 -0.4637
  149MOL   H23539011   2.988   4.716   7.083  1.3667  0.4408  2.4599
  149MOL   C23639012   3.190   4.637   7.034  0.3336 -0.1774  0.4807
  149MOL   C23739013   3.123   4.501   6.998  0.2392 -0.8819  0.2817
  149MOL   C23839014   3.191   4.403   6.936  0.2868 -0.8942 -0.4471
  149MOL   C23939015   3.338   4.424   6.890 -0.9340  0.4200 -0.1087
  149MOL   C24039016   3.116   4.281   6.895 -0.2701  0.6153 -0.0372
  149MOL   H24139017   3.234   4.629   7.134  0.6204 -1.9913  0.2255
  149MOL   H24239018   3.271   4.659   6.963 -0.7836 -0.0470 -0.7745
  149MOL   H24339019   3.022   4.495   7.034  0.9690  0.4983  2.7165
  149MOL   H24439020   3.386   4.326   6.882  1.1130  1.0550  3.2726
  149MOL   H24539021   3.396   4.484   6.960  0.9701 -1.1685 -0.2917
  149MOL   H24639022   3.346   4.465   6.789  2.4031 -0.9051 -0.4530
  149MOL   H24739023   3.125   4.277   6.786 -0.6306  0.2805 -0.0556
  149MOL   H24839024   3.010   4.287   6.919  0.0957  1.1036  1.4989
  149MOL   C24939025   3.166   4.142   6.947  0.0349  1.0197 -0.0259
  149MOL   C25039026   3.045   4.046   6.969 -0.9633 -0.6446  0.4164
  149MOL   C25139027   3.045   3.915   6.949 -0.0974 -0.2552 -0.1214
  149MOL   C25239028   3.168   3.841   6.899  0.2780 -0.4017  0.1789
  149MOL   C25339029   2.925   3.832   6.990 -0.3961 -0.5102 -0.0201
  149MOL   H25439030   3.226   4.148   7.038 -0.0660 -1.9600  0.2810
  149MOL   H25539031   3.233   4.103   6.870 -0.4867  1.8674 -0.9206
  149MOL   H25639032   2.962   4.103   7.007  0.0199  0.7786  0.4522
  149MOL   H25739033   3.234   3.895   6.831  0.1259 -0.6035 -0.1273
  149MOL   H25839034   3.140   3.760   6.832  1.0030 -0.0177 -0.5967
  149MOL   H25939035   3.220   3.797   6.985  0.8918 -1.0664 -0.5294
  149MOL   H26039036   2.895   3.757   6.917 -0.6471  0.1111 -0.5575
  149MOL   H26139037   2.836   3.889   7.015 -1.0547 -1.1686 -0.8317
  149MOL   H26239038   2.951   3.761   7.069  1.0220 -1.3338 -1.1974
  150MOL     C139039   2.694   0.402   5.194 -0.3385 -0.2209 -0.0765
  150MOL     C239040   2.620   0.409   5.057 -0.4898  0.4904  0.5312
  150MOL     C339041   2.610   0.515   4.972 -0.0205  0.2742  0.4764
  150MOL     C439042   2.659   0.656   5.004 -0.1656 -0.3524  0.1749
  150MOL     C539043   2.562   0.486   4.829 -0.4230  0.7797 -0.3571
  150MOL     H639044   2.697   0.296   5.221 -1.7660 -0.1486  0.4382
  150MOL     H739045   2.796   0.437   5.193 -0.1294 -0.7560  1.1694
  150MOL     H839046   2.574   0.322   5.014 -0.4618 -0.0375  1.5673
  150MOL     H939047   2.722   0.651   5.093 -2.1550 -0.9294  1.5910
  150MOL    H1039048   2.576   0.722   5.032 -1.2553 -1.6911  0.1655
  150MOL    H1139049   2.710   0.696   4.917 -0.8917 -0.5057 -0.3280
  150MOL    H1239050   2.553   0.380   4.804  0.0754  0.4287  0.8902
  150MOL    H1339051   2.649   0.520   4.773 -1.0560  0.2497 -1.6826
  150MOL    H1439052   2.659   0.469   5.272  2.0725  1.0452 -0.0390
  150MOL    C1539053   2.438   0.568   4.793 -0.1631  0.4649 -0.3359
  150MOL    C1639054   2.411   0.564   4.643 -0.5524 -0.1820 -0.3483
  150MOL    C1739055   2.383   0.665   4.563  0.0149 -0.3198 -0.5485
  150MOL    C1839056   2.387   0.812   4.603  1.0263  0.5456  0.5672
  150MOL    C1939057   2.362   0.647   4.417  0.2163 -0.1411 -0.0175
  150MOL    H2039058   2.450   0.671   4.826 -0.5828  1.3611 -2.8597
  150MOL    H2139059   2.361   0.510   4.843 -0.3146  0.8210 -0.1508
  150MOL    H2239060   2.418   0.466   4.598 -1.3081 -0.1384 -0.5681
  150MOL    H2339061   2.302   0.866   4.562  1.1011 -1.1543 -1.9551
  150MOL    H2439062   2.483   0.849   4.569  0.1953  1.7082 -0.5449
  150MOL    H2539063   2.395   0.826   4.711  3.9136  0.4127  0.4073
  150MOL    H2639064   2.411   0.562   4.369 -2.4493 -1.4211 -0.6020
  150MOL    H2739065   2.401   0.739   4.373 -0.1845 -0.3464 -0.8110
  150MOL    C2839066   2.208   0.623   4.375 -0.1108  0.0274  0.1342
  150MOL    C2939067   2.202   0.615   4.223 -0.2265 -0.1934  0.5099
  150MOL    C3039068   2.171   0.502   4.151 -0.0847 -0.0407  0.0428
  150MOL    C3139069   2.130   0.383   4.223  0.5964  0.3012 -0.8681
  150MOL    C3239070   2.165   0.505   3.998  0.5283  0.4402  0.1407
  150MOL    H3339071   2.140   0.702   4.407  0.3195  1.3975 -2.1737
  150MOL    H3439072   2.166   0.538   4.427 -1.1317 -1.3842 -2.8656
  150MOL    H3539073   2.232   0.707   4.174 -1.4752  0.0345  0.1595
  150MOL    H3639074   2.069   0.310   4.169  0.1512  0.1510 -0.1749
  150MOL    H3739075   2.062   0.417   4.301 -0.2304 -0.5311 -1.2038
  150MOL    H3839076   2.220   0.329   4.251 -0.8918 -0.9176  1.7947
  150MOL    H3939077   2.205   0.414   3.954  1.9135  0.9337  0.3350
  150MOL    H4039078   2.223   0.590   3.960  3.4769 -1.1052  1.0405
  150MOL    C4139079   2.010   0.520   3.960 -0.2403  0.4085 -0.2278
  150MOL    C4239080   1.989   0.530   3.814 -0.3499 -0.4464  0.1612
  150MOL    C4339081   1.913   0.446   3.741 -0.2360  0.5053  0.0925
  150MOL    C4439082   1.826   0.335   3.797 -0.5868  0.0745  0.1125
  150MOL    C4539083   1.925   0.452   3.586  0.4391 -0.9078  0.2633
  150MOL    H4639084   1.995   0.621   3.998  0.3927 -0.2496  1.8457
  150MOL    H4739085   1.942   0.454   4.014 -0.1449  0.7242  0.2861
  150MOL    H4839086   2.046   0.610   3.769  0.6176 -0.9735  0.4354
  150MOL    H4939087   1.786   0.350   3.897 -0.5307 -1.1669  0.3239
  150MOL    H5039088   1.880   0.242   3.811 -0.2742  0.2087 -0.2064
  150MOL    H5139089   1.741   0.314   3.732 -0.4746  2.0617 -0.7106
  150MOL    H5239090   1.978   0.543   3.559 -1.6050  0.2105 -0.0128
  150MOL    H5339091   1.826   0.463   3.543 -0.4956 -1.9837  2.0728
  150MOL    C5439092   1.997   0.323   3.524 -0.0109 -0.7203  0.4797
  150MOL    C5539093   2.133   0.296   3.591 -0.1833  0.2209  0.7881
  150MOL    C5639094   2.180   0.175   3.627  0.1393  0.5348  0.0852
  150MOL    C5739095   2.108   0.045   3.601 -0.2121 -0.1809 -0.2588
  150MOL    C5839096   2.299   0.161   3.721 -0.0202 -0.3073 -0.7455
  150MOL    H5939097   2.018   0.333   3.417  0.1766  1.0286  0.6711
  150MOL    H6039098   1.934   0.234   3.531  0.4479 -0.9601  1.5166
  150MOL    H6139099   2.191   0.387   3.592 -0.5574  0.5503 -2.0769
  150MOL    H6239100   2.060   0.047   3.503 -0.4066 -1.9065 -0.2185
  150MOL    H6339101   2.031   0.020   3.674  1.2010 -0.3009  1.2169
  150MOL    H6439102   2.169   7.837   3.597  3.5341  2.2029  0.3156
  150MOL    H6539103   2.351   0.257   3.722 -0.4009 -0.0948  0.6939
  150MOL    H6639104   2.369   0.083   3.692 -0.0628 -2.2853  3.9446
  150MOL    C6739105   2.269   0.122   3.869  0.1230  0.0361 -0.7679
  150MOL    C6839106   2.388   0.109   3.965 -0.1513 -0.6328  0.6240
  150MOL    C6939107   2.469   0.004   3.988 -0.2245  0.2059  0.0537
  150MOL    C7039108   2.444   7.744   3.934  0.2509 -0.1362  0.0887
  150MOL    C7139109   2.597   0.019   4.060  0.5231  0.7861 -0.6864
  150MOL    H7239110   2.221   0.025   3.872 -0.0887  0.1399 -0.7527
  150MOL    H7339111   2.189   0.186   3.908  0.0661 -0.4150 -0.1331
  150MOL    H7439112   2.429   0.201   4.003  0.0706 -0.6316  0.3800
  150MOL    H7539113   2.336   7.733   3.938  0.0998  0.8808 -1.0991
  150MOL    H7639114   2.490   7.666   3.995 -0.5297 -2.2093 -1.9054
  150MOL    H7739115   2.470   7.739   3.828  1.5162  0.5918  0.3495
  150MOL    H7839116   2.602   7.827   4.139 -1.7698 -1.3796 -2.5065
  150MOL    H7939117   2.598   0.116   4.108  2.6241 -0.1036  1.1674
  150MOL    C8039118   2.720   0.023   3.972  0.1551  0.3340  0.1290
  150MOL    C8139119   2.840   0.029   4.059 -0.5628  0.3004  0.0787
  150MOL    C8239120   2.938   7.826   4.077 -0.1858  0.1836  0.1999
  150MOL    C8339121   2.955   7.694   4.006 -0.3446 -0.5052  0.1569
  150MOL    C8439122   3.040   7.853   4.197  0.7467  0.5028 -0.2850
  150MOL    H8539123   2.723   0.105   3.901  3.6877 -0.0241 -0.2207
  150MOL    H8639124   2.732   7.818   3.908  1.4740  1.0730 -0.6561
  150MOL    H8739125   2.847   0.121   4.116 -1.3800  1.2812 -1.3658
  150MOL    H8839126   2.914   7.611   4.063  0.2791 -2.5356 -2.2645
  150MOL    H8939127   3.058   7.659   4.001  0.2575  0.9200  2.1181
  150MOL    H9039128   2.922   7.707   3.902  2.2307  2.5550 -0.3447
  150MOL    H9139129   3.076   7.758   4.236 -0.0890 -0.4097 -1.6608
  150MOL    H9239130   2.989   0.022   4.278  2.8230  0.3756  1.1258
  150MOL    C9339131   3.161   0.052   4.153 -0.0407 -0.0854  0.0871
  150MOL    C9439132   3.288   0.036   4.225 -0.1568  0.6298 -0.1886
  150MOL    C9539133   3.398   0.111   4.209 -0.5624 -0.8152 -0.8460
  150MOL    C9639134   3.389   0.238   4.129 -1.1214  0.4414  0.1152
  150MOL    C9739135   3.541   0.079   4.270 -0.5317 -0.6008  0.2326
  150MOL    H9839136   3.127   0.156   4.147 -3.6789 -1.1458  0.7585
  150MOL    H9939137   3.175   0.016   4.051 -0.4628  1.8919 -0.6834
  150MOL   H10039138   3.293   7.838   4.297 -0.8280  0.7381 -0.0240
  150MOL   H10139139   3.451   0.226   4.040  1.9032 -1.0983  2.3536
  150MOL   H10239140   3.424   0.315   4.198  2.7283 -1.0500 -0.0938
  150MOL   H10339141   3.291   0.271   4.092 -1.3391 -0.4398 -0.0925
  150MOL   H10439142   3.525   7.865   4.316 -1.2832 -0.2917  0.6279
  150MOL   H10539143   3.552   0.151   4.351 -1.2342  0.3232 -0.4703
  150MOL   C10639144   3.655   0.083   4.173 -1.4225 -0.0809 -0.1973
  150MOL   C10739145   3.773   0.028   4.236 -0.1429  0.6994  0.2169
  150MOL   C10839146   3.831   7.791   4.225  0.5324 -0.1927  0.5458
  150MOL   C10939147   3.773   7.688   4.129 -0.2169  0.3949 -0.2140
  150MOL   C11039148   3.959   7.760   4.303 -0.1408  0.8936 -0.0982
  150MOL   H11139149   3.674   0.184   4.136  0.3707 -0.2411  0.2606
  150MOL   H11239150   3.623   0.019   4.091  1.3599 -0.6420 -0.8797
  150MOL   H11339151   3.821   0.093   4.308 -0.7585  0.9331  0.4143
  150MOL   H11439152   3.801   7.700   4.024 -1.9154 -0.5057 -0.7972
  150MOL   H11539153   3.664   7.693   4.131 -0.2923  1.7102 -4.2324
  150MOL   H11639154   3.797   7.585   4.155 -0.4460  0.2649 -0.5102
  150MOL   H11739155   3.941   7.691   4.386 -0.5596  0.5412 -0.4811
  150MOL   H11839156   3.985   7.849   4.359 -3.9089 -0.0865  3.4904
  150MOL   C11939157   4.081   7.703   4.223  0.3092 -0.4279 -0.0199
  150MOL   C12039158   4.204   7.663   4.310  0.3489  0.1575 -0.3716
  150MOL   C12139159   4.340   7.676   4.295  0.1023  0.4694  0.0778
  150MOL   C12239160   4.394   7.761   4.185 -0.5043 -0.5056 -0.0360
  150MOL   C12339161   4.453   7.629   4.380 -0.7350  0.9086  0.2713
  150MOL   H12439162   4.115   7.771   4.145 -3.6120 -0.1447 -1.6128
  150MOL   H12539163   4.043   7.614   4.174  1.5428 -1.1325  0.2874
  150MOL   H12639164   4.174   7.600   4.393 -1.2947  1.0375 -0.2718
  150MOL   H12739165   4.456   7.706   4.115 -0.0980  2.2314 -1.8975
  150MOL   H12839166   4.448   7.841   4.236  0.2202 -0.7451 -0.4193
  150MOL   H12939167   4.325   7.824   4.130  0.0744 -0.9268 -1.2642
  150MOL   H13039168   4.532   7.702   4.398  0.7239 -0.2668 -1.2371
  150MOL   H13139169   4.505   7.548   4.328  0.6800  0.5653  2.1334
  150MOL   C13239170   4.411   7.557   4.509 -0.3215  0.1637 -0.0577
  150MOL   C13339171   4.529   7.498   4.587 -0.6201 -0.0704  0.5921
  150MOL   C13439172   4.544   7.375   4.646 -0.0789 -0.6914 -0.1510
  150MOL   C13539173   4.442   7.257   4.646 -0.9652  0.2413 -0.1208
  150MOL   C13639174   4.675   7.355   4.719 -0.2917  0.4547 -0.1733
  150MOL   H13739175   4.337   7.480   4.486  1.0320 -1.4753  0.9940
  150MOL   H13839176   4.357   7.619   4.581  0.5923 -1.2055  1.8417
  150MOL   H13939177   4.613   7.566   4.590 -2.3999  2.3416 -1.8824
  150MOL   H14039178   4.389   7.241   4.740 -1.6288  1.4165 -0.2820
  150MOL   H14139179   4.494   7.164   4.627 -1.7216 -0.0673 -0.7079
  150MOL   H14239180   4.362   7.276   4.574  0.3288 -0.0255 -1.6603
  150MOL   H14339181   4.752   7.428   4.694 -0.8561  1.2573  0.3812
  150MOL   H14439182   4.706   7.256   4.685 -0.5462  0.3152 -0.0022
  150MOL   C14539183   4.657   7.355   4.870  0.5707 -0.8986  0.5457
  150MOL   C14639184   4.788   7.354   4.952 -0.7041  0.6733  0.3084
  150MOL   C14739185   4.825   7.264   5.046  0.0990  0.6881  0.9066
  150MOL   C14839186   4.749   7.143   5.091 -0.2190  0.2843  0.3423
  150MOL   C14939187   4.962   7.274   5.117 -0.7092  0.2453  0.9947
  150MOL   H15039188   4.589   7.276   4.903 -0.3835  0.2010  1.1990
  150MOL   H15139189   4.617   7.452   4.896  1.8801  0.4089 -2.1408
  150MOL   H15239190   4.849   7.440   4.930 -0.7914  0.3306 -1.3287
  150MOL   H15339191   4.773   7.052   5.036 -0.5493  0.9600 -0.9562
  150MOL   H15439192   4.644   7.158   5.065  0.1060 -1.4040 -2.1344
  150MOL   H15539193   4.758   7.115   5.195  0.5326  0.2209  0.2614
  150MOL   H15639194   5.022   7.345   5.060 -3.1543 -0.1217 -2.1110
  150MOL   H15739195   5.016   7.180   5.104 -0.2551  0.7643 -0.9861
  150MOL   C15839196   4.947   7.318   5.263  0.3778 -0.4153 -0.3383
  150MOL   C15939197   4.896   7.457   5.275  0.5720 -0.3148  1.4346
  150MOL   C16039198   4.973   7.574   5.284  0.0652 -0.1865 -0.1299
  150MOL   C16139199   5.125   7.576   5.300  0.9219  0.8528 -0.1527
  150MOL   C16239200   4.901   7.704   5.299 -0.5741  0.4912 -0.3821
  150MOL   H16339201   5.049   7.311   5.301  0.3056 -0.7498 -0.1952
  150MOL   H16439202   4.883   7.248   5.317 -1.7585  1.0820 -0.8655
  150MOL   H16539203   4.789   7.472   5.266  0.7261  0.3760  0.7014
  150MOL   H16639204   5.164   7.661   5.243  1.3518  0.5926 -0.2510
  150MOL   H16739205   5.174   7.483   5.270  0.5244  0.9509 -1.1378
  150MOL   H16839206   5.148   7.586   5.406 -1.5389 -0.9272  0.5888
  150MOL   H16939207   4.909   7.732   5.404  0.4427 -2.0545  0.2663
  150MOL   H17039208   4.796   7.695   5.271 -0.4708 -0.7961 -0.4034
  150MOL   C17139209   4.952   7.822   5.208  0.1426  0.6058  0.5949
  150MOL   C17239210   4.968   7.785   5.062  0.7360  0.2568  0.1659
  150MOL   C17339211   4.911   7.845   4.958 -0.2305  0.4638  0.5683
  150MOL   C17439212   4.828   0.086   4.965 -0.1127  0.2135  0.7049
  150MOL   C17539213   4.938   7.791   4.818  0.0209  0.0022  0.1337
  150MOL   H17639214   5.048   7.859   5.243 -0.1076 -1.1192  3.2738
  150MOL   H17739215   4.880   0.021   5.218 -0.2192  0.1287  2.1270
  150MOL   H17839216   5.028   7.697   5.045  0.3218  0.6225 -3.6254
  150MOL   H17939217   4.874   0.159   5.032  1.7906 -0.0050 -0.3496
  150MOL   H18039218   4.728   0.065   5.002  0.1691 -0.7851  0.8908
  150MOL   H18139219   4.820   0.135   4.867 -0.7040  1.2217  1.2428
  150MOL   H18239220   5.003   7.704   4.819 -1.7123 -1.3666 -0.9237
  150MOL   H18339221   4.990   7.869   4.762  0.7116  2.0991  3.6081
  150MOL   C18439222   4.819   7.753   4.736  0.3343 -0.2214  0.0171
  150MOL   C18539223   4.852   7.697   4.601 -0.3136 -0.1026 -1.2809
  150MOL   C18639224   4.855   7.756   4.479 -0.1833  0.6013 -0.5386
  150MOL   C18739225   4.804   0.013   4.450  0.3734 -0.3299 -0.3625
  150MOL   C18839226   4.907   7.687   4.355 -0.7039  0.1775  0.2116
  150MOL   H18939227   4.754   7.840   4.725  0.1267 -0.4105 -0.2637
  150MOL   H19039228   4.750   7.687   4.788  0.3217  0.2332  0.5799
  150MOL   H19139229   4.904   7.603   4.612 -0.2707  0.1178  0.4215
  150MOL   H19239230   4.876   0.052   4.377  0.5626  0.7703  0.3988
  150MOL   H19339231   4.819   0.082   4.533 -0.6075  0.0870 -0.5301
  150MOL   H19439232   4.700   0.011   4.420  0.3807 -1.4920 -0.3288
  150MOL   H19539233   5.000   7.740   4.331 -0.5563 -0.8833 -1.6639
  150MOL   H19639234   4.830   7.702   4.279 -0.4714 -1.9222 -0.4666
  150MOL   C19739235   4.943   7.545   4.362 -0.3700 -0.2367  0.5636
  150MOL   C19839236   5.017   7.501   4.232 -0.1426  0.2199  0.1493
  150MOL   C19939237   5.087   7.386   4.220 -0.6596 -0.6981 -0.7018
  150MOL   C20039238   5.108   7.282   4.335  0.0520  0.3627 -0.3851
  150MOL   C20139239   5.159   7.356   4.091  0.0878  0.1507  0.3552
  150MOL   H20239240   4.849   7.490   4.367 -0.0369 -1.1338 -2.1822
  150MOL   H20339241   5.000   7.506   4.446 -0.7476 -2.0227  0.0219
  150MOL   H20439242   5.005   7.564   4.145  1.2819  0.2454 -0.0314
  150MOL   H20539243   5.136   7.182   4.300  1.5021  1.1360 -1.5146
  150MOL   H20639244   5.018   7.271   4.395  0.7946 -1.2258  0.4511
  150MOL   H20739245   5.197   7.310   4.391  0.0115 -1.3066  0.5474
  150MOL   H20839246   5.260   7.322   4.117 -0.6965 -2.6006 -0.0783
  150MOL   H20939247   5.174   7.450   4.037  1.4778  0.2727  0.9247
  150MOL   C21039248   5.077   7.249   4.019 -0.1323 -0.3232  0.1826
  150MOL   C21139249   5.136   7.216   3.883 -0.1188  0.0544 -0.1441
  150MOL   C21239250   5.139   7.099   3.822 -0.0449  0.6822  0.4588
  150MOL   C21339251   5.070   6.974   3.879 -0.4251 -0.1855 -0.1796
  150MOL   C21439252   5.201   7.079   3.686  0.1393 -0.2907  0.2716
  150MOL   H21539253   4.975   7.279   3.994  0.5634  1.8465 -0.1235
  150MOL   H21639254   5.081   7.160   4.083  0.0200 -3.9328 -4.5955
  150MOL   H21739255   5.187   7.294   3.829  0.8752  0.3171  1.1383
  150MOL   H21839256   5.006   7.001   3.963  2.1701 -1.7690  2.3902
  150MOL   H21939257   5.145   6.912   3.929 -1.1241 -1.5508 -0.7892
  150MOL   H22039258   5.000   6.941   3.802 -0.9706  0.1117  0.1833
  150MOL   H22139259   5.275   6.999   3.688  0.3337 -0.2042 -2.0357
  150MOL   H22239260   5.278   7.152   3.660  1.7832 -1.5785  1.4177
  150MOL   C22339261   5.099   7.093   3.570  0.6558  0.2292 -0.1140
  150MOL   C22439262   5.171   7.051   3.438  0.5102  0.4159 -0.2976
  150MOL   C22539263   5.163   7.115   3.317  0.0245  0.1425 -0.0827
  150MOL   C22639264   5.101   7.251   3.285  0.0237  0.6051  0.3269
  150MOL   C22739265   5.232   7.050   3.194 -0.4748  0.1092  0.7376
  150MOL   H22839266   5.067   7.196   3.555  2.1921  0.6645 -0.4737
  150MOL   H22939267   5.017   7.024   3.587 -0.2011  0.7543 -1.9820
  150MOL   H23039268   5.223   6.958   3.454  1.4485  1.0735  0.5482
  150MOL   H23139269   5.068   7.299   3.377  1.6393  1.5686  0.4130
  150MOL   H23239270   5.013   7.233   3.223  0.5825  2.4215 -1.0301
  150MOL   H23339271   5.169   7.328   3.248 -1.5399  2.0072  0.3263
  150MOL   H23439272   5.167   7.018   3.113 -0.6653  1.2499  0.4228
  150MOL   H23539273   5.274   6.953   3.218  0.9476 -0.2492 -2.9989
  150MOL   C23639274   5.330   7.148   3.122  0.0090  0.3551 -0.0494
  150MOL   C23739275   5.380   7.080   2.992 -0.2226  0.1505 -0.5278
  150MOL   C23839276   5.502   7.069   2.951 -0.9103  0.1192 -0.4992
  150MOL   C23939277   5.625   7.118   3.023 -0.3699  0.6229  0.3496
  150MOL   C24039278   5.534   7.012   2.814 -0.1437  0.9377 -0.3180
  150MOL   H24139279   5.405   7.181   3.194 -0.9231 -0.2501  1.2187
  150MOL   H24239280   5.282   7.242   3.092 -2.5955 -0.5878  1.0753
  150MOL   H24339281   5.303   7.047   2.923 -0.3138 -0.3610 -0.1870
  150MOL   H24439282   5.691   7.032   3.032 -0.9412  0.2800  1.4795
  150MOL   H24539283   5.623   7.160   3.124 -0.9505  2.4971 -0.4111
  150MOL   H24639284   5.670   7.191   2.956  0.5089 -2.1925 -2.2120
  150MOL   H24739285   5.449   6.958   2.772  2.2821 -1.5703 -2.1584
  150MOL   H24839286   5.611   6.936   2.824 -0.9233  0.0926 -0.7004
  150MOL   C24939287   5.587   7.114   2.715 -0.4691 -0.6208 -0.2602
  150MOL   C25039288   5.595   7.053   2.582 -0.2433  0.7921  0.2048
  150MOL   C25139289   5.711   7.007   2.522 -0.5981 -0.3044  0.4124
  150MOL   C25239290   5.845   7.006   2.592  0.3532 -0.4827  0.0014
  150MOL   C25339291   5.713   6.951   2.384 -0.0955 -0.3703 -0.1488
  150MOL   H25439292   5.679   7.166   2.742 -0.3285 -0.5530 -0.8462
  150MOL   H25539293   5.521   7.200   2.715 -1.9259 -1.7265  0.8360
  150MOL   H25639294   5.500   7.056   2.532  0.5583  0.0030 -1.3987
  150MOL   H25739295   5.892   7.104   2.587  0.1257 -0.3216  0.8405
  150MOL   H25839296   5.905   6.921   2.557  3.1575  1.8175 -0.9671
  150MOL   H25939297   5.819   6.985   2.696  0.1408 -2.6874 -0.4557
  150MOL   H26039298   5.809   6.967   2.334  0.8091 -0.5919  1.4871
  150MOL   H26139299   5.637   6.999   2.323 -1.1434 -0.8378  0.7855
  150MOL   H26239300   5.677   6.849   2.397  2.4126 -1.1227  1.3370
  151MOL     C139301   5.040   6.457   2.237  0.3038  0.1428 -0.2658
  151MOL     C239302   5.140   6.513   2.346 -0.1831 -0.4062 -0.0770
  151MOL     C339303   5.273   6.533   2.332  0.2187  0.9041  0.3761
  151MOL     C439304   5.349   6.513   2.201  0.2535 -0.3822  0.0733
  151MOL     C539305   5.356   6.591   2.447 -0.2023 -0.1753  0.0628
  151MOL     H639306   5.041   6.348   2.246  2.2856 -0.0044 -2.0260
  151MOL     H739307   4.939   6.495   2.256  0.2869  2.4493 -4.4990
  151MOL     H839308   5.102   6.543   2.443  0.6378 -0.6621  0.3237
  151MOL     H939309   5.370   6.608   2.152  2.1810  0.0317  1.5934
  151MOL    H1039310   5.291   6.455   2.130  0.7340 -2.5182  1.3619
  151MOL    H1139311   5.444   6.467   2.230  0.8819  0.1024 -1.1982
  151MOL    H1239312   5.460   6.560   2.437  0.0423  1.2007 -2.0795
  151MOL    H1339313   5.334   6.541   2.541  1.4613 -3.4785 -1.2388
  151MOL    H1439314   5.070   6.483   2.136  2.5961  0.9430  0.5959
  151MOL    C1539315   5.372   6.738   2.437  0.1838 -0.3990 -0.2964
  151MOL    C1639316   5.261   6.816   2.510 -0.4534  0.2376 -0.0394
  151MOL    C1739317   5.182   6.902   2.445 -0.4746 -0.4054 -0.5852
  151MOL    C1839318   5.194   6.929   2.294  0.2003  0.4289 -0.0378
  151MOL    C1939319   5.077   6.983   2.518 -0.2602 -0.3245 -0.0867
  151MOL    H2039320   5.404   6.771   2.339 -0.8400  0.2690 -0.4100
  151MOL    H2139321   5.460   6.756   2.500 -1.2856 -0.8029  1.9488
  151MOL    H2239322   5.243   6.793   2.614  0.5944 -1.1756 -0.1534
  151MOL    H2339323   5.088   6.946   2.271  0.3677  0.4012 -0.8444
  151MOL    H2439324   5.229   6.843   2.238 -2.6402 -1.5103  1.0541
  151MOL    H2539325   5.260   7.013   2.272 -0.6625  1.4778  1.2444
  151MOL    H2639326   5.045   6.934   2.610 -0.4275 -0.0271  0.0138
  151MOL    H2739327   4.981   7.006   2.471 -0.1840  1.7168  0.6788
  151MOL    C2839328   5.132   7.111   2.575 -0.9469 -0.4721 -0.1900
  151MOL    C2939329   5.058   7.166   2.695 -0.0257 -0.7541  0.1788
  151MOL    C3039330   5.092   7.264   2.783 -0.5812 -0.3069  0.9363
  151MOL    C3139331   5.227   7.339   2.775  0.7615  0.0278 -0.0214
  151MOL    C3239332   4.998   7.294   2.899 -0.3707  0.3145 -0.1203
  151MOL    H3339333   5.130   7.185   2.495 -0.4890  0.5439  0.7269
  151MOL    H3439334   5.239   7.100   2.591 -0.8281  0.5152 -0.2421
  151MOL    H3539335   4.956   7.130   2.694  0.1556 -1.2580 -0.3564
  151MOL    H3639336   5.204   7.445   2.766 -0.6367 -0.2810 -0.3330
  151MOL    H3739337   5.291   7.310   2.691  2.0910  0.8429  0.6985
  151MOL    H3839338   5.290   7.315   2.860  1.5670  0.4150 -0.5092
  151MOL    H3939339   5.051   7.261   2.988 -0.9869 -0.9565 -0.2097
  151MOL    H4039340   4.907   7.234   2.887  0.5768 -1.1755  0.0181
  151MOL    C4139341   4.939   7.433   2.913  0.0806 -0.1665  0.5639
  151MOL    C4239342   4.823   7.422   3.003 -0.0941  0.3008 -0.4016
  151MOL    C4339343   4.699   7.476   2.985 -0.4584  0.1343  0.1649
  151MOL    C4439344   4.655   7.559   2.870  0.3283  1.2026  0.2369
  151MOL    C4539345   4.590   7.448   3.085  0.6130 -0.6671  0.0139
  151MOL    H4639346   4.911   7.451   2.809  0.1038  0.6071  0.6908
  151MOL    H4739347   5.010   7.512   2.939  1.0458 -0.7538 -0.2289
  151MOL    H4839348   4.838   7.367   3.094 -1.0415 -0.5419 -0.7451
  151MOL    H4939349   4.550   7.545   2.846  0.8528 -3.0231  0.0857
  151MOL    H5039350   4.714   7.539   2.781 -1.8469  1.3519 -1.2767
  151MOL    H5139351   4.665   7.664   2.898  1.5811  0.9751  0.6875
  151MOL    H5239352   4.523   7.534   3.082 -0.2654 -1.3521 -0.3432
  151MOL    H5339353   4.623   7.427   3.187  1.2682 -0.1793 -0.0932
  151MOL    C5439354   4.493   7.344   3.031 -0.5988 -0.3212 -0.5109
  151MOL    C5539355   4.380   7.326   3.136 -0.0470  0.7014  0.1739
  151MOL    C5639356   4.263   7.258   3.124 -0.3545  0.3875  0.5899
  151MOL    C5739357   4.229   7.180   3.005  0.5699  0.0731  0.2431
  151MOL    C5839358   4.163   7.245   3.237 -0.5452 -0.3000  0.6081
  151MOL    H5939359   4.535   7.248   3.002  3.3460  0.0969  3.2627
  151MOL    H6039360   4.451   7.373   2.935 -1.2194 -0.5762 -0.3248
  151MOL    H6139361   4.403   7.376   3.229  2.2431  1.0905 -0.5568
  151MOL    H6239362   4.135   7.221   2.969  0.1063 -0.2267  1.0987
  151MOL    H6339363   4.233   7.074   3.029 -3.0932  0.0033  0.7489
  151MOL    H6439364   4.297   7.211   2.925  1.5513 -0.6037  0.8064
  151MOL    H6539365   4.219   7.258   3.329 -0.5140 -2.3308  0.8988
  151MOL    H6639366   4.138   7.139   3.234  2.9082 -1.1292 -1.4856
  151MOL    C6739367   4.048   7.344   3.222  0.4974  0.4822 -0.6657
  151MOL    C6839368   4.090   7.487   3.226  0.2957 -0.4981 -0.4647
  151MOL    C6939369   4.080   7.578   3.131 -0.6595 -0.9118  0.3754
  151MOL    C7039370   4.022   7.551   2.990 -0.0699 -0.1842  0.3281
  151MOL    C7139371   4.119   7.717   3.166  0.9111  0.1961  0.0550
  151MOL    H7239372   3.972   7.335   3.299  2.0543  0.8617  0.9317
  151MOL    H7339373   3.985   7.330   3.133  1.0702 -0.0268 -0.9996
  151MOL    H7439374   4.125   7.514   3.325 -3.1859  0.2898  0.6073
  151MOL    H7539375   3.913   7.558   2.992 -0.0793  0.8184 -1.9015
  151MOL    H7639376   4.052   7.453   2.951  1.9576 -0.1340  1.6892
  151MOL    H7739377   4.052   7.628   2.919  2.4933 -1.5526 -0.1601
  151MOL    H7839378   4.182   7.755   3.086  0.9577 -0.2082 -0.1007
  151MOL    H7939379   4.173   7.724   3.260 -1.5585  2.9305  1.3357
  151MOL    C8039380   3.992   7.803   3.169 -0.3451 -0.5331  0.4129
  151MOL    C8139381   4.021   0.059   3.209  0.0907  0.3709  0.3256
  151MOL    C8239382   3.953   0.165   3.161 -0.7849  0.1945 -0.6862
  151MOL    C8339383   3.836   0.157   3.057  0.1711  1.0072  0.1097
  151MOL    C8439384   3.982   0.303   3.215  0.4498 -0.5999 -0.4218
  151MOL    H8539385   3.915   7.773   3.240 -0.4744  0.6426  0.7850
  151MOL    H8639386   3.943   7.804   3.072 -0.9187 -0.1652  0.7003
  151MOL    H8739387   4.103   0.076   3.277  0.7388  2.1425 -0.8558
  151MOL    H8839388   3.743   0.140   3.110  0.3027  1.4241  0.4803
  151MOL    H8939389   3.850   0.073   2.988  0.0029  0.8522  0.2655
  151MOL    H9039390   3.833   0.245   2.994  0.0437  0.4072 -0.7295
  151MOL    H9139391   4.005   0.375   3.136 -0.5335  1.9248  1.5144
  151MOL    H9239392   4.065   0.291   3.286 -0.5201 -0.2376  0.7925
  151MOL    C9339393   3.865   0.362   3.296  0.0364  0.3091 -0.3265
  151MOL    C9439394   3.912   0.480   3.381 -0.4023  0.2059 -0.4248
  151MOL    C9539395   3.839   0.583   3.434 -0.4182 -0.0945 -0.2926
  151MOL    C9639396   3.698   0.625   3.399 -0.1342 -0.0170 -0.4364
  151MOL    C9739397   3.900   0.681   3.527 -0.8137  0.0262  0.3544
  151MOL    H9839398   3.832   0.284   3.365  2.4690  0.9379  1.5942
  151MOL    H9939399   3.791   0.399   3.225  1.0707  1.7559 -0.6551
  151MOL   H10039400   4.010   0.468   3.424 -0.4790  1.0188 -0.0130
  151MOL   H10139401   3.665   0.566   3.314 -0.0283  0.4423 -0.7989
  151MOL   H10239402   3.684   0.731   3.375 -1.0686 -0.0715 -0.1219
  151MOL   H10339403   3.635   0.599   3.484  0.4864 -2.0695 -0.5828
  151MOL   H10439404   3.832   0.766   3.537  0.5206  1.2862 -1.0179
  151MOL   H10539405   3.997   0.722   3.496 -0.1572 -0.6537  1.4722
  151MOL   C10639406   3.911   0.629   3.673  0.1722 -0.3571  0.6725
  151MOL   C10739407   3.776   0.591   3.742  0.5781  0.3821  0.1115
  151MOL   C10839408   3.747   0.469   3.803  0.6508  0.2839  0.2532
  151MOL   C10939409   3.853   0.359   3.830  0.5329  0.1108 -0.0181
  151MOL   C11039410   3.602   0.437   3.847 -0.1076 -0.3864 -0.6950
  151MOL   H11139411   3.945   0.709   3.738  1.9207 -0.1608 -0.4438
  151MOL   H11239412   3.977   0.543   3.660  0.3255 -0.0413 -0.7065
  151MOL   H11339413   3.703   0.671   3.737  1.5334  1.4551  2.7501
  151MOL   H11439414   3.823   0.263   3.787 -0.7016  0.4593  0.0595
  151MOL   H11539415   3.851   0.338   3.937  0.1272  0.0604 -0.0359
  151MOL   H11639416   3.953   0.389   3.799  0.7787 -0.3204  0.3402
  151MOL   H11739417   3.549   0.526   3.880  2.5377  1.5393 -1.4465
  151MOL   H11839418   3.610   0.365   3.929  3.0580  1.0469  0.3710
  151MOL   C11939419   3.532   0.368   3.729 -0.1994  0.1543 -0.0774
  151MOL   C12039420   3.381   0.362   3.751  0.6060 -0.6183 -1.1853
  151MOL   C12139421   3.314   0.253   3.792  0.1696 -0.8925  0.0764
  151MOL   C12239422   3.382   0.116   3.807  0.1897 -0.3625  0.0470
  151MOL   C12339423   3.158   0.251   3.797 -0.5611  0.1932 -0.5563
  151MOL   H12439424   3.593   0.280   3.710  1.5289  1.1825  0.5422
  151MOL   H12539425   3.545   0.422   3.635  1.2540 -0.5776 -0.3201
  151MOL   H12639426   3.334   0.454   3.719  0.6460  0.6271  2.1594
  151MOL   H12739427   3.488   0.127   3.832 -0.1388  1.5229  0.7010
  151MOL   H12839428   3.367   0.072   3.708  0.9969 -1.4867  0.4117
  151MOL   H12939429   3.335   0.058   3.887 -1.9345  1.8908  0.4928
  151MOL   H13039430   3.124   0.355   3.800 -0.6720  0.2426 -2.9538
  151MOL   H13139431   3.151   0.218   3.901 -2.5608 -0.0242 -0.7347
  151MOL   C13239432   3.086   0.156   3.703  0.1488  0.1011  0.2566
  151MOL   C13339433   2.939   0.179   3.695 -0.5189  0.7378 -0.2004
  151MOL   C13439434   2.876   0.252   3.604  0.2456  0.8195  0.0557
  151MOL   C13539435   2.940   0.329   3.496 -0.4575 -0.3551  0.2553
  151MOL   C13639436   2.726   0.255   3.606 -0.3297  0.4922 -0.4817
  151MOL   H13739437   3.108   0.050   3.719 -2.5860 -0.5310  0.1301
  151MOL   H13839438   3.119   0.160   3.600  1.3211 -0.6542  0.5976
  151MOL   H13939439   2.883   0.125   3.770  0.7886  1.2913  1.2083
  151MOL   H14039440   2.882   0.414   3.460 -0.1528 -0.2914 -0.0889
  151MOL   H14139441   2.979   0.271   3.412 -1.0124 -1.8403  1.0065
  151MOL   H14239442   3.025   0.390   3.528 -1.2265  0.3750  0.9314
  151MOL   H14339443   2.687   0.185   3.680  1.7016 -1.2289 -0.9775
  151MOL   H14439444   2.691   0.214   3.511  0.5377  0.2963 -0.7207
  151MOL   C14539445   2.649   0.382   3.648  0.4261  0.8412 -0.2139
  151MOL   C14639446   2.702   0.435   3.784 -0.8318 -0.1495  0.7371
  151MOL   C14739447   2.635   0.502   3.877  0.5202 -0.0439 -0.4010
  151MOL   C14839448   2.481   0.528   3.862  0.2240 -0.5423 -0.3876
  151MOL   C14939449   2.703   0.549   3.999  0.8287  0.8361 -0.2134
  151MOL   H15039450   2.542   0.357   3.646  0.5134  0.5115 -1.8601
  151MOL   H15139451   2.672   0.452   3.568  1.7829  0.9895  0.2961
  151MOL   H15239452   2.807   0.416   3.798 -0.5387  1.0703  0.2644
  151MOL   H15339453   2.475   0.637   3.854  1.4580 -0.7022 -4.1570
  151MOL   H15439454   2.419   0.515   3.951 -1.4276 -2.2639 -1.7436
  151MOL   H15539455   2.433   0.485   3.774 -0.5982 -0.3559 -0.0409
  151MOL   H15639456   2.684   0.650   4.034 -0.2632  0.2698  0.8978
  151MOL   H15739457   2.809   0.552   3.976  0.9442  0.0893  0.2148
  151MOL   C15839458   2.677   0.465   4.128 -0.3114 -0.5698  0.7363
  151MOL   C15939459   2.703   0.549   4.254 -0.7491 -0.3837 -0.4879
  151MOL   C16039460   2.789   0.518   4.359  0.1890 -0.3614  0.0142
  151MOL   C16139461   2.897   0.403   4.362  0.4745  0.3537  0.5560
  151MOL   C16239462   2.775   0.588   4.499 -0.0374  0.0012  0.0621
  151MOL   H16339463   2.737   0.374   4.128  0.7954  0.1324 -0.7963
  151MOL   H16439464   2.573   0.431   4.127 -0.1080 -1.2096 -1.1354
  151MOL   H16539465   2.625   0.621   4.271 -0.4707  0.3368 -2.1764
  151MOL   H16639466   2.966   0.432   4.441  1.2982  3.0447 -1.0796
  151MOL   H16739467   2.961   0.401   4.274 -1.2492  0.4407 -0.7367
  151MOL   H16839468   2.854   0.303   4.365 -1.5367  1.1769  0.5438
  151MOL   H16939469   2.839   0.543   4.575  1.7288  0.7909 -0.9284
  151MOL   H17039470   2.672   0.580   4.532  0.2750  0.0618  1.0813
  151MOL   C17139471   2.814   0.737   4.490  0.4804 -0.2081  0.6263
  151MOL   C17239472   2.817   0.805   4.628  0.1897 -0.3449  0.0574
  151MOL   C17339473   2.912   0.887   4.672 -0.0556 -0.3186 -0.7138
  151MOL   C17439474   3.041   0.912   4.595  0.3415  0.5438 -0.4533
  151MOL   C17539475   2.906   0.961   4.805 -0.4704 -0.0049  0.2937
  151MOL   H17639476   2.747   0.791   4.424  1.5588  0.5425  0.1354
  151MOL   H17739477   2.906   0.737   4.432  1.0288 -1.3501  1.4700
  151MOL   H17839478   2.728   0.800   4.690 -0.8574  0.3232 -1.3574
  151MOL   H17939479   3.069   1.017   4.607  1.6034  0.2043 -0.3595
  151MOL   H18039480   3.027   0.889   4.489  1.7605  1.1349 -0.7694
  151MOL   H18139481   3.112   0.854   4.652  0.7874  1.7432  0.2288
  151MOL   H18239482   2.805   0.949   4.844 -0.8885 -0.8419 -1.0190
  151MOL   H18339483   2.924   1.067   4.786  1.8643 -0.3900  0.2225
  151MOL   C18439484   2.995   0.914   4.914  1.1935 -0.5241 -0.9541
  151MOL   C18539485   2.994   1.003   5.040 -0.5472  0.2124 -0.0514
  151MOL   C18639486   3.089   1.056   5.116  0.0686  0.9466 -0.2047
  151MOL   C18739487   3.239   1.034   5.096  0.8140 -0.1576 -0.9568
  151MOL   C18839488   3.053   1.150   5.229 -0.0146 -0.3453  0.5265
  151MOL   H18939489   3.098   0.918   4.880  1.1734  1.0780 -0.8634
  151MOL   H19039490   2.973   0.811   4.943  0.2096  0.1675  0.8285
  151MOL   H19139491   2.893   1.027   5.068 -0.7072  0.7620 -1.0783
  151MOL   H19239492   3.293   1.115   5.047  1.2416  0.5048  0.5717
  151MOL   H19339493   3.280   0.950   5.040 -2.9562 -2.0219 -1.0822
  151MOL   H19439494   3.285   1.000   5.189 -2.5762  2.2289  1.7297
  151MOL   H19539495   3.102   1.117   5.321 -0.3691 -2.4260 -0.0042
  151MOL   H19639496   2.947   1.153   5.250 -0.1673 -1.5538 -0.0224
  151MOL   C19739497   3.092   1.294   5.207  0.1360 -0.0773  0.4134
  151MOL   C19839498   3.060   1.382   5.326  0.7732 -0.4319  0.2305
  151MOL   C19939499   2.970   1.483   5.339 -0.0039 -0.4083  0.3718
  151MOL   C20039500   2.874   1.513   5.228 -0.3872  0.0433 -0.2041
  151MOL   C20139501   2.953   1.556   5.474 -0.3257 -0.0717 -0.4607
  151MOL   H20239502   3.039   1.314   5.113  0.0209 -0.4145  0.4072
  151MOL   H20339503   3.199   1.295   5.186  0.5986  1.0618  2.7194
  151MOL   H20439504   3.118   1.344   5.409  0.9251  1.5180  1.0290
  151MOL   H20539505   2.863   1.621   5.231  3.0497  0.5189 -1.9893
  151MOL   H20639506   2.784   1.456   5.254 -0.3455  0.3528  0.6153
  151MOL   H20739507   2.923   1.470   5.140 -1.4675 -0.9341 -0.3430
  151MOL   H20839508   2.976   1.660   5.450  1.4239 -0.3833 -0.1734
  151MOL   H20939509   3.031   1.527   5.544 -0.4345  1.8840  0.5156
  151MOL   C21039510   2.815   1.520   5.534 -0.2014  1.0131 -0.0170
  151MOL   C21139511   2.806   1.579   5.671 -0.6457 -0.3214 -1.2030
  151MOL   C21239512   2.775   1.513   5.785  0.3624 -0.9512 -0.7257
  151MOL   C21339513   2.761   1.363   5.791  0.1147  0.4843  0.1313
  151MOL   C21439514   2.743   1.603   5.908 -0.6117 -0.4025 -0.2694
  151MOL   H21539515   2.783   1.418   5.512  0.1686  1.1477 -1.2217
  151MOL   H21639516   2.755   1.576   5.462  0.8787  0.1064 -1.6538
  151MOL   H21739517   2.805   1.687   5.668  0.0188 -0.2971 -0.7714
  151MOL   H21839518   2.793   1.331   5.891  2.1163  0.9049 -0.3515
  151MOL   H21939519   2.822   1.309   5.718 -0.3598 -0.5664  0.4994
  151MOL   H22039520   2.655   1.340   5.790  0.7392 -2.7535  0.9254
  151MOL   H22139521   2.636   1.595   5.928 -0.4460 -1.0937  0.3578
  151MOL   H22239522   2.776   1.705   5.885  0.9921 -0.7518  0.3929
  151MOL   C22339523   2.811   1.555   6.037  0.2758 -0.2690 -0.3235
  151MOL   C22439524   2.787   1.661   6.149  0.0883  0.9019 -0.2429
  151MOL   C22539525   2.880   1.730   6.216 -0.0259 -0.4891 -0.3256
  151MOL   C22639526   3.030   1.710   6.199 -0.0308 -0.2217 -0.3270
  151MOL   C22739527   2.826   1.850   6.305 -0.3316 -0.2311  0.1961
  151MOL   H22839528   2.918   1.541   6.020  0.3550 -1.7635  1.1811
  151MOL   H22939529   2.783   1.458   6.077  1.3323 -0.2913  0.4030
  151MOL   H23039530   2.680   1.673   6.154 -0.0918 -0.3309 -0.8461
  151MOL   H23139531   3.054   1.614   6.154  0.4156  0.2677 -1.1468
  151MOL   H23239532   3.086   1.712   6.293  0.8199 -1.6011 -0.7914
  151MOL   H23339533   3.065   1.790   6.134 -0.9389  0.5281  0.0931
  151MOL   H23439534   2.814   1.817   6.409 -2.3345  2.5379  0.8972
  151MOL   H23539535   2.728   1.879   6.267  0.9191  1.6654 -1.6731
  151MOL   C23639536   2.922   1.970   6.294 -0.0893  0.3950 -0.7638
  151MOL   C23739537   2.858   2.099   6.359  0.3002 -0.4902 -0.6486
  151MOL   C23839538   2.793   2.203   6.309  0.6428 -1.0922 -0.4769
  151MOL   C23939539   2.769   2.216   6.157 -0.2710 -0.1277 -0.0086
  151MOL   C24039540   2.736   2.317   6.394  0.0478  0.2169 -0.1430
  151MOL   H24139541   2.948   1.995   6.191  1.7341  1.9379  0.0408
  151MOL   H24239542   3.015   1.946   6.344  0.0628  0.2248 -1.1255
  151MOL   H24339543   2.865   2.082   6.466 -2.3509 -0.3781 -0.4232
  151MOL   H24439544   2.689   2.274   6.111  1.0930  0.4904 -1.6925
  151MOL   H24539545   2.761   2.117   6.113 -2.5294  0.0174  0.0646
  151MOL   H24639546   2.860   2.262   6.117 -1.4342  2.1790 -0.1078
  151MOL   H24739547   2.787   2.409   6.363  1.9002 -0.3718  1.0514
  151MOL   H24839548   2.754   2.286   6.497 -0.5586 -1.0970 -0.4343
  151MOL   C24939549   2.590   2.346   6.385 -0.5963 -0.0577 -0.5060
  151MOL   C25039550   2.545   2.451   6.480 -0.2215  0.4265  0.7536
  151MOL   C25139551   2.422   2.501   6.472  0.8338 -0.1239  0.3696
  151MOL   C25239552   2.314   2.435   6.392  0.4521 -0.1605  0.5501
  151MOL   C25339553   2.380   2.616   6.566 -0.1114  0.2689  0.2069
  151MOL   H25439554   2.532   2.254   6.390 -0.9781  0.0025 -3.0248
  151MOL   H25539555   2.572   2.385   6.284 -0.8822  0.4608 -0.2553
  151MOL   H25639556   2.620   2.500   6.541 -0.2801 -0.3769  1.4794
  151MOL   H25739557   2.236   2.392   6.456  1.6876 -0.0050  2.2001
  151MOL   H25839558   2.328   2.359   6.315 -1.5849 -0.6929  0.6831
  151MOL   H25939559   2.260   2.513   6.339  1.5749 -0.1927 -0.6606
  151MOL   H26039560   2.310   2.680   6.514  0.7044  1.4060  0.4741
  151MOL   H26139561   2.462   2.678   6.603  0.3894  0.6881 -1.5914
  151MOL   H26239562   2.335   2.584   6.660  0.8619 -0.5784  0.3925
  152MOL     C139563   3.296   1.335   5.855 -0.3418  0.0263  0.6843
  152MOL     C239564   3.275   1.483   5.825  0.2962 -0.2852  0.1580
  152MOL     C339565   3.265   1.551   5.708  0.1587  0.3959 -0.4367
  152MOL     C439566   3.319   1.494   5.579 -0.5032  0.4853 -0.3684
  152MOL     C539567   3.226   1.698   5.705 -0.0120 -0.4352  0.3817
  152MOL     H639568   3.337   1.283   5.768  0.2882 -0.1972  1.1124
  152MOL     H739569   3.365   1.307   5.935  2.4056 -0.4633 -1.7402
  152MOL     H839570   3.245   1.528   5.919  2.1280  1.8406 -0.2374
  152MOL     H939571   3.258   1.521   5.493  1.0184  0.0401 -1.6133
  152MOL    H1039572   3.305   1.386   5.566 -1.3019  0.5338  0.0672
  152MOL    H1139573   3.424   1.514   5.556  0.2859 -1.2776  1.4705
  152MOL    H1239574   3.191   1.737   5.800 -2.9436  2.4290 -1.7502
  152MOL    H1339575   3.147   1.714   5.631  1.3437 -0.5924 -1.1327
  152MOL    H1439576   3.202   1.286   5.878 -0.0502 -0.5498  0.6678
  152MOL    C1539577   3.344   1.789   5.668  0.0035  1.2070  0.4219
  152MOL    C1639578   3.300   1.926   5.626 -0.2040 -0.1032  0.0191
  152MOL    C1739579   3.262   1.962   5.504  0.0470 -0.7424  1.0140
  152MOL    C1839580   3.256   1.863   5.389  0.1921 -0.1260  1.1930
  152MOL    C1939581   3.223   2.102   5.468  0.0558 -0.7550  0.3707
  152MOL    H2039582   3.407   1.750   5.587  0.2609  2.7016 -0.1099
  152MOL    H2139583   3.409   1.792   5.756 -0.0240 -0.6065  0.5219
  152MOL    H2239584   3.310   2.012   5.691  0.2339  1.1367 -1.6511
  152MOL    H2339585   3.350   1.825   5.349 -0.5472  2.0391 -2.8527
  152MOL    H2439586   3.218   1.914   5.301  0.9560  0.7871  1.3886
  152MOL    H2539587   3.183   1.786   5.414  0.0561 -0.5206 -0.3763
  152MOL    H2639588   3.230   2.160   5.560 -3.5162  0.3513  0.0160
  152MOL    H2739589   3.119   2.088   5.438 -0.0603 -0.5863  0.6927
  152MOL    C2839590   3.300   2.167   5.346  0.8300 -0.2253  0.2751
  152MOL    C2939591   3.255   2.311   5.323  0.1999 -0.2334  0.5507
  152MOL    C3039592   3.326   2.408   5.253 -0.3595  0.4265  0.1504
  152MOL    C3139593   3.467   2.391   5.192  0.1539  0.0667  0.4555
  152MOL    C3239594   3.264   2.544   5.231 -1.1180  0.1715 -0.0503
  152MOL    H3339595   3.286   2.109   5.255 -0.2861  1.3626 -0.5859
  152MOL    H3439596   3.403   2.166   5.383  1.8468  0.8798 -2.3885
  152MOL    H3539597   3.154   2.336   5.352 -0.8124 -2.7898 -0.6186
  152MOL    H3639598   3.458   2.431   5.090 -1.4029 -1.9044 -0.2018
  152MOL    H3739599   3.490   2.285   5.185 -1.6740 -0.4417  1.9800
  152MOL    H3839600   3.545   2.430   5.257  0.3295 -1.6886  1.3111
  152MOL    H3939601   3.156   2.537   5.219 -0.8084 -2.3652 -1.8325
  152MOL    H4039602   3.300   2.577   5.134 -0.9837 -0.4939 -0.2301
  152MOL    C4139603   3.303   2.641   5.343  0.2510 -0.5347  0.2786
  152MOL    C4239604   3.211   2.754   5.326  0.4598 -0.3637 -0.1675
  152MOL    C4339605   3.228   2.852   5.238  0.0941  0.0467  0.0673
  152MOL    C4439606   3.345   2.849   5.136  0.0236  0.0985  0.1398
  152MOL    C4539607   3.139   2.975   5.222 -0.4981  0.0363 -0.3888
  152MOL    H4639608   3.409   2.667   5.340  0.8141 -2.6251  1.2627
  152MOL    H4739609   3.274   2.601   5.440 -0.9644 -1.3386 -0.3888
  152MOL    H4839610   3.125   2.770   5.390  1.5845  3.7262  0.4748
  152MOL    H4939611   3.402   2.757   5.144  0.4409  0.0871 -2.5263
  152MOL    H5039612   3.409   2.937   5.130  0.3726  0.1443  3.6235
  152MOL    H5139613   3.299   2.848   5.037 -0.0225  1.3993  0.1369
  152MOL    H5239614   3.210   3.057   5.236 -0.9123  0.4738 -0.8223
  152MOL    H5339615   3.076   2.999   5.308 -1.7002  0.5981 -1.4045
  152MOL    C5439616   3.050   2.975   5.099 -0.0985 -0.0021 -0.6900
  152MOL    C5539617   2.972   2.847   5.073 -0.2860 -0.0571  0.2044
  152MOL    C5639618   2.946   2.783   4.957 -0.5451  0.2630  0.2757
  152MOL    C5739619   3.002   2.831   4.827  0.0785  0.5878 -0.3132
  152MOL    C5839620   2.854   2.662   4.944  0.0268 -0.2190  0.1680
  152MOL    H5939621   3.100   3.000   5.006 -0.8194 -0.2493 -1.1491
  152MOL    H6039622   2.984   3.060   5.119  1.8081  1.4596 -0.4697
  152MOL    H6139623   2.934   2.797   5.161  1.7099 -2.0678 -0.0444
  152MOL    H6239624   2.982   2.934   4.797  1.6599  0.4658 -1.9329
  152MOL    H6339625   2.976   2.769   4.742 -1.6840  2.2165 -1.0182
  152MOL    H6439626   3.110   2.819   4.840  0.0970  0.1687 -0.8651
  152MOL    H6539627   2.898   2.591   5.014  1.1276 -0.7431 -1.0324
  152MOL    H6639628   2.876   2.603   4.855 -1.4313 -1.4537  0.6158
  152MOL    C6739629   2.707   2.683   4.970  0.3538  0.0909  0.4807
  152MOL    C6839630   2.625   2.554   4.932 -0.4771 -0.3557  0.1852
  152MOL    C6939631   2.490   2.554   4.927 -0.0952  0.1666  0.7162
  152MOL    C7039632   2.407   2.681   4.952  0.0196 -0.2263  0.6416
  152MOL    C7139633   2.402   2.432   4.899 -0.1366 -0.4363  0.7019
  152MOL    H7239634   2.675   2.765   4.907  0.1920 -0.8565 -0.6952
  152MOL    H7339635   2.691   2.708   5.075 -1.6860  0.7659  0.0264
  152MOL    H7439636   2.684   2.464   4.926  2.0817  1.1639  1.7422
  152MOL    H7539637   2.460   2.769   4.989  1.9271 -2.0252  2.3264
  152MOL    H7639638   2.335   2.647   5.027 -1.5615 -0.7635 -1.0889
  152MOL    H7739639   2.351   2.708   4.863  1.2097 -1.9427 -0.6697
  152MOL    H7839640   2.358   2.449   4.801 -0.6347 -0.1820  0.9708
  152MOL    H7939641   2.321   2.434   4.972 -1.4659 -0.9952 -0.7247
  152MOL    C8039642   2.479   2.305   4.898 -0.0623  0.6505  0.1074
  152MOL    C8139643   2.381   2.192   4.866 -0.4380  0.2290  0.5771
  152MOL    C8239644   2.419   2.077   4.805 -0.0227  0.2586  0.2282
  152MOL    C8339645   2.556   2.039   4.761  0.7162  0.1362 -0.6582
  152MOL    C8439646   2.312   1.983   4.759  0.2779  0.4691  0.4155
  152MOL    H8539647   2.530   2.286   4.993 -1.5466 -1.0115  0.5953
  152MOL    H8639648   2.560   2.302   4.825  1.0420  0.2504  1.3176
  152MOL    H8739649   2.277   2.216   4.882 -0.4122  0.9245 -0.2306
  152MOL    H8839650   2.631   2.101   4.810 -1.0694  2.1985 -0.4694
  152MOL    H8939651   2.580   2.032   4.655 -0.2344 -0.9485 -0.8099
  152MOL    H9039652   2.581   1.937   4.790  1.4232  0.6523  0.5972
  152MOL    H9139653   2.347   1.961   4.658  0.4081  2.7423 -0.0513
  152MOL    H9239654   2.225   2.041   4.731 -0.1596 -0.8357 -1.0179
  152MOL    C9339655   2.284   1.863   4.851 -0.0190 -0.5099  0.1485
  152MOL    C9439656   2.193   1.755   4.793  0.4614  0.2030 -0.1877
  152MOL    C9539657   2.064   1.733   4.828 -0.5799  0.3887 -0.6811
  152MOL    C9639658   1.994   1.821   4.927 -0.5951 -0.3132 -0.3493
  152MOL    C9739659   1.975   1.632   4.762 -0.2270  0.7595  0.3382
  152MOL    H9839660   2.252   1.901   4.949 -2.1455  3.7116 -2.0509
  152MOL    H9939661   2.377   1.810   4.872  0.6882 -0.1629 -2.0613
  152MOL   H10039662   2.243   1.695   4.718  0.7355 -1.2398  1.1450
  152MOL   H10139663   2.055   1.889   4.987 -1.8877 -0.5773  1.2686
  152MOL   H10239664   1.936   1.764   4.998 -3.3494  1.9704 -0.6703
  152MOL   H10339665   1.920   1.888   4.884  0.7476  1.8353  0.6012
  152MOL   H10439666   1.894   1.683   4.709  1.3714  3.2829  0.2228
  152MOL   H10539667   1.936   1.564   4.838  1.3334 -2.1955 -1.4527
  152MOL   C10639668   2.040   1.546   4.653  0.4798 -0.0092  0.1864
  152MOL   C10739669   1.940   1.445   4.591  0.4276 -0.1414  0.5991
  152MOL   C10839670   1.915   1.319   4.628  0.1461 -0.6075  0.0263
  152MOL   C10939671   1.989   1.249   4.737 -0.3808 -0.5024  0.4407
  152MOL   C11039672   1.811   1.228   4.555  0.1472 -0.4226  0.0025
  152MOL   H11139673   2.129   1.495   4.689  0.9081  0.5052 -0.1580
  152MOL   H11239674   2.091   1.599   4.573 -1.1640  2.4596  0.7200
  152MOL   H11339675   1.877   1.484   4.512  0.0141  1.9013  1.8908
  152MOL   H11439676   2.066   1.318   4.770 -0.5885  0.9704 -2.0520
  152MOL   H11539677   2.010   1.146   4.708 -0.9524  0.0509 -2.0292
  152MOL   H11639678   1.913   1.230   4.813  0.8729 -1.9969  1.3465
  152MOL   H11739679   1.747   1.170   4.621  1.4364 -3.0288 -0.9930
  152MOL   H11839680   1.865   1.144   4.513 -0.0477 -0.6714  0.2466
  152MOL   C11939681   1.745   1.289   4.431  0.0179 -0.5797 -0.6172
  152MOL   C12039682   1.671   1.187   4.348 -0.0035  0.1173  0.3589
  152MOL   C12139683   1.624   1.209   4.225 -0.3786 -0.1635  0.4046
  152MOL   C12239684   1.624   1.344   4.156 -0.4409  0.6151  0.2451
  152MOL   C12339685   1.555   1.103   4.149  0.3692  0.7452  0.6233
  152MOL   H12439686   1.820   1.341   4.371  0.3071  1.5863  1.5491
  152MOL   H12539687   1.674   1.366   4.460  1.0394  0.8006 -1.6977
  152MOL   H12639688   1.652   1.090   4.391 -1.1069  0.8565  1.6021
  152MOL   H12739689   1.675   1.331   4.060  0.9472  1.5211  0.8395
  152MOL   H12839690   1.680   1.406   4.226 -0.9936 -0.2740  1.4932
  152MOL   H12939691   1.525   1.388   4.143 -0.2894  2.2174  4.0268
  152MOL   H13039692   1.486   1.150   4.079 -0.8030 -0.6084  0.8430
  152MOL   H13139693   1.493   1.036   4.209  0.3658  0.0519 -0.1532
  152MOL   C13239694   1.670   1.029   4.065  0.7349  0.2396 -0.4237
  152MOL   C13339695   1.616   0.962   3.940  0.1379  0.2196 -0.0560
  152MOL   C13439696   1.687   0.878   3.857  0.7613 -0.3764  0.2045
  152MOL   C13539697   1.830   0.842   3.882  0.4125  0.3491 -0.2720
  152MOL   C13639698   1.635   0.831   3.723  0.5535 -0.1487  0.0392
  152MOL   H13739699   1.724   0.962   4.132 -0.8312  0.0652  0.7235
  152MOL   H13839700   1.739   1.106   4.031  0.1794 -0.5304 -3.4102
  152MOL   H13939701   1.511   0.970   3.914 -0.1881 -0.1901  1.1263
  152MOL   H14039702   1.851   0.847   3.988  1.1441  4.9953 -0.5188
  152MOL   H14139703   1.906   0.899   3.828  0.9659  0.5698  0.7282
  152MOL   H14239704   1.838   0.737   3.854  0.9866  0.2238  0.3567
  152MOL   H14339705   1.725   0.832   3.661  0.1357 -2.4996 -0.6307
  152MOL   H14439706   1.557   0.893   3.678  0.5634  2.2338  3.1593
  152MOL   C14539707   1.590   0.685   3.726 -0.2805  0.1548 -0.1594
  152MOL   C14639708   1.453   0.666   3.790 -0.2781 -0.3985  0.5700
  152MOL   C14739709   1.438   0.614   3.915  0.1217  0.0629 -0.3003
  152MOL   C14839710   1.550   0.567   3.997 -0.2332 -0.2207 -0.5967
  152MOL   C14939711   1.306   0.599   3.980 -0.2891 -0.0885  0.6437
  152MOL   H15039712   1.668   0.620   3.766  1.4641  0.2664 -3.2672
  152MOL   H15139713   1.569   0.645   3.627 -0.0519 -0.9839  0.2472
  152MOL   H15239714   1.379   0.705   3.721 -1.1065  1.5218  2.4873
  152MOL   H15339715   1.650   0.602   3.970  0.9985 -2.1917  1.1962
  152MOL   H15439716   1.568   0.460   3.991  1.8222  0.1368 -1.4892
  152MOL   H15539717   1.542   0.607   4.099  1.6544 -0.3989 -0.3572
  152MOL   H15639718   1.295   0.681   4.050  0.7125 -0.3632  1.1255
  152MOL   H15739719   1.305   0.504   4.033  0.8377 -0.2737  0.3443
  152MOL   C15839720   1.187   0.605   3.880  0.2526 -0.6335  0.2905
  152MOL   C15939721   1.060   0.638   3.951  0.1000 -0.9704  0.2432
  152MOL   C16039722   0.940   0.580   3.915 -0.0746 -0.0129  0.3701
  152MOL   C16139723   0.919   0.467   3.811  0.2227  0.1000  0.2348
  152MOL   C16239724   0.813   0.605   4.005  0.2860 -0.7062  0.2547
  152MOL   H16339725   1.195   0.518   3.815  0.7587  0.7664 -1.5609
  152MOL   H16439726   1.196   0.696   3.821 -0.8877 -0.6199  0.1392
  152MOL   H16539727   1.069   0.710   4.030 -1.1434  0.1181 -0.5929
  152MOL   H16639728   0.824   0.473   3.758 -0.2864 -0.8336  1.0404
  152MOL   H16739729   0.928   0.366   3.849  0.1733 -0.6425 -1.6904
  152MOL   H16839730   1.001   0.481   3.740 -0.3597  0.3308 -0.3994
  152MOL   H16939731   0.860   0.647   4.095 -0.0516  0.8324 -0.2813
  152MOL   H17039732   0.772   0.506   4.024  1.8221 -1.5499 -0.6987
  152MOL   C17139733   0.711   0.698   3.947  0.7207 -0.9397  0.5951
  152MOL   C17239734   0.578   0.700   4.026 -0.1601 -0.0279 -0.6406
  152MOL   C17339735   0.475   0.795   4.013  0.3929 -0.5615 -0.2459
  152MOL   C17439736   0.486   0.901   3.907 -0.0336 -0.4165 -0.5025
  152MOL   C17539737   0.341   0.797   4.094  0.5377 -0.2537  0.5766
  152MOL   H17639738   0.677   0.649   3.856 -0.3133 -1.8750  1.4727
  152MOL   H17739739   0.757   0.795   3.931  1.2356 -1.3609 -0.4724
  152MOL   H17839740   0.560   0.624   4.101  1.1204 -0.3092 -0.6064
  152MOL   H17939741   0.434   0.992   3.937 -1.3164 -0.9136 -1.1740
  152MOL   H18039742   0.435   0.863   3.818  1.2727 -3.4400 -0.0235
  152MOL   H18139743   0.586   0.919   3.869  1.2383  0.4792  3.0383
  152MOL   H18239744   0.264   0.795   4.018  0.9943 -1.7331  0.1191
  152MOL   H18339745   0.338   0.888   4.153 -0.0567 -1.7280  2.9049
  152MOL   C18439746   0.330   0.678   4.184  0.2497  0.3657 -0.1971
  152MOL   C18539747   0.184   0.650   4.228 -0.0800 -0.4698  0.6618
  152MOL   C18639748   0.133   0.664   4.349 -0.2385 -0.1322 -0.0800
  152MOL   C18739749   0.212   0.718   4.469 -0.1473  0.1483 -0.3316
  152MOL   C18839750   7.874   0.624   4.381  0.5635  0.5455 -0.6532
  152MOL   H18939751   0.391   0.685   4.274 -1.3919 -0.3627  1.0176
  152MOL   H19039752   0.354   0.577   4.149  0.9858  0.5020 -0.0842
  152MOL   H19139753   0.118   0.625   4.147  0.6848  2.3292 -0.8924
  152MOL   H19239754   0.261   0.637   4.524  1.6272  2.4866  1.6531
  152MOL   H19339755   0.146   0.774   4.534 -1.9460 -1.7931 -0.4441
  152MOL   H19439756   0.289   0.789   4.437  2.0562 -1.0620  2.0591
  152MOL   H19539757   0.007   0.565   4.472  3.5512 -0.0300 -1.4693
  152MOL   H19639758   7.845   0.554   4.303  1.3805  1.7424 -2.0457
  152MOL   C19739759   7.772   0.729   4.423 -0.5288  0.7002 -0.3262
  152MOL   C19839760   7.629   0.676   4.429  0.1909 -0.2365 -0.1322
  152MOL   C19939761   7.563   0.659   4.549 -0.2068  0.6432  0.0059
  152MOL   C20039762   7.617   0.702   4.686  0.9720 -0.6440 -0.2509
  152MOL   C20139763   7.427   0.592   4.552 -0.2083  0.1386 -0.7159
  152MOL   H20239764   7.768   0.809   4.348  1.2937 -1.7704 -3.2067
  152MOL   H20339765   7.790   0.770   4.522 -2.6935 -1.4171  1.0062
  152MOL   H20439766   7.592   0.640   4.335  0.1536 -0.3199 -0.0856
  152MOL   H20539767   7.618   0.809   4.702 -0.6082 -0.7768  0.8824
  152MOL   H20639768   7.716   0.656   4.691  1.0503 -0.3030  1.7590
  152MOL   H20739769   7.556   0.653   4.763 -3.2086  2.0192 -1.6900
  152MOL   H20839770   7.419   0.527   4.639  0.5043  2.5258  1.1899
  152MOL   H20939771   7.418   0.527   4.465 -0.5924  0.8228 -1.1915
  152MOL   C21039772   7.301   0.686   4.540 -0.7392  0.2654 -0.3608
  152MOL   C21139773   7.171   0.603   4.534 -1.0689 -0.0418 -0.1557
  152MOL   C21239774   7.102   0.584   4.648  0.5099 -0.1405 -0.1844
  152MOL   C21339775   7.143   0.623   4.788  0.1269 -0.1237 -0.1539
  152MOL   C21439776   6.970   0.514   4.655 -0.4218 -0.7280 -0.2876
  152MOL   H21539777   7.312   0.741   4.446  2.8868 -1.3084 -0.9361
  152MOL   H21639778   7.292   0.752   4.627  3.0728  1.0672 -0.4716
  152MOL   H21739779   7.134   0.564   4.441 -0.2961  0.5623 -0.7236
  152MOL   H21839780   7.099   0.718   4.819 -1.5376 -1.3524  1.3294
  152MOL   H21939781   7.249   0.616   4.813  0.2859  0.5798 -0.5965
  152MOL   H22039782   7.107   0.553   4.863 -0.9583 -0.2899 -0.8315
  152MOL   H22139783   6.977   0.438   4.733 -0.4738  0.2342  0.6636
  152MOL   H22239784   6.967   0.457   4.562  0.6952 -0.7131 -0.3461
  152MOL   C22339785   6.852   0.614   4.657 -0.2206  0.0572  0.3714
  152MOL   C22439786   6.710   0.549   4.656 -0.4753 -0.5568 -0.0654
  152MOL   C22539787   6.605   0.604   4.581 -0.6000  0.3829  0.4546
  152MOL   C22639788   6.612   0.728   4.484  0.4208  0.3558  0.1484
  152MOL   C22739789   6.461   0.551   4.586 -0.0342  0.2323  0.0401
  152MOL   H22839790   6.873   0.677   4.570 -4.2870  1.9825  0.6677
  152MOL   H22939791   6.839   0.669   4.750  0.8073 -2.5453  2.1047
  152MOL   H23039792   6.695   0.463   4.719 -3.9849  0.2302  0.2872
  152MOL   H23139793   6.668   0.809   4.532 -3.2207  1.4458  2.7120
  152MOL   H23239794   6.514   0.768   4.460 -0.4789 -2.2272 -0.6648
  152MOL   H23339795   6.662   0.698   4.392 -0.0778 -3.2476  0.9634
  152MOL   H23439796   6.457   0.481   4.503 -1.2757  0.6107 -0.2269
  152MOL   H23539797   6.386   0.628   4.568 -0.5588 -1.0220 -3.4120
  152MOL   C23639798   6.421   0.460   4.704 -0.6142  0.0614  0.2539
  152MOL   C23739799   6.273   0.435   4.701  0.1438 -0.9424 -0.4495
  152MOL   C23839800   6.216   0.317   4.745  0.2196  0.1937 -0.4726
  152MOL   C23939801   6.293   0.195   4.789 -0.3102 -0.0281 -1.2618
  152MOL   C24039802   6.061   0.309   4.763  0.3228 -0.0659  0.7009
  152MOL   H24139803   6.445   0.502   4.801 -2.1766  1.1735  0.1797
  152MOL   H24239804   6.485   0.372   4.695  0.9095  1.3525 -2.4023
  152MOL   H24339805   6.210   0.521   4.686  1.9020  0.1290 -1.8452
  152MOL   H24439806   6.360   0.181   4.704  1.0048  1.8945 -0.5884
  152MOL   H24539807   6.219   0.118   4.809 -2.3262  1.7773 -1.6177
  152MOL   H24639808   6.349   0.230   4.876  1.2513 -1.5175 -1.6410
  152MOL   H24739809   6.029   0.413   4.766  2.2529  0.5622  0.2058
  152MOL   H24839810   6.043   0.264   4.861 -0.4902  0.3697  0.7530
  152MOL   C24939811   5.997   0.221   4.655 -0.8656 -0.1573 -0.5636
  152MOL   C25039812   5.850   0.240   4.631 -0.0368 -0.2938  0.2907
  152MOL   C25139813   5.749   0.154   4.621 -0.0625 -0.6306 -0.1698
  152MOL   C25239814   5.757   0.006   4.652  0.4202  0.0293  0.7665
  152MOL   C25339815   5.609   0.207   4.604  0.0081 -0.0328  0.0121
  152MOL   H25439816   6.019   0.115   4.667  0.3333  0.2666  1.0988
  152MOL   H25539817   6.024   0.242   4.551 -1.0604 -1.8074 -0.9786
  152MOL   H25639818   5.827   0.346   4.623  0.1709 -0.2737 -0.0394
  152MOL   H25739819   5.859   7.853   4.671  0.7447 -1.1864 -2.9687
  152MOL   H25839820   5.720   7.818   4.579 -1.2081  0.8301  0.8034
  152MOL   H25939821   5.698   7.865   4.741 -0.2596 -3.0080 -0.4497
  152MOL   H26039822   5.547   0.135   4.552 -0.5827  1.0128 -0.7413
  152MOL   H26139823   5.602   0.300   4.548  0.6553 -1.3045 -2.2370
  152MOL   H26239824   5.564   0.219   4.703  0.0409 -0.0473  0.0285
  153MOL     C139825   0.218   2.896   2.420  0.2706 -0.0994  0.3742
  153MOL     C239826   0.360   2.843   2.404 -0.0154 -0.0628  0.1352
  153MOL     C339827   0.467   2.897   2.349  0.5996 -0.6932 -0.4012
  153MOL     C439828   0.485   3.041   2.297 -0.5797  0.1665  0.2328
  153MOL     C539829   0.597   2.816   2.339 -0.7556 -0.0401 -0.3541
  153MOL     H639830   0.190   2.956   2.334  0.3985  1.0645  1.1284
  153MOL     H739831   0.143   2.818   2.435 -1.6524  1.5383 -0.4733
  153MOL     H839832   0.377   2.748   2.453  1.0471  0.3403  0.5490
  153MOL     H939833   0.499   3.043   2.189  2.7889 -0.9247  0.5684
  153MOL    H1039834   0.577   3.078   2.344  0.0967 -1.2179  0.0254
  153MOL    H1139835   0.402   3.108   2.318 -0.4462  0.6091 -0.6539
  153MOL    H1239836   0.591   2.739   2.416  1.9224 -0.5607 -0.6225
  153MOL    H1339837   0.687   2.869   2.369 -0.3033 -1.3054  0.5599
  153MOL    H1439838   0.219   2.967   2.503  0.9986 -0.4123  0.6375
  153MOL    C1539839   0.622   2.759   2.199  0.0105  0.0475  0.1504
  153MOL    C1639840   0.769   2.721   2.191 -0.4952  0.3528  0.8031
  153MOL    C1739841   0.817   2.598   2.222 -0.0062 -0.0439 -0.6255
  153MOL    C1839842   0.737   2.472   2.235  0.7336  0.4008 -0.4908
  153MOL    C1939843   0.968   2.570   2.232 -0.5237  0.4563 -0.0465
  153MOL    H2039844   0.606   2.830   2.118  1.1221  0.6058  0.4103
  153MOL    H2139845   0.541   2.686   2.190  2.3731 -2.5561 -0.6755
  153MOL    H2239846   0.838   2.800   2.164  0.3418  0.0126  1.9037
  153MOL    H2339847   0.726   2.452   2.341 -0.0580 -0.3397 -0.7070
  153MOL    H2439848   0.784   2.380   2.202 -1.8672 -0.7867 -0.9967
  153MOL    H2539849   0.635   2.481   2.198  0.4160 -0.6798  0.1202
  153MOL    H2639850   1.025   2.663   2.242 -0.3916  0.4635 -0.8276
  153MOL    H2739851   1.006   2.509   2.150  0.5916 -1.9426  2.1994
  153MOL    C2839852   1.014   2.497   2.358 -0.3153  0.9743 -0.0054
  153MOL    C2939853   0.955   2.557   2.491 -0.3429  0.2128 -0.5341
  153MOL    C3039854   0.909   2.480   2.593 -0.1277  0.0912  0.0920
  153MOL    C3139855   0.905   2.324   2.591  0.0476 -0.3192  0.0252
  153MOL    C3239856   0.853   2.533   2.722 -0.1044  0.2395  0.4256
  153MOL    H3339857   1.123   2.493   2.361 -0.3459 -1.1808 -0.9419
  153MOL    H3439858   0.982   2.398   2.326  3.0240  0.1745 -1.0001
  153MOL    H3539859   0.963   2.664   2.504 -1.1791  0.3112 -0.8488
  153MOL    H3639860   0.945   2.292   2.688  2.0319  0.5847 -0.4706
  153MOL    H3739861   0.955   2.275   2.507  3.0123  1.4395  0.6866
  153MOL    H3839862   0.804   2.286   2.577 -0.6581  1.0930  1.2220
  153MOL    H3939863   0.854   2.642   2.733 -2.6112  0.3307  0.0831
  153MOL    H4039864   0.903   2.492   2.810  0.3016  1.3075  0.7031
  153MOL    C4139865   0.714   2.489   2.728  0.0988 -0.2216 -0.6367
  153MOL    C4239866   0.633   2.571   2.827  0.0555  0.1590 -0.4427
  153MOL    C4339867   0.564   2.533   2.935 -0.5897  0.2857 -0.1927
  153MOL    C4439868   0.564   2.384   2.980  0.3480 -0.0137  0.0476
  153MOL    C4539869   0.490   2.627   3.022  0.7610  0.2703  0.1100
  153MOL    H4639870   0.706   2.380   2.731 -2.0640 -0.0657  0.0092
  153MOL    H4739871   0.667   2.510   2.632 -2.5487 -0.3371  0.5864
  153MOL    H4839872   0.631   2.675   2.798 -3.2336 -0.1662 -1.5482
  153MOL    H4939873   0.640   2.313   2.949  0.6734  0.1808  0.3972
  153MOL    H5039874   0.466   2.347   2.951 -0.9397  2.8501  0.5052
  153MOL    H5139875   0.572   2.373   3.089 -0.6129 -3.9651 -0.2086
  153MOL    H5239876   0.424   2.575   3.092 -1.8252 -0.5296 -2.8078
  153MOL    H5339877   0.432   2.701   2.967 -0.1388 -0.8681 -0.5076
  153MOL    C5439878   0.588   2.700   3.110  0.0020 -0.0745  0.0659
  153MOL    C5539879   0.521   2.788   3.210  0.8937  0.3853  0.9585
  153MOL    C5639880   0.541   2.787   3.343 -0.2391  0.5340 -0.6891
  153MOL    C5739881   0.618   2.678   3.414  0.1724 -0.8351 -0.6183
  153MOL    C5839882   0.459   2.882   3.435  0.1312 -0.1460  0.5442
  153MOL    H5939883   0.647   2.760   3.041 -1.3512 -0.0991 -1.1364
  153MOL    H6039884   0.652   2.631   3.165  0.9041 -0.3950 -1.3665
  153MOL    H6139885   0.450   2.846   3.154  2.2176 -0.5059 -1.7058
  153MOL    H6239886   0.625   2.701   3.520 -2.2557 -2.6397 -0.0203
  153MOL    H6339887   0.716   2.669   3.367 -1.6430 -2.4086 -4.3273
  153MOL    H6439888   0.565   2.583   3.403  0.5180 -1.2348  1.1043
  153MOL    H6539889   0.390   2.829   3.500  0.3586 -0.5686  0.4406
  153MOL    H6639890   0.397   2.938   3.365 -0.2469 -0.6099  0.5063
  153MOL    C6739891   0.547   2.981   3.518  0.7507  0.2972 -0.0451
  153MOL    C6839892   0.449   3.093   3.556 -0.7608 -0.1726 -0.3007
  153MOL    C6939893   0.432   3.215   3.501  0.8825  0.2024 -0.6045
  153MOL    C7039894   0.512   3.264   3.386  0.2439  0.5978 -1.0599
  153MOL    C7139895   0.315   3.307   3.532  0.0801  0.2983  0.2325
  153MOL    H7239896   0.630   3.034   3.471  0.2247  1.7031  0.5618
  153MOL    H7339897   0.579   2.928   3.607  0.2977  0.9935  0.5434
  153MOL    H7439898   0.368   3.064   3.621  1.4891 -0.8343  2.2753
  153MOL    H7539899   0.507   3.369   3.358  0.5970  0.6014 -1.1102
  153MOL    H7639900   0.484   3.203   3.300  2.1809 -1.3073 -0.3549
  153MOL    H7739901   0.616   3.236   3.398 -0.1678 -0.9140 -0.8786
  153MOL    H7839902   0.344   3.412   3.536  1.0703  0.0181  0.7157
  153MOL    H7939903   0.290   3.281   3.635  1.1496 -0.5694  0.2851
  153MOL    C8039904   0.194   3.297   3.442  0.2711 -0.0295 -0.0670
  153MOL    C8139905   0.089   3.402   3.476  0.2811  0.4118 -0.1304
  153MOL    C8239906   7.867   3.382   3.562 -1.1164 -0.1265 -0.0691
  153MOL    C8339907   7.836   3.248   3.621 -1.0997 -0.8138 -0.0300
  153MOL    C8439908   7.757   3.491   3.569 -0.2856  0.2066  0.3090
  153MOL    H8539909   0.152   3.197   3.452 -1.0578  0.4769 -0.5097
  153MOL    H8639910   0.220   3.294   3.336 -0.3567 -0.5104 -0.2101
  153MOL    H8739911   0.088   3.498   3.427  1.6224  0.3341 -0.3459
  153MOL    H8839912   7.768   3.265   3.705 -2.9319  0.4158 -1.7238
  153MOL    H8939913   0.039   3.208   3.676 -0.3880  2.5005  1.4095
  153MOL    H9039914   7.788   3.183   3.548 -1.5743  1.0182 -1.3816
  153MOL    H9139915   7.674   3.462   3.505  0.9242 -0.6401 -0.9282
  153MOL    H9239916   7.793   3.578   3.515  0.5545 -1.0766 -1.2639
  153MOL    C9339917   7.717   3.526   3.715 -0.4377 -0.0544 -0.0074
  153MOL    C9439918   7.610   3.633   3.726 -0.6449  0.0791 -0.0940
  153MOL    C9539919   7.482   3.626   3.776 -0.2918  0.1808  0.1999
  153MOL    C9639920   7.421   3.500   3.837  0.5754  0.7577 -0.8674
  153MOL    C9739921   7.399   3.755   3.793  0.7808 -0.1764  0.5789
  153MOL    H9839922   7.805   3.578   3.755 -1.2776  2.6001 -1.4626
  153MOL    H9939923   7.702   3.437   3.776 -1.7595 -0.2074 -0.5513
  153MOL   H10039924   7.641   3.726   3.683 -0.1873 -0.5663 -1.1915
  153MOL   H10139925   7.471   3.404   3.825 -0.7252 -0.0836  0.2751
  153MOL   H10239926   7.321   3.494   3.792  0.0470  0.1633  0.3642
  153MOL   H10339927   7.416   3.516   3.944 -0.6915  3.1933 -1.2451
  153MOL   H10439928   7.470   3.837   3.787  0.4296  0.0853 -0.1251
  153MOL   H10539929   7.351   3.762   3.891  3.0651 -2.0044  1.8999
  153MOL   C10639930   7.291   3.760   3.688 -1.6052 -0.3904  0.1970
  153MOL   C10739931   7.180   3.860   3.727 -0.3375  0.4431 -0.7344
  153MOL   C10839932   7.049   3.834   3.735 -1.1316 -0.8861  0.3819
  153MOL   C10939933   6.976   3.701   3.713  0.1752  0.4890  0.2422
  153MOL   C11039934   6.950   3.949   3.757 -0.0138 -0.2125 -0.4368
  153MOL   H11139935   7.260   3.657   3.668  1.0833 -1.2911  0.3928
  153MOL   H11239936   7.346   3.789   3.599  0.7944 -2.3457  0.9688
  153MOL   H11339937   7.209   3.964   3.735  0.5926  0.1615 -0.3947
  153MOL   H11439938   6.915   3.667   3.796  0.1584  0.0671  0.0602
  153MOL   H11539939   7.040   3.618   3.682 -0.1113  1.2733 -2.6601
  153MOL   H11639940   6.912   3.711   3.625 -0.1365  1.8978  0.6125
  153MOL   H11739941   6.879   3.948   3.674 -0.0884 -0.4483 -0.3705
  153MOL   H11839942   7.003   4.044   3.749 -0.2800  0.0387  0.7991
  153MOL   C11939943   6.879   3.932   3.891  0.2620  0.5185 -0.9779
  153MOL   C12039944   6.774   4.031   3.902 -0.5293 -0.4287  0.2807
  153MOL   C12139945   6.643   4.000   3.894 -0.5891 -0.6086 -0.4650
  153MOL   C12239946   6.593   3.861   3.859 -0.5873 -0.5619 -0.0349
  153MOL   C12339947   6.535   4.108   3.919  0.7456  0.1045  0.7760
  153MOL   H12439948   6.945   3.962   3.973 -1.9983  2.2719  0.2350
  153MOL   H12539949   6.839   3.834   3.917  1.9473 -0.0306 -0.3264
  153MOL   H12639950   6.802   4.134   3.919 -0.2150 -0.8209  2.1370
  153MOL   H12739951   6.639   3.784   3.921  2.3591 -0.4910 -2.0349
  153MOL   H12839952   6.626   3.835   3.759 -1.5811 -0.8759 -0.2834
  153MOL   H12939953   6.484   3.860   3.854 -0.7065  0.5449  1.7883
  153MOL   H13039954   6.591   4.200   3.940  0.5896 -0.1615  2.4545
  153MOL   H13139955   6.475   4.092   4.008 -2.6290  0.4996 -1.3616
  153MOL   C13239956   6.437   4.147   3.805 -0.1690 -0.1326 -0.2470
  153MOL   C13339957   6.366   4.282   3.837  0.0627  0.2122 -0.1733
  153MOL   C13439958   6.271   4.339   3.764 -0.1924  1.1935  0.3344
  153MOL   C13539959   6.221   4.285   3.628  0.1368 -0.2401 -0.2492
  153MOL   C13639960   6.213   4.477   3.804  0.4886 -0.4320  0.2391
  153MOL   H13739961   6.365   4.066   3.788 -0.5725  0.2819 -0.5306
  153MOL   H13839962   6.495   4.166   3.715  2.8016  0.7186  1.7933
  153MOL   H13939963   6.401   4.333   3.926 -0.4416  2.0079 -0.9839
  153MOL   H14039964   6.222   4.362   3.552 -0.0452 -0.6248 -0.6464
  153MOL   H14139965   6.120   4.249   3.649 -0.3616  1.2514 -0.0451
  153MOL   H14239966   6.286   4.206   3.591 -1.3935 -0.9921 -1.3779
  153MOL   H14339967   6.226   4.505   3.909 -1.0680  0.1856  0.2845
  153MOL   H14439968   6.106   4.454   3.803  0.1508  1.1021 -0.4684
  153MOL   C14539969   6.231   4.595   3.706 -0.3961 -0.5881 -0.2691
  153MOL   C14639970   6.141   4.706   3.753 -0.4248 -1.2651 -0.4831
  153MOL   C14739971   6.060   4.785   3.684  0.0946 -0.0940  0.5392
  153MOL   C14839972   6.027   4.769   3.531 -0.1713  0.3446 -0.3817
  153MOL   C14939973   5.984   4.897   3.739 -0.3568  0.2286  0.3310
  153MOL   H15039974   6.211   4.575   3.600 -1.4340  2.5856 -0.7091
  153MOL   H15139975   6.338   4.618   3.706 -0.1951 -1.3955 -1.7940
  153MOL   H15239976   6.142   4.727   3.859 -1.4747 -2.3186 -0.2528
  153MOL   H15339977   5.918   4.772   3.524 -0.1201 -0.2944 -1.4852
  153MOL   H15439978   6.053   4.673   3.486  0.9909 -0.5182  2.0395
  153MOL   H15539979   6.073   4.852   3.477  1.9742 -1.2020 -0.9907
  153MOL   H15639980   6.001   4.984   3.675  1.7764 -0.8142 -0.6010
  153MOL   H15739981   6.023   4.939   3.832 -0.9961  0.3250  0.5546
  153MOL   C15839982   5.834   4.885   3.756 -0.3458  0.3002 -0.0843
  153MOL   C15939983   5.774   5.005   3.820 -0.4989  0.0809  0.3715
  153MOL   C16039984   5.744   5.027   3.948  0.9683  0.6801 -0.1531
  153MOL   C16139985   5.763   4.923   4.055  0.8923  0.3028 -0.1815
  153MOL   C16239986   5.669   5.152   3.985 -0.4954 -0.3595  0.1757
  153MOL   H16339987   5.811   4.792   3.807  1.4626 -0.8339 -1.2760
  153MOL   H16439988   5.778   4.862   3.665  0.3179  1.1643 -0.7245
  153MOL   H16539989   5.755   5.085   3.749  1.9779 -1.1740 -1.7946
  153MOL   H16639990   5.767   4.968   4.154 -0.3975  1.4040 -0.6232
  153MOL   H16739991   5.850   4.859   4.040 -0.0888 -1.3378  0.9902
  153MOL   H16839992   5.680   4.855   4.072  0.5546  1.0860  1.3358
  153MOL   H16939993   5.577   5.117   4.030 -1.2523  3.3741  1.6315
  153MOL   H17039994   5.650   5.189   3.884 -3.3450 -0.7791  0.5429
  153MOL   C17139995   5.743   5.253   4.070  0.0605  0.2108 -0.8572
  153MOL   C17239996   5.648   5.368   4.098  0.0879  0.1142  0.1834
  153MOL   C17339997   5.640   5.452   4.207  0.2305 -1.3295  0.2506
  153MOL   C17439998   5.749   5.449   4.314  0.2171  0.1779  0.7090
  153MOL   C17539999   5.530   5.554   4.225 -0.4497 -0.0559  0.2357
  153MOL   H17640000   5.830   5.289   4.014  0.8943  1.5646  1.2526
  153MOL   H17740001   5.782   5.212   4.163  0.4458 -0.7783 -1.4478
  153MOL   H17840002   5.579   5.394   4.019 -0.5711  0.8223  0.9961
  153MOL   H17940003   5.780   5.346   4.332 -1.9973 -0.6146  0.1365
  153MOL   H18040004   5.712   5.492   4.407 -1.5771 -0.6071  0.3717
  153MOL   H18140005   5.831   5.515   4.285  1.4012 -1.4649  0.2522
  153MOL   H18240006   5.472   5.565   4.134 -0.0610 -0.9779 -0.1271
  153MOL   H18340007   5.576   5.652   4.234 -0.1674 -0.0147 -1.5768
  153MOL   C18440008   5.424   5.533   4.340 -0.1885  0.7432  0.0166
  153MOL   C18540009   5.351   5.664   4.362  0.3234  0.5096 -0.0817
  153MOL   C18640010   5.218   5.679   4.374  0.9814  0.1742 -0.1086
  153MOL   C18740011   5.124   5.559   4.399  0.3984 -0.4920 -0.5657
  153MOL   C18840012   5.156   5.814   4.386 -0.1874  0.1062 -0.3031
  153MOL   H18940013   5.464   5.503   4.437 -1.7859 -1.9969 -0.1412
  153MOL   H19040014   5.356   5.453   4.310  0.6456 -0.0534  0.2380
  153MOL   H19140015   5.412   5.753   4.356  1.3459 -0.1928 -0.0445
  153MOL   H19240016   5.126   5.531   4.504 -3.2524  0.0074 -0.2947
  153MOL   H19340017   5.145   5.468   4.343 -1.4175  0.0613 -2.1950
  153MOL   H19440018   5.021   5.588   4.379  0.2110  0.0221  1.0939
  153MOL   H19540019   5.058   5.810   4.337  0.4044  2.8147 -1.8042
  153MOL   H19640020   5.216   5.882   4.326  0.6312 -1.9730 -1.8739
  153MOL   C19740021   5.134   5.863   4.528 -0.4872  0.7790  0.3359
  153MOL   C19840022   5.120   6.015   4.546 -0.6513 -0.0503  0.5773
  153MOL   C19940023   5.086   6.084   4.659  0.0619  0.1854  0.1620
  153MOL   C20040024   5.062   6.017   4.790 -0.1709  0.6747  0.8870
  153MOL   C20140025   5.083   6.235   4.663  0.3401  0.4475 -0.1896
  153MOL   H20240026   5.209   5.822   4.595 -0.5989 -0.8745 -0.5323
  153MOL   H20340027   5.042   5.821   4.570 -0.9513 -0.4506 -1.8559
  153MOL   H20440028   5.152   6.064   4.455 -0.4929 -1.8061 -0.3423
  153MOL   H20540029   5.154   5.983   4.837 -0.8279 -0.9180  1.0721
  153MOL   H20640030   5.012   5.926   4.755 -1.1877  2.1614 -1.6845
  153MOL   H20740031   5.004   6.078   4.859 -0.2443  0.1207  1.3201
  153MOL   H20840032   4.991   6.277   4.703  0.6805 -1.8505  3.3399
  153MOL   H20940033   5.089   6.269   4.560  0.8109  3.2339  0.7290
  153MOL   C21040034   5.205   6.285   4.735  0.1586  0.4046 -0.7764
  153MOL   C21140035   5.221   6.440   4.719  0.7605 -1.1921  0.2460
  153MOL   C21240036   5.253   6.532   4.813  0.4541  0.6173  0.5932
  153MOL   C21340037   5.263   6.503   4.962  0.9627 -0.3346  0.0014
  153MOL   C21440038   5.271   6.672   4.777 -0.3007 -0.4733 -0.1601
  153MOL   H21540039   5.298   6.240   4.702  0.9313  1.3536  0.0814
  153MOL   H21640040   5.214   6.274   4.843  2.1566  0.9284 -0.8679
  153MOL   H21740041   5.200   6.470   4.617  2.6855  1.8729  0.7066
  153MOL   H21840042   5.214   6.415   5.002  0.5763 -0.6900 -1.2382
  153MOL   H21940043   5.213   6.573   5.030 -1.9736 -0.5526 -1.8324
  153MOL   H22040044   5.367   6.500   4.995  0.1542  1.1721  2.8975
  153MOL   H22140045   5.343   6.682   4.696  0.0858 -0.3451  0.1982
  153MOL   H22240046   5.325   6.714   4.861 -1.2246 -0.5495  0.4825
  153MOL   C22340047   5.135   6.738   4.749  0.1954  1.0248  0.7608
  153MOL   C22440048   5.147   6.881   4.687  0.3288 -0.3324  0.1647
  153MOL   C22540049   5.124   7.000   4.745  0.4641  0.0043 -0.5291
  153MOL   C22640050   5.072   7.012   4.890 -0.0583  0.4539 -0.1020
  153MOL   C22740051   5.139   7.130   4.667 -0.3349  1.1866  0.4600
  153MOL   H22840052   5.078   6.735   4.842  1.3606 -1.4251  1.4549
  153MOL   H22940053   5.072   6.675   4.686  0.5039 -0.6905  2.1237
  153MOL   H23040054   5.169   6.884   4.582 -1.0911 -1.6992 -0.1926
  153MOL   H23140055   4.965   7.031   4.894 -0.4962 -1.8379  0.1621
  153MOL   H23240056   5.109   7.094   4.950 -1.8066  1.2345 -0.0727
  153MOL   H23340057   5.103   6.921   4.941 -1.8995 -2.1478 -3.4117
  153MOL   H23440058   5.037   7.165   4.648 -0.8011 -0.9975 -1.1618
  153MOL   H23540059   5.183   7.087   4.578 -1.7638 -0.6575  0.6162
  153MOL   C23640060   5.227   7.238   4.734  0.0354 -0.5520  0.6423
  153MOL   C23740061   5.270   7.342   4.629 -0.6044  0.2720 -0.6678
  153MOL   C23840062   5.395   7.376   4.590 -0.4323  0.1744 -0.3183
  153MOL   C23940063   5.516   7.286   4.613  0.2081 -0.3822 -0.4205
  153MOL   C24040064   5.416   7.486   4.484 -0.0128 -0.5343  0.2741
  153MOL   H24140065   5.309   7.191   4.788  0.7699 -1.4679 -1.2503
  153MOL   H24240066   5.170   7.299   4.805 -1.0487 -0.5779 -0.2018
  153MOL   H24340067   5.191   7.404   4.589 -1.0107 -0.6534 -1.3217
  153MOL   H24440068   5.509   7.242   4.712 -3.7470 -3.3097 -1.8696
  153MOL   H24540069   5.599   7.357   4.612  2.3059 -2.7284  1.1198
  153MOL   H24640070   5.539   7.223   4.528  0.5653  0.0324 -0.6346
  153MOL   H24740071   5.315   7.515   4.455  1.2986  2.1535 -1.8882
  153MOL   H24840072   5.459   7.446   4.392 -1.0861 -4.4024  1.3615
  153MOL   C24940073   5.472   7.627   4.532 -0.4263  0.3096 -0.2974
  153MOL   C25040074   5.419   7.739   4.446  0.1109 -0.3176  0.3268
  153MOL   C25140075   5.304   7.802   4.471  0.7081  0.2542  0.2373
  153MOL   C25240076   5.199   7.746   4.572 -0.0030 -0.0186  0.1201
  153MOL   C25340077   5.263   0.042   4.387 -0.8830  0.4692 -0.0546
  153MOL   H25440078   5.581   7.631   4.527 -0.2321 -2.7925  0.7614
  153MOL   H25540079   5.456   7.650   4.638  1.3267  1.5968 -0.2737
  153MOL   H25640080   5.483   7.769   4.364  1.5292 -0.2171  1.4543
  153MOL   H25740081   5.254   7.690   4.647 -0.7774 -0.1603  0.5915
  153MOL   H25840082   5.129   7.673   4.532  0.3038  0.0573 -0.5509
  153MOL   H25940083   5.149   7.832   4.618  0.3950  0.2842 -0.0177
  153MOL   H26040084   5.276   0.123   4.459 -0.9203 -0.5769  1.1269
  153MOL   H26140085   5.159   0.036   4.356 -0.4910 -3.1993 -0.8547
  153MOL   H26240086   5.335   0.057   4.306 -0.4365  0.2021  0.2923
  154MOL     C140087   4.923   0.200   3.225  0.7322 -0.5594  0.8277
  154MOL     C240088   5.020   0.198   3.336 -0.7445 -0.0138  0.5185
  154MOL     C340089   5.140   0.139   3.349  0.4002 -0.2261 -0.0816
  154MOL     C440090   5.185   0.036   3.241  0.6885 -0.1371 -0.0259
  154MOL     C540091   5.221   0.127   3.478 -0.3460  0.3922  0.1068
  154MOL     H640092   4.842   0.138   3.263 -1.5375  0.7136 -1.8248
  154MOL     H740093   4.896   0.304   3.209  1.9675 -0.3950 -0.3203
  154MOL     H840094   4.982   0.248   3.424 -1.6079 -1.0822  0.7509
  154MOL     H940095   5.142   0.058   3.144  2.3506  1.3537 -0.4585
  154MOL    H1040096   5.139   7.826   3.275 -0.3139  0.6905  0.8948
  154MOL    H1140097   5.290   0.035   3.212  0.6281  0.2114 -0.2630
  154MOL    H1240098   5.217   0.023   3.509  1.4828  0.4070  0.4732
  154MOL    H1340099   5.180   0.190   3.557  1.0293  0.1742  1.0120
  154MOL    H1440100   4.961   0.157   3.132  1.6211  2.4024 -0.2419
  154MOL    C1540101   5.369   0.167   3.464 -0.5590 -0.9261  0.2806
  154MOL    C1640102   5.435   0.161   3.607  0.2110  0.3766  0.1395
  154MOL    C1740103   5.527   0.250   3.663  0.4150  0.4568 -0.2467
  154MOL    C1840104   5.558   0.382   3.598 -0.3794  0.3194 -0.0702
  154MOL    C1940105   5.600   0.225   3.798  0.5241 -0.4034  0.3131
  154MOL    H2040106   5.370   0.270   3.426  0.1294 -0.7193  0.8521
  154MOL    H2140107   5.415   0.092   3.400 -1.8244 -0.8043 -0.8191
  154MOL    H2240108   5.428   0.067   3.660  2.8961 -0.8752 -1.5962
  154MOL    H2340109   5.638   0.368   3.525 -0.4367 -2.4674  0.3440
  154MOL    H2440110   5.595   0.456   3.670  0.1005 -1.1298  1.2121
  154MOL    H2540111   5.469   0.426   3.554 -0.6559  0.5141  0.6658
  154MOL    H2640112   5.702   0.250   3.770 -0.5113  2.4826 -1.1376
  154MOL    H2740113   5.596   0.120   3.827 -2.1322 -0.5491 -0.4565
  154MOL    C2840114   5.553   0.318   3.907  0.4486 -0.2223 -0.1089
  154MOL    C2940115   5.665   0.342   4.012 -0.2695  0.2518 -0.1492
  154MOL    C3040116   5.640   0.369   4.141 -0.6793 -0.4256  0.0583
  154MOL    C3140117   5.501   0.371   4.209 -0.2037  0.1667  0.1193
  154MOL    C3240118   5.751   0.408   4.238 -0.3339 -0.2711 -0.0569
  154MOL    H3340119   5.453   0.297   3.945  0.0116  1.7523 -0.1534
  154MOL    H3440120   5.549   0.422   3.876 -1.2180 -0.7709 -1.8595
  154MOL    H3540121   5.765   0.353   3.975  0.8547 -1.7488  2.1224
  154MOL    H3640122   5.422   0.332   4.144 -0.0063  1.7630 -1.0887
  154MOL    H3740123   5.467   0.456   4.268  0.0718 -0.0826  0.6511
  154MOL    H3840124   5.492   0.289   4.281 -0.0311  1.0362  1.1373
  154MOL    H3940125   5.848   0.393   4.188 -0.0181  2.6132 -0.3893
  154MOL    H4040126   5.755   0.340   4.323  2.2825  1.7380  1.5017
  154MOL    C4140127   5.733   0.554   4.287 -0.1177 -0.2906  0.3275
  154MOL    C4240128   5.868   0.617   4.343 -0.1664 -0.4457 -0.1613
  154MOL    C4340129   5.899   0.663   4.464 -0.4327 -0.3629  0.4247
  154MOL    C4440130   5.789   0.667   4.573  0.2045 -0.3850 -0.4624
  154MOL    C4540131   6.041   0.713   4.507 -0.3275 -0.7695  0.1363
  154MOL    H4640132   5.659   0.557   4.366  0.4786 -0.8216  0.9079
  154MOL    H4740133   5.690   0.616   4.208  1.0755  2.9758  2.1398
  154MOL    H4840134   5.950   0.601   4.275  1.5478  0.7928  1.5828
  154MOL    H4940135   5.741   0.765   4.573  0.1540 -0.3567  3.3375
  154MOL    H5040136   5.839   0.650   4.668 -2.2642  0.0740  0.9431
  154MOL    H5140137   5.713   0.590   4.559  0.7502 -1.2887  1.3408
  154MOL    H5240138   6.085   0.714   4.407  2.5041  0.1535  1.3482
  154MOL    H5340139   6.098   0.635   4.558 -1.6737 -0.7990  1.6640
  154MOL    C5440140   6.043   0.862   4.562 -0.2697  0.8770  0.8098
  154MOL    C5540141   6.177   0.920   4.533  0.2287 -0.0846 -0.0047
  154MOL    C5640142   6.216   1.028   4.463  0.3363 -0.0068  0.0534
  154MOL    C5740143   6.111   1.120   4.405 -0.8235 -0.1418  0.5121
  154MOL    C5840144   6.363   1.074   4.457  0.7091  0.2369 -0.0699
  154MOL    H5940145   6.016   0.877   4.666  0.3430 -0.9084  1.2388
  154MOL    H6040146   5.965   0.921   4.515 -0.4808  0.2258  0.3384
  154MOL    H6140147   6.255   0.859   4.576 -1.4802 -0.2791  2.9029
  154MOL    H6240148   6.077   1.192   4.479 -2.8675  0.3997 -0.8862
  154MOL    H6340149   6.029   1.071   4.351 -1.2222  0.5910  0.4438
  154MOL    H6440150   6.162   1.180   4.330 -0.8552  0.5824  1.0673
  154MOL    H6540151   6.377   1.087   4.350  0.0680 -2.3212 -0.5086
  154MOL    H6640152   6.426   0.989   4.485 -1.1791 -1.6693 -1.3744
  154MOL    C6740153   6.395   1.199   4.536 -0.1123 -0.0032  0.5553
  154MOL    C6840154   6.528   1.258   4.512  0.1822 -0.7268 -0.5992
  154MOL    C6940155   6.560   1.337   4.409 -0.1817  0.3478 -0.7751
  154MOL    C7040156   6.466   1.398   4.325 -0.7748  0.6250 -0.5566
  154MOL    C7140157   6.712   1.367   4.387  0.3429  0.6097  0.0005
  154MOL    H7240158   6.378   1.180   4.642  1.4470  0.6380  0.9173
  154MOL    H7340159   6.318   1.273   4.514 -2.5816 -2.6166  0.0740
  154MOL    H7440160   6.610   1.222   4.573 -0.5688 -0.1389  0.7848
  154MOL    H7540161   6.492   1.504   4.321 -0.4825  0.6591  1.5486
  154MOL    H7640162   6.364   1.391   4.361 -0.1531 -2.5222  0.7237
  154MOL    H7740163   6.479   1.353   4.227  1.1305  0.3109 -0.1880
  154MOL    H7840164   6.767   1.347   4.479  1.3872  4.7431  0.4111
  154MOL    H7940165   6.744   1.464   4.348 -0.8269  0.7813 -0.5793
  154MOL    C8040166   6.771   1.263   4.294  0.8164 -0.6002  0.5235
  154MOL    C8140167   6.919   1.287   4.269  0.1411  0.6615 -0.1568
  154MOL    C8240168   6.990   1.266   4.158  0.3644 -0.6026 -0.8978
  154MOL    C8340169   6.926   1.210   4.032 -0.2724  0.1202  0.5911
  154MOL    C8440170   7.134   1.304   4.154 -0.3291  0.0553 -0.1598
  154MOL    H8540171   6.716   1.261   4.200  0.8675 -0.0687  0.4826
  154MOL    H8640172   6.758   1.162   4.332  0.0452 -1.4654 -1.9233
  154MOL    H8740173   6.978   1.317   4.354  2.8954 -0.1398 -1.6962
  154MOL    H8840174   6.817   1.209   4.025 -0.2506  0.9157  0.0567
  154MOL    H8940175   6.951   1.106   4.012  0.4933  0.2982  0.5910
  154MOL    H9040176   6.961   1.274   3.951 -1.5883  0.1597  0.0336
  154MOL    H9140177   7.202   1.235   4.104  0.1792  0.5512 -0.1609
  154MOL    H9240178   7.170   1.307   4.257 -0.7353  0.5916 -0.0358
  154MOL    C9340179   7.153   1.439   4.099 -0.4017  0.2181 -0.1088
  154MOL    C9440180   7.299   1.477   4.058  0.8196 -0.2241  0.2178
  154MOL    C9540181   7.349   1.598   4.030  0.3377 -0.5148  0.2531
  154MOL    C9640182   7.267   1.730   4.043 -0.4913  0.5202 -0.1611
  154MOL    C9740183   7.489   1.622   3.970  0.1146 -0.0468 -0.4760
  154MOL    H9840184   7.099   1.507   4.164  1.0577  1.1870  0.1137
  154MOL    H9940185   7.102   1.435   4.002 -1.5323 -0.4386  0.5052
  154MOL   H10040186   7.354   1.385   4.043  1.0118  0.0013 -0.4455
  154MOL   H10140187   7.252   1.786   3.951  0.2035  0.0274 -0.5819
  154MOL   H10240188   7.311   1.805   4.109  2.4264  0.4961 -1.9688
  154MOL   H10340189   7.172   1.713   4.093 -1.4361  0.2749 -2.0062
  154MOL   H10440190   7.550   1.675   4.043 -2.4149  0.0248  1.6393
  154MOL   H10540191   7.479   1.673   3.875 -0.4511 -1.7158 -1.3262
  154MOL   C10640192   7.569   1.491   3.943  0.7853 -0.5696 -0.9448
  154MOL   C10740193   7.686   1.516   3.848  0.1409  0.1176 -0.3348
  154MOL   C10840194   7.812   1.532   3.895 -0.7311 -0.2748  0.4995
  154MOL   C10940195   7.863   1.517   4.042 -0.5859  0.1561  0.5110
  154MOL   C11040196   0.039   1.566   3.787 -0.1057 -0.1335  0.1102
  154MOL   H11140197   7.501   1.423   3.891  0.1116  0.0089 -0.8164
  154MOL   H11240198   7.610   1.439   4.029  0.0833 -0.1387 -0.3462
  154MOL   H11340199   7.665   1.517   3.742  1.7371  2.6779 -0.6860
  154MOL   H11440200   7.833   1.427   4.097  0.4043  0.2794  1.2562
  154MOL   H11540201   7.833   1.603   4.101  1.5973  1.8153 -0.7303
  154MOL   H11640202   0.088   1.534   4.043 -0.9661  2.8679  3.8387
  154MOL   H11740203   0.115   1.634   3.828  0.5623 -0.3281 -0.7878
  154MOL   H11840204   7.878   1.623   3.704  0.9064 -1.2622 -1.2104
  154MOL   C11940205   0.119   1.438   3.743 -0.0924  0.0584 -0.5199
  154MOL   C12040206   0.227   1.412   3.843  0.0869 -0.5178 -0.2724
  154MOL   C12140207   0.263   1.297   3.904 -0.9124  0.2762  0.2265
  154MOL   C12240208   0.182   1.176   3.877  0.1242  0.6169  0.1242
  154MOL   C12340209   0.367   1.274   4.008  0.2525 -0.3266 -0.0529
  154MOL   H12440210   0.158   1.451   3.641 -0.1876  2.7141 -0.2578
  154MOL   H12540211   0.044   1.360   3.738 -1.7129  1.5487  0.0360
  154MOL   H12640212   0.293   1.495   3.864  1.6492 -2.0924  1.2852
  154MOL   H12740213   0.088   1.190   3.929  0.7504 -0.1749  1.4773
  154MOL   H12840214   0.226   1.084   3.914 -1.2290 -0.2535 -0.4033
  154MOL   H12940215   0.172   1.153   3.771 -2.5433 -0.2084  0.5380
  154MOL   H13040216   0.430   1.363   4.004  0.5079 -0.4948  0.1318
  154MOL   H13140217   0.434   1.194   3.975  0.4077 -0.4840  0.6392
  154MOL   C13240218   0.297   1.252   4.145  0.7328 -0.2045 -0.9356
  154MOL   C13340219   0.398   1.238   4.257 -0.5913  0.2402 -0.2286
  154MOL   C13440220   0.459   1.331   4.331 -0.0520 -0.0964  0.6536
  154MOL   C13540221   0.450   1.485   4.305 -0.6169 -0.2373  0.1184
  154MOL   C13640222   0.553   1.293   4.445 -0.1767 -0.5144  0.1067
  154MOL   H13740223   0.240   1.159   4.148 -0.3509  0.4832 -0.2997
  154MOL   H13840224   0.230   1.336   4.160  2.3915  0.8698  0.6722
  154MOL   H13940225   0.416   1.137   4.290  2.4920 -0.0552 -2.6078
  154MOL   H14040226   0.390   1.510   4.218 -1.4937 -1.8974  0.2312
  154MOL   H14140227   0.550   1.516   4.277 -1.7761  2.0180 -1.7083
  154MOL   H14240228   0.408   1.542   4.389  2.0232 -2.0985  2.8139
  154MOL   H14340229   0.644   1.350   4.423 -0.9071 -0.4336 -2.9352
  154MOL   H14440230   0.592   1.191   4.444  1.1784 -0.0242  1.4018
  154MOL   C14540231   0.513   1.353   4.585 -0.3754  0.1083 -0.8307
  154MOL   C14640232   0.551   1.252   4.701 -0.1851  0.7407  0.1338
  154MOL   C14740233   0.668   1.267   4.767  0.8682 -0.4070 -0.3097
  154MOL   C14840234   0.787   1.362   4.749  0.4308  0.4807 -0.1518
  154MOL   C14940235   0.698   1.165   4.882  0.2240  0.1777  0.2841
  154MOL   H15040236   0.410   1.386   4.599  0.6501  3.3348 -0.5254
  154MOL   H15140237   0.566   1.444   4.611 -0.9597 -0.2155  1.5886
  154MOL   H15240238   0.481   1.172   4.722  0.3580  0.2755  0.1754
  154MOL   H15340239   0.766   1.415   4.656  1.4410 -0.9396 -1.2080
  154MOL   H15440240   0.877   1.303   4.731  0.1000  0.1831 -0.8318
  154MOL   H15540241   0.812   1.422   4.837 -1.7317  0.0021  0.8221
  154MOL   H15640242   0.607   1.118   4.921  0.6485 -1.2821 -0.4400
  154MOL   H15740243   0.741   1.226   4.961  0.5991 -0.9050  0.9301
  154MOL   C15840244   0.791   1.050   4.856 -0.8065  0.0541  0.2812
  154MOL   C15940245   0.831   0.962   4.979  0.4355 -0.4523 -0.0226
  154MOL   C16040246   0.875   0.835   4.981  0.0664 -0.6101 -0.1341
  154MOL   C16140247   0.892   0.752   4.855 -0.9487 -0.2313  0.0240
  154MOL   C16240248   0.918   0.772   5.109  0.2938 -0.9068 -0.0753
  154MOL   H16340249   0.885   1.090   4.819  0.0705 -0.0047  2.3894
  154MOL   H16440250   0.751   0.994   4.771  2.2698 -1.9060  0.0555
  154MOL   H16540251   0.838   1.020   5.069 -0.4197 -0.5999  0.1365
  154MOL   H16640252   0.860   0.796   4.760  0.8813  1.0224 -0.0415
  154MOL   H16740253   0.850   0.652   4.860 -1.6868  0.0160 -0.9756
  154MOL   H16840254   0.997   0.729   4.841 -0.2575  1.8029  1.5725
  154MOL   H16940255   0.870   0.674   5.115 -0.1821 -0.7894 -1.6717
  154MOL   H17040256   0.864   0.820   5.190 -0.2064 -1.4465 -0.0832
  154MOL   C17140257   1.071   0.766   5.118  1.0725 -0.4304  0.1220
  154MOL   C17240258   1.126   0.722   5.254 -0.4843 -1.0446 -0.1603
  154MOL   C17340259   1.241   0.656   5.271 -0.3853 -0.2455 -0.1357
  154MOL   C17440260   1.332   0.610   5.159  0.5939  0.0973  0.5759
  154MOL   C17540261   1.295   0.637   5.410 -0.0773  0.4449 -0.5279
  154MOL   H17640262   1.108   0.869   5.118  1.1056 -0.4269  1.8114
  154MOL   H17740263   1.129   0.720   5.039  2.0102 -0.1085  0.6137
  154MOL   H17840264   1.069   0.746   5.343 -0.5545  0.4440 -0.5964
  154MOL   H17940265   1.407   0.545   5.204  1.8111  1.8968  1.2108
  154MOL   H18040266   1.374   0.702   5.119 -2.0504  1.7001  1.3769
  154MOL   H18140267   1.279   0.548   5.087 -1.2751  0.4341  1.6229
  154MOL   H18240268   1.263   0.721   5.471  1.5193  0.7733 -0.1394
  154MOL   H18340269   1.402   0.656   5.417 -0.6475  3.5055  0.3832
  154MOL   C18440270   1.234   0.504   5.465  0.9533 -0.1472 -0.5496
  154MOL   C18540271   1.233   0.501   5.619 -0.2852  0.6055 -0.4072
  154MOL   C18640272   1.241   0.398   5.704 -0.4663 -0.0180 -0.1055
  154MOL   C18740273   1.236   0.253   5.659 -0.3981 -0.1297  0.3687
  154MOL   C18840274   1.263   0.415   5.850 -0.8769  0.0856 -0.0786
  154MOL   H18940275   1.280   0.412   5.429  0.7476  0.0992 -1.4603
  154MOL   H19040276   1.127   0.509   5.442  0.9237  2.9030  0.0227
  154MOL   H19140277   1.233   0.602   5.656  0.9490  0.8255 -1.0071
  154MOL   H19240278   1.132   0.230   5.635 -0.3826 -1.5689  1.5826
  154MOL   H19340279   1.260   0.177   5.734  0.2667 -1.0087 -0.7108
  154MOL   H19440280   1.297   0.243   5.569 -2.1089 -1.9616 -0.6361
  154MOL   H19540281   1.368   0.386   5.853 -1.4858 -2.2671 -1.0055
  154MOL   H19640282   1.201   0.334   5.886 -0.1736  0.1178  1.2439
  154MOL   C19740283   1.224   0.548   5.911  0.1502 -0.5044  0.2612
  154MOL   C19840284   1.261   0.550   6.057  0.2975 -0.1647  0.4556
  154MOL   C19940285   1.234   0.646   6.155  0.5979 -0.3044 -0.3269
  154MOL   C20040286   1.162   0.772   6.111  0.3258 -0.5041  0.6103
  154MOL   C20140287   1.292   0.653   6.297 -0.0244  1.3495 -0.0599
  154MOL   H20240288   1.116   0.562   5.905  0.1682 -0.4694  0.0205
  154MOL   H20340289   1.279   0.638   5.882 -1.3038  0.6527  0.9903
  154MOL   H20440290   1.333   0.479   6.095 -0.5310  0.3692  3.0805
  154MOL   H20540291   1.125   0.762   6.008 -0.8682  0.1068  0.9701
  154MOL   H20640292   1.224   0.861   6.121  1.2163 -0.9908 -0.4186
  154MOL   H20740293   1.076   0.776   6.177 -0.7872  0.4101 -0.8598
  154MOL   H20840294   1.211   0.657   6.370 -0.5996 -0.0912 -0.5996
  154MOL   H20940295   1.342   0.749   6.310 -0.6824  2.1220 -2.8613
  154MOL   C21040296   1.391   0.543   6.343 -0.0875 -0.3698 -0.0496
  154MOL   C21140297   1.464   0.566   6.478  0.2409 -0.0660  1.0136
  154MOL   C21240298   1.569   0.652   6.494  0.2120  0.0381  0.7812
  154MOL   C21340299   1.628   0.733   6.382  0.8625  0.9665 -0.1363
  154MOL   C21440300   1.649   0.660   6.630 -0.0147 -0.0810  0.4271
  154MOL   H21540301   1.473   0.517   6.277  0.8977 -0.2002  1.0808
  154MOL   H21640302   1.343   0.446   6.354  0.2733 -0.4162  1.2143
  154MOL   H21740303   1.428   0.506   6.560 -0.3197 -2.5478 -1.0202
  154MOL   H21840304   1.726   0.694   6.355  0.4907  0.0044 -0.1114
  154MOL   H21940305   1.654   0.832   6.420 -0.1061  1.4945 -0.8341
  154MOL   H22040306   1.568   0.761   6.295 -1.5358  2.6182  1.9823
  154MOL   H22140307   1.752   0.624   6.627 -0.8665 -2.7191  1.3484
  154MOL   H22240308   1.594   0.593   6.696  1.2834 -0.9327  0.6537
  154MOL   C22340309   1.654   0.804   6.688 -0.6441 -0.5757 -0.0306
  154MOL   C22440310   1.687   0.814   6.838 -0.5124 -0.1176 -0.2323
  154MOL   C22540311   1.603   0.791   6.944  0.0748  0.2475 -0.8768
  154MOL   C22640312   1.456   0.757   6.927  0.9786  0.3741 -0.0798
  154MOL   C22740313   1.656   0.814   7.094 -0.1512 -0.0666  0.0288
  154MOL   H22840314   1.557   0.853   6.685 -0.1973  0.2554 -1.5043
  154MOL   H22940315   1.707   0.877   6.628 -0.5479  1.2354  2.1775
  154MOL   H23040316   1.786   0.855   6.853 -0.9421  1.0610 -0.5935
  154MOL   H23140317   1.424   0.696   6.842 -0.6328 -1.4431  1.7678
  154MOL   H23240318   1.392   0.846   6.931  0.6678  0.0999  1.4648
  154MOL   H23340319   1.430   0.685   7.005  3.2849 -0.2250  0.1586
  154MOL   H23440320   1.763   0.792   7.096 -0.0023  0.7780  1.6921
  154MOL   H23540321   1.618   0.736   7.161 -1.5392  1.4871  1.0837
  154MOL   C23640322   1.639   0.951   7.144  0.1739 -0.0374 -0.6284
  154MOL   C23740323   1.731   1.055   7.089 -0.7700 -0.3675 -0.2107
  154MOL   C23840324   1.710   1.152   6.999 -0.0678  0.3813  0.2092
  154MOL   C23940325   1.577   1.175   6.930  0.6901  0.3930  0.0055
  154MOL   C24040326   1.817   1.256   6.963  1.0958 -0.2614 -0.9886
  154MOL   H24140327   1.655   0.958   7.251  2.4649 -1.8939 -0.8186
  154MOL   H24240328   1.531   0.962   7.131 -0.1716 -0.5220  1.7354
  154MOL   H24340329   1.830   1.053   7.133 -0.6849 -3.0362 -0.4588
  154MOL   H24440330   1.517   1.084   6.937 -0.9802  1.4061 -0.6854
  154MOL   H24540331   1.597   1.191   6.825 -1.3523  1.7487 -0.2055
  154MOL   H24640332   1.527   1.261   6.975 -3.3293 -1.4317 -0.6911
  154MOL   H24740333   1.865   1.244   6.866 -0.8909 -0.0011 -2.0356
  154MOL   H24840334   1.896   1.233   7.035  1.2950 -1.2413 -1.5158
  154MOL   C24940335   1.785   1.406   6.990 -0.0947  0.3703  0.0834
  154MOL   C25040336   1.885   1.492   6.922 -0.0582 -0.4067 -0.1355
  154MOL   C25140337   1.940   1.607   6.971  1.0707 -0.3850 -0.5513
  154MOL   C25240338   1.901   1.671   7.106 -0.7215  0.1014 -0.0913
  154MOL   C25340339   2.028   1.690   6.889 -0.3247 -0.3122 -0.4229
  154MOL   H25440340   1.796   1.417   7.098 -0.6270 -1.9398  0.3998
  154MOL   H25540341   1.682   1.425   6.961  0.3110  1.0624 -0.9291
  154MOL   H25640342   1.908   1.455   6.823 -0.0447 -0.9542  0.0714
  154MOL   H25740343   1.872   1.776   7.107 -4.0108 -0.7112 -1.7929
  154MOL   H25840344   1.987   1.670   7.172  0.1862 -1.2907 -1.2657
  154MOL   H25940345   1.832   1.617   7.172  0.3791 -0.3673  0.6795
  154MOL   H26040346   2.122   1.710   6.940 -1.3860 -1.2860  1.9458
  154MOL   H26140347   1.998   1.794   6.876  1.3475  0.3201  0.5195
  154MOL   H26240348   2.050   1.632   6.799 -1.8293  0.2790 -1.1950
  155MOL     C140349   2.312   1.452   7.344 -0.2822 -0.0018  0.2439
  155MOL     C240350   2.296   1.529   7.474 -0.4989 -0.1543 -0.4354
  155MOL     C340351   2.188   1.543   7.550  0.3607  0.7833  0.1011
  155MOL     C440352   2.053   1.483   7.511  0.6241  0.4807  0.2443
  155MOL     C540353   2.185   1.624   7.677 -0.0733 -0.1251 -0.1397
  155MOL     H640354   2.234   1.477   7.273  0.5194  2.0931  0.0657
  155MOL     H740355   2.397   1.480   7.282 -2.1533 -1.1506 -2.9090
  155MOL     H840356   2.388   1.576   7.507 -0.9268  0.6629 -0.3884
  155MOL     H940357   2.064   1.425   7.420 -0.3856  1.7526 -0.7064
  155MOL    H1040358   1.983   1.566   7.497  0.9555  0.6054 -0.6711
  155MOL    H1140359   2.021   1.417   7.592 -0.1471  1.1085  0.4604
  155MOL    H1240360   2.131   1.566   7.752 -1.4068  1.4250  0.1109
  155MOL    H1340361   2.126   1.713   7.658 -0.6313  0.0506  2.2947
  155MOL    H1440362   2.302   1.346   7.370  0.2290  0.1838  1.2230
  155MOL    C1540363   2.317   1.665   7.731  0.5189 -0.1818  1.0443
  155MOL    C1640364   2.310   1.749   7.855 -0.1865 -0.1675  0.1437
  155MOL    C1740365   2.412   1.778   0.052 -0.0813 -0.5713  0.7905
  155MOL    C1840366   2.560   1.728   0.023  0.0299  0.1854  0.5178
  155MOL    C1940367   2.389   1.849   0.181  0.4205 -0.1755 -0.4106
  155MOL    H2040368   2.370   1.726   7.658  2.0772 -0.8481  1.5852
  155MOL    H2140369   2.383   1.579   7.746  0.1727 -0.6820 -0.2096
  155MOL    H2240370   2.208   1.777   7.878 -0.5402 -1.8492  0.7446
  155MOL    H2340371   2.574   1.624   0.055  1.4508 -0.2880 -1.5412
  155MOL    H2440372   2.631   1.790   0.078 -0.7393  1.7051 -0.1856
  155MOL    H2540373   2.599   1.737   7.805  0.0974 -1.5380  0.3773
  155MOL    H2640374   2.286   1.880   0.194  0.7784  1.6133 -1.6253
  155MOL    H2740375   2.458   1.931   0.200 -0.0357  0.2157 -0.4344
  155MOL    C2840376   2.426   1.747   0.287 -0.1186 -0.3137  0.4915
  155MOL    C2940377   2.382   1.799   0.423  0.0862 -0.6992 -0.2136
  155MOL    C3040378   2.463   1.825   0.526  1.2223  0.7943  0.2139
  155MOL    C3140379   2.611   1.788   0.547  0.2296 -0.1160 -0.4714
  155MOL    C3240380   2.404   1.873   0.662  0.2688  0.0323  0.3399
  155MOL    H3340381   2.531   1.717   0.280 -0.9038 -2.5515 -2.5387
  155MOL    H3440382   2.379   1.652   0.259 -0.3720  0.0876 -0.4455
  155MOL    H3540383   2.276   1.817   0.430  0.5018  1.4556  0.9733
  155MOL    H3640384   2.615   1.694   0.604 -1.7145 -1.7863 -2.9803
  155MOL    H3740385   2.668   1.857   0.610  1.2530  0.8020 -2.3756
  155MOL    H3840386   2.658   1.791   0.449  0.4175 -1.9370 -0.4603
  155MOL    H3940387   2.304   1.911   0.640  1.1019  1.0643 -1.7679
  155MOL    H4040388   2.453   1.954   0.717 -0.0243 -0.4488  1.3231
  155MOL    C4140389   2.371   1.767   0.768  0.2975 -0.4511  0.9829
  155MOL    C4240390   2.328   1.831   0.893 -0.5128  0.3581 -0.5128
  155MOL    C4340391   2.227   1.805   0.979  0.0767 -0.1277  0.7064
  155MOL    C4440392   2.128   1.689   0.962 -0.3390  0.5307  0.5761
  155MOL    C4540393   2.215   1.883   1.110 -0.7853  1.0485  0.3791
  155MOL    H4640394   2.457   1.705   0.794  1.4010 -0.4713 -2.4299
  155MOL    H4740395   2.294   1.698   0.734  0.0476 -0.5360  1.7169
  155MOL    H4840396   2.390   1.912   0.930  1.0527 -0.2473 -1.7377
  155MOL    H4940397   2.172   1.611   1.024 -0.9385  0.4380  0.8963
  155MOL    H5040398   2.113   1.647   0.863 -2.0667  0.2800  0.9139
  155MOL    H5140399   2.036   1.707   1.018 -1.8823 -1.9144 -1.0683
  155MOL    H5240400   2.293   1.950   1.144 -0.3194 -0.0091  1.4243
  155MOL    H5340401   2.211   1.809   1.189  2.8691  1.3888  0.9386
  155MOL    C5440402   2.085   1.970   1.120 -0.6790  0.3914  0.1608
  155MOL    C5540403   2.081   2.066   1.003 -0.1291 -0.2026 -0.0041
  155MOL    C5640404   2.131   2.193   1.000  0.9272 -0.6954 -0.4166
  155MOL    C5740405   2.191   2.265   1.119 -0.8390  0.5017 -0.2753
  155MOL    C5840406   2.123   2.276   0.867  0.1872 -0.7837 -0.1777
  155MOL    H5940407   2.089   2.021   1.216  0.0442  2.1371 -0.7899
  155MOL    H6040408   1.993   1.913   1.102 -0.8956  0.2054  1.7570
  155MOL    H6140409   2.055   2.006   0.917 -0.3998 -1.8684  1.2245
  155MOL    H6240410   2.153   2.366   1.134 -2.6157 -0.1832 -0.0086
  155MOL    H6340411   2.299   2.270   1.114 -0.7963 -0.0966 -0.0221
  155MOL    H6440412   2.175   2.216   1.215  1.8067  3.5147  1.8231
  155MOL    H6540413   2.081   2.373   0.891  0.4828 -1.1012  1.7299
  155MOL    H6640414   2.049   2.228   0.802  0.6566 -2.3270  0.3948
  155MOL    C6740415   2.258   2.293   0.793  0.2676  0.4684 -0.2184
  155MOL    C6840416   2.246   2.371   0.667  1.1284 -0.5518 -0.2425
  155MOL    C6940417   2.278   2.324   0.542 -0.8697 -0.0458 -0.2185
  155MOL    C7040418   2.339   2.189   0.517  0.5127 -0.2082  0.5245
  155MOL    C7140419   2.266   2.401   0.417  0.1604 -0.1524 -0.2365
  155MOL    H7240420   2.305   2.198   0.771  0.3764  0.0985  1.5295
  155MOL    H7340421   2.329   2.342   0.859  2.4192  0.1950 -2.2647
  155MOL    H7440422   2.193   2.463   0.685  1.0492 -0.4062 -1.1641
  155MOL    H7540423   2.421   2.171   0.586 -0.6262 -1.3055  1.6054
  155MOL    H7640424   2.372   2.180   0.413 -1.2232 -1.2349  0.0460
  155MOL    H7740425   2.266   2.110   0.535  0.4096 -0.1239  0.4742
  155MOL    H7840426   2.181   2.467   0.430 -0.5172 -1.2252  0.8710
  155MOL    H7940427   2.244   2.332   0.335  5.2160 -1.6518 -0.5611
  155MOL    C8040428   2.379   2.490   0.375  0.6046  0.6248  0.0722
  155MOL    C8140429   2.360   2.545   0.230 -0.7684  0.0212  0.2478
  155MOL    C8240430   2.458   2.577   0.144  0.9077 -0.0832  0.4472
  155MOL    C8340431   2.604   2.585   0.168  0.3871 -1.0554 -0.7196
  155MOL    C8440432   2.415   2.618   0.000 -0.9743  0.3119  0.5186
  155MOL    H8540433   2.472   2.436   0.387 -0.4952 -1.7398 -1.7588
  155MOL    H8640434   2.388   2.577   0.440  0.8265 -0.6927  1.8394
  155MOL    H8740435   2.254   2.550   0.209 -0.2497 -1.6358 -3.1143
  155MOL    H8840436   2.625   2.568   0.274  3.2144 -1.5404 -1.3302
  155MOL    H8940437   2.661   2.673   0.137 -1.4082 -0.1453 -1.5097
  155MOL    H9040438   2.658   2.504   0.119  3.0881 -0.5617  1.3257
  155MOL    H9140439   2.320   2.572   7.855 -0.4530 -1.4771  1.6265
  155MOL    H9240440   2.497   2.573   7.827 -0.0587  1.2872  1.0505
  155MOL    C9340441   2.412   2.769   7.863 -1.0249  0.0499 -0.5236
  155MOL    C9440442   2.371   2.799   7.718 -0.5465  0.5395 -0.5202
  155MOL    C9540443   2.291   2.897   7.679 -0.2161  0.0575  0.3784
  155MOL    C9640444   2.237   3.003   7.779 -0.3250  0.0001 -0.2157
  155MOL    C9740445   2.239   2.922   7.534 -0.2932 -0.4625  0.0305
  155MOL    H9840446   2.510   2.808   0.005 -2.7975  3.8669  0.9427
  155MOL    H9940447   2.352   2.821   0.055  0.9854 -0.5694  1.5546
  155MOL   H10040448   2.411   2.725   7.650 -1.1164  0.8237 -1.1676
  155MOL   H10140449   2.309   3.083   7.793  1.0303 -1.2723  0.2457
  155MOL   H10240450   2.203   2.963   7.875  0.8319 -0.3427  0.0604
  155MOL   H10340451   2.146   3.047   7.737 -0.3780  0.5695  0.4797
  155MOL   H10440452   2.263   3.018   7.488 -1.7118 -0.9462 -1.7883
  155MOL   H10540453   2.131   2.925   7.542 -0.1926  0.5757  1.0763
  155MOL   C10640454   2.268   2.818   7.429  0.1076  0.2931  0.4903
  155MOL   C10740455   2.225   2.867   7.298  0.1905 -0.3908  0.1383
  155MOL   C10840456   2.291   2.864   7.182 -0.1301 -0.1606  0.3428
  155MOL   C10940457   2.434   2.811   7.168  0.5516  0.4351 -0.1147
  155MOL   C11040458   2.239   2.942   7.061  0.0034 -0.6547 -0.4685
  155MOL   H11140459   2.219   2.728   7.467 -0.1701 -0.4602 -1.5894
  155MOL   H11240460   2.375   2.800   7.423  0.1193 -0.5092  2.6359
  155MOL   H11340461   2.126   2.909   7.296  0.9848  1.5084  0.2580
  155MOL   H11440462   2.515   2.867   7.214  0.5204  2.0630 -2.0071
  155MOL   H11540463   2.465   2.801   7.064  1.3942 -0.9787  0.2535
  155MOL   H11640464   2.445   2.710   7.208  2.8227  1.2137  1.3024
  155MOL   H11740465   2.303   3.027   7.040 -1.6555  0.1414 -2.4996
  155MOL   H11840466   2.146   2.993   7.087  0.6326 -0.6338  1.9019
  155MOL   C11940467   2.198   2.849   6.941 -0.3087 -0.0628  0.4553
  155MOL   C12040468   2.119   2.924   6.831 -0.2926  0.6424  0.3235
  155MOL   C12140469   1.997   2.887   6.787 -0.0118  0.0602 -0.1746
  155MOL   C12240470   1.915   2.766   6.844 -0.2361  0.4996  0.0734
  155MOL   C12340471   1.926   2.957   6.672 -0.5037  0.2081 -0.2826
  155MOL   H12440472   2.139   2.764   6.976 -2.5447  0.8842 -0.9297
  155MOL   H12540473   2.282   2.804   6.886 -0.1455  0.3893  0.3334
  155MOL   H12640474   2.180   3.003   6.789 -0.5048  1.7068  1.9778
  155MOL   H12740475   1.807   2.780   6.833 -0.1953 -0.4463 -1.7060
  155MOL   H12840476   1.934   2.752   6.951 -1.1704  2.3500  0.5100
  155MOL   H12940477   1.943   2.679   6.785  0.9973 -0.0709  1.4720
  155MOL   H13040478   1.986   3.045   6.648 -1.4462  0.7917 -0.5044
  155MOL   H13140479   1.841   3.016   6.705 -2.0880 -0.6526 -2.7068
  155MOL   C13240480   1.905   2.867   6.540 -0.1469 -0.6986 -0.7191
  155MOL   C13340481   1.865   2.949   6.423  0.1488  0.0485 -0.0928
  155MOL   C13440482   1.745   2.986   6.380  0.3102 -0.2520 -0.6568
  155MOL   C13540483   1.623   2.960   6.466 -0.1193  0.1017  0.3541
  155MOL   C13640484   1.722   3.073   6.262 -0.2091  0.3618  0.3451
  155MOL   H13740485   1.839   2.781   6.553  0.8430 -1.3200  0.3469
  155MOL   H13840486   2.007   2.832   6.520  1.1721  2.8667 -0.6386
  155MOL   H13940487   1.954   2.977   6.370 -0.8798  0.8539 -1.4182
  155MOL   H14040488   1.638   2.863   6.514  2.1508  1.0955  1.7214
  155MOL   H14140489   1.531   2.947   6.409 -0.3043 -0.0876  0.6983
  155MOL   H14240490   1.602   3.033   6.544  0.0314  1.1403 -0.5688
  155MOL   H14340491   1.630   3.131   6.272 -0.6166 -0.7874  3.7420
  155MOL   H14440492   1.694   3.018   6.172 -0.7378  0.1273  0.6530
  155MOL   C14540493   1.841   3.169   6.231 -0.2189  0.6495  0.1105
  155MOL   C14640494   1.791   3.273   6.136 -0.4019 -0.0517 -0.1412
  155MOL   C14740495   1.822   3.270   6.004 -0.2216  0.6842  0.1231
  155MOL   C14840496   1.908   3.166   5.935 -0.1319  1.5522  0.0040
  155MOL   C14940497   1.767   3.362   5.896 -0.4123  0.2667 -1.1146
  155MOL   H15040498   1.921   3.102   6.200 -1.3183 -0.2935 -0.7128
  155MOL   H15140499   1.866   3.228   6.320 -2.0849 -0.0253  1.1262
  155MOL   H15240500   1.727   3.345   6.183 -1.0903 -1.4092  1.0400
  155MOL   H15340501   1.984   3.124   6.001 -0.2745 -0.0018 -0.7784
  155MOL   H15440502   1.957   3.220   5.855 -0.6671  1.4295 -0.4143
  155MOL   H15540503   1.842   3.098   5.881 -1.1844  3.9226 -1.7603
  155MOL   H15640504   1.711   3.296   5.830 -0.7755 -1.5913  0.9811
  155MOL   H15740505   1.850   3.409   5.845 -0.1190  1.3484  0.3202
  155MOL   C15840506   1.677   3.473   5.960  0.4282 -0.2603 -0.1329
  155MOL   C15940507   1.631   3.574   5.857 -0.4930  0.1666  0.2438
  155MOL   C16040508   1.506   3.605   5.819  0.0835 -0.7312 -0.2845
  155MOL   C16140509   1.383   3.551   5.884 -0.6229  0.6640  0.6890
  155MOL   C16240510   1.478   3.704   5.712  0.0240  0.1378 -0.7099
  155MOL   H16340511   1.742   3.519   6.035  2.3142  2.3557 -3.2126
  155MOL   H16440512   1.595   3.417   6.003  1.2052 -1.3684 -0.0834
  155MOL   H16540513   1.716   3.613   5.803 -0.9937  0.6473 -0.2038
  155MOL   H16640514   1.395   3.443   5.894 -0.3242  0.7288  1.0338
  155MOL   H16740515   1.293   3.579   5.828  0.7627 -1.5675 -2.8442
  155MOL   H16840516   1.371   3.592   5.984 -0.1912 -0.6239  1.2853
  155MOL   H16940517   1.572   3.751   5.683 -0.5076  1.3674 -0.4880
  155MOL   H17040518   1.420   3.791   5.744 -1.0265 -0.8080 -0.0148
  155MOL   C17140519   1.411   3.642   5.589  0.5502 -0.3084  0.0540
  155MOL   C17240520   1.399   3.737   5.480  0.4389 -0.4063  0.0234
  155MOL   C17340521   1.443   3.731   5.353 -0.1497  0.5256  0.3874
  155MOL   C17440522   1.509   3.609   5.291  0.1314  0.3734 -0.1786
  155MOL   C17540523   1.413   3.851   5.271 -0.3296 -0.6260  0.3989
  155MOL   H17640524   1.312   3.606   5.619 -0.4868  1.0861 -1.5740
  155MOL   H17740525   1.469   3.556   5.557  2.8613  1.0192  0.5374
  155MOL   H17840526   1.332   3.818   5.505  0.5997 -0.3650  0.3180
  155MOL   H17940527   1.458   3.577   5.201  3.2349 -0.0235 -1.8755
  155MOL   H18040528   1.521   3.533   5.368 -1.3344  0.2507 -0.0603
  155MOL   H18140529   1.612   3.638   5.269  0.3673  0.5643  1.1436
  155MOL   H18240530   1.509   3.885   5.230 -1.0094 -0.0265 -0.7033
  155MOL   H18340531   1.387   3.935   5.335  0.6752  1.0974 -1.3707
  155MOL   C18440532   1.323   3.820   5.151 -0.1163  0.0909 -0.3185
  155MOL   C18540533   1.266   3.950   5.104 -0.0025  0.1052  0.0263
  155MOL   C18640534   1.267   3.993   4.971 -0.2152 -0.1441 -0.5768
  155MOL   C18740535   1.311   3.910   4.847  0.1291 -1.0040  0.8022
  155MOL   C18840536   1.205   4.124   4.940  0.3840  0.1171 -0.6552
  155MOL   H18940537   1.238   3.766   5.191 -1.4722  1.1589 -1.6873
  155MOL   H19040538   1.377   3.756   5.081  0.6811  1.0866 -0.6384
  155MOL   H19140539   1.223   4.014   5.180 -0.7138  0.2710 -0.5144
  155MOL   H19240540   1.224   3.911   4.782  0.1353  2.4396  0.7919
  155MOL   H19340541   1.342   3.812   4.884 -1.0200 -0.5680  3.0146
  155MOL   H19440542   1.400   3.948   4.796  0.1465  1.7540  2.7904
  155MOL   H19540543   1.185   4.174   5.035 -0.0951  0.2729 -0.8370
  155MOL   H19640544   1.111   4.104   4.889 -0.2768 -0.1987  0.6510
  155MOL   C19740545   1.279   4.226   4.849 -0.5496 -0.6683  0.3266
  155MOL   C19840546   1.202   4.347   4.817 -0.3114 -0.2881  0.2044
  155MOL   C19940547   1.208   4.463   4.883  0.1613  0.1375  0.3274
  155MOL   C20040548   1.282   4.472   5.016 -0.3566 -0.5051  0.2990
  155MOL   C20140549   1.138   4.594   4.841 -0.4715 -0.5150  0.4882
  155MOL   H20240550   1.292   4.184   4.750 -2.4611 -3.4147  1.1738
  155MOL   H20340551   1.374   4.248   4.899 -0.7017  0.7065  0.0304
  155MOL   H20440552   1.131   4.343   4.735  1.8528 -1.2664 -1.6796
  155MOL   H20540553   1.240   4.549   5.080  1.6672 -0.9323  2.2358
  155MOL   H20640554   1.385   4.503   4.999 -0.7599  1.8051  1.8783
  155MOL   H20740555   1.294   4.383   5.079 -1.9310  0.5505  2.1534
  155MOL   H20840556   1.062   4.624   4.914  0.5776  4.1854 -0.1711
  155MOL   H20940557   1.084   4.581   4.747 -0.1253  1.7709 -0.0648
  155MOL   C21040558   1.233   4.723   4.825  0.3244  0.7492  0.1947
  155MOL   C21140559   1.154   4.843   4.761  0.5716 -0.6166 -0.1899
  155MOL   C21240560   1.158   4.869   4.629 -0.1358  0.5422 -0.5785
  155MOL   C21340561   1.239   4.788   4.533  0.5339  0.3958 -0.3856
  155MOL   C21440562   1.082   4.985   4.562  0.0684 -0.8161  0.0794
  155MOL   H21540563   1.328   4.704   4.774 -0.0476  0.9427 -0.5806
  155MOL   H21640564   1.271   4.758   4.921  0.7364 -0.9614  0.6593
  155MOL   H21740565   1.106   4.915   4.826 -0.3686 -0.9565 -0.4964
  155MOL   H21840566   1.247   4.839   4.437 -1.9987 -0.6799 -1.1974
  155MOL   H21940567   1.176   4.705   4.501  0.5051  0.5463 -0.7147
  155MOL   H22040568   1.327   4.741   4.578  0.1698  1.5207  1.5893
  155MOL   H22140569   1.161   5.046   4.519 -2.3911  1.8222 -0.8326
  155MOL   H22240570   1.044   5.051   4.640  1.2197  0.0254 -0.0547
  155MOL   C22340571   0.979   4.941   4.457 -1.1611 -0.0927 -0.7111
  155MOL   C22440572   0.928   5.062   4.398 -0.7350  0.4513  0.0135
  155MOL   C22540573   0.947   5.108   4.273 -0.2137 -0.0019  0.0117
  155MOL   C22640574   1.039   5.042   4.174 -0.0720  0.1068 -0.4537
  155MOL   C22740575   0.886   5.240   4.230  0.0043  0.7247 -0.3482
  155MOL   H22840576   0.901   4.880   4.502 -1.0696  0.7915  0.6660
  155MOL   H22940577   1.013   4.877   4.375  1.9392  0.0628  0.3817
  155MOL   H23040578   0.860   5.115   4.463 -0.4173  0.6305  0.2006
  155MOL   H23140579   0.982   4.971   4.114  0.5799  1.3368 -2.5675
  155MOL   H23240580   1.118   4.985   4.224  1.1524  2.2820  0.1701
  155MOL   H23340581   1.083   5.122   4.115 -0.2437 -1.3076 -2.5616
  155MOL   H23440582   0.807   5.261   4.303 -0.8289  2.0671 -1.5967
  155MOL   H23540583   0.838   5.215   4.135  0.5101  1.4096 -0.7895
  155MOL   C23640584   0.996   5.359   4.208  0.1708  0.1872 -0.0433
  155MOL   C23740585   1.072   5.403   4.333 -0.3416  0.6933 -0.4074
  155MOL   C23840586   1.117   5.522   4.363  0.8571  0.3082 -0.4244
  155MOL   C23940587   1.090   5.642   4.279 -0.0786  0.6896  0.1132
  155MOL   C24040588   1.184   5.553   4.497 -0.0543 -0.4893 -0.5725
  155MOL   H24140589   0.950   5.448   4.165 -0.2615  0.8301  1.7022
  155MOL   H24240590   1.067   5.326   4.132 -0.7748 -0.3512 -0.7010
  155MOL   H24340591   1.081   5.332   4.414 -1.0540 -0.6261 -1.4600
  155MOL   H24440592   0.989   5.682   4.273 -1.0581 -1.8304 -1.1145
  155MOL   H24540593   1.110   5.618   4.175  1.3985 -0.5853  0.6731
  155MOL   H24640594   1.166   5.719   4.290  1.6048 -1.1603  1.9593
  155MOL   H24740595   1.164   5.474   4.571  1.1375 -0.4572 -0.2166
  155MOL   H24840596   1.140   5.646   4.532 -0.0302 -0.7778  0.2443
  155MOL   C24940597   1.333   5.577   4.491 -0.0176 -0.3939  0.6338
  155MOL   C25040598   1.387   5.584   4.630 -0.3331  0.0050  0.5657
  155MOL   C25140599   1.412   5.689   4.709 -0.1196 -0.2927 -0.2674
  155MOL   C25240600   1.380   5.834   4.677 -0.0032  1.1207 -0.0541
  155MOL   C25340601   1.487   5.667   4.840 -0.0768  0.3411 -0.2814
  155MOL   H25440602   1.355   5.661   4.425 -2.5039  0.1656  0.4634
  155MOL   H25540603   1.380   5.490   4.446 -0.6379 -0.9794  1.1184
  155MOL   H25640604   1.418   5.484   4.654  0.3502  0.4558  1.5777
  155MOL   H25740605   1.307   5.866   4.751  0.4125  3.5685 -0.6644
  155MOL   H25840606   1.329   5.852   4.582  0.5279 -0.3384 -0.6423
  155MOL   H25940607   1.464   5.904   4.682  1.8754 -0.9132 -1.8689
  155MOL   H26040608   1.510   5.560   4.840  3.1283  0.9789  0.1143
  155MOL   H26140609   1.422   5.695   4.923  2.0946  1.7685  0.9784
  155MOL   H26240610   1.576   5.730   4.837  0.0636  0.3802  2.9118
  156MOL     C140611   4.772   1.331   4.221 -0.3662  0.1450  0.2804
  156MOL     C240612   4.802   1.366   4.363  0.4556  0.1743 -0.1623
  156MOL     C340613   4.753   1.467   4.432  0.0429  0.0329  0.5139
  156MOL     C440614   4.667   1.578   4.373 -0.2899 -0.2277  0.2987
  156MOL     C540615   4.767   1.470   4.582  0.4170 -0.5276 -0.5896
  156MOL     H640616   4.779   1.224   4.204 -1.8785  0.2490 -1.2627
  156MOL     H740617   4.679   1.371   4.180  0.3191  1.6324  0.1283
  156MOL     H840618   4.857   1.289   4.414  0.6717 -0.3445 -1.1649
  156MOL     H940619   4.602   1.548   4.292 -2.7130  1.8820  1.3765
  156MOL    H1040620   4.731   1.658   4.337  1.5844 -2.3347 -1.1069
  156MOL    H1140621   4.599   1.614   4.451 -0.5820  1.3829 -0.6598
  156MOL    H1240622   4.808   1.376   4.617 -0.7031 -0.4233  1.0359
  156MOL    H1340623   4.667   1.470   4.625  0.8911  0.7690  0.5630
  156MOL    H1440624   4.854   1.372   4.162 -0.2965  0.7432  0.7869
  156MOL    C1540625   4.848   1.594   4.620 -0.2687  0.2685 -1.2230
  156MOL    C1640626   4.919   1.574   4.757 -0.4058  0.5161  0.5595
  156MOL    C1740627   4.883   1.601   4.887 -0.6719  0.3292 -0.2296
  156MOL    C1840628   4.747   1.658   4.925 -0.2117 -0.4900 -0.2374
  156MOL    C1940629   4.986   1.584   5.000  0.3554 -0.5090  0.2111
  156MOL    H2040630   4.784   1.682   4.621  2.1569  2.0674 -1.4160
  156MOL    H2140631   4.928   1.618   4.550 -0.1635 -2.6755 -2.2228
  156MOL    H2240632   5.020   1.537   4.748 -0.1965  1.0757  0.5822
  156MOL    H2340633   4.667   1.588   4.902  0.2282 -0.3626 -2.2296
  156MOL    H2440634   4.744   1.751   4.868 -0.9701 -0.9724 -0.9961
  156MOL    H2540635   4.742   1.677   5.032 -0.9111  0.1981 -0.3929
  156MOL    H2640636   5.052   1.503   4.970  0.1140 -0.1905 -1.2049
  156MOL    H2740637   4.929   1.537   5.080  2.4502 -1.4595  1.1858
  156MOL    C2840638   5.069   1.711   5.038 -0.0404  0.0501 -0.0132
  156MOL    C2940639   4.995   1.819   5.119 -0.3119  0.3301 -0.4066
  156MOL    C3040640   5.042   1.875   5.231 -0.3805  0.3064  0.1834
  156MOL    C3140641   5.181   1.858   5.277  0.0964  0.3742  0.4064
  156MOL    C3240642   4.966   1.977   5.302  0.3761 -0.0058  0.1530
  156MOL    H3340643   5.108   1.763   4.950  0.1397 -2.1020 -1.2428
  156MOL    H3440644   5.159   1.690   5.094  0.1827  1.6382  0.2550
  156MOL    H3540645   4.904   1.851   5.071 -0.8575 -0.0683  0.3461
  156MOL    H3640646   5.229   1.937   5.335  0.0063 -0.5857  1.8147
  156MOL    H3740647   5.252   1.866   5.195  1.9863  0.8440  2.0650
  156MOL    H3840648   5.191   1.761   5.327  0.5527 -0.1854 -0.7423
  156MOL    H3940649   4.876   2.002   5.245  0.0094 -2.5347 -0.4336
  156MOL    H4040650   5.025   2.068   5.307  0.4521 -0.1895  3.3910
  156MOL    C4140651   4.916   1.927   5.438 -0.0222 -0.3204  0.3904
  156MOL    C4240652   4.854   2.046   5.506  0.4293  0.0305 -0.0036
  156MOL    C4340653   4.730   2.101   5.474 -0.2829  0.6856  0.5225
  156MOL    C4440654   4.631   2.051   5.367 -0.2604 -0.1995 -0.4452
  156MOL    C4540655   4.670   2.222   5.544  0.3983 -0.3616 -0.0408
  156MOL    H4640656   5.002   1.915   5.503  1.4100  2.2235 -0.9625
  156MOL    H4740657   4.846   1.844   5.443  2.1032 -2.1086  1.2859
  156MOL    H4840658   4.907   2.084   5.591 -0.1166  0.2956  0.2200
  156MOL    H4940659   4.539   2.012   5.413 -1.2144  0.2556 -1.9385
  156MOL    H5040660   4.679   1.966   5.319 -0.6796 -2.0134  2.2136
  156MOL    H5140661   4.606   2.135   5.303  0.2385  0.4488  0.2059
  156MOL    H5240662   4.707   2.223   5.646  1.0882 -0.7481 -0.2866
  156MOL    H5340663   4.567   2.197   5.568  1.2972 -1.6995  2.5955
  156MOL    C5440664   4.682   2.352   5.464  0.4817  0.5505  0.1741
  156MOL    C5540665   4.607   2.468   5.521 -0.1761 -0.0585  0.7239
  156MOL    C5640666   4.642   2.595   5.513 -0.2956  0.3889  0.5285
  156MOL    C5740667   4.771   2.640   5.438  0.6796  0.5305  0.7478
  156MOL    C5840668   4.557   2.700   5.575  0.3492 -0.1022  0.2874
  156MOL    H5940669   4.643   2.343   5.363 -0.1853 -3.1077  0.7010
  156MOL    H6040670   4.788   2.374   5.453  0.5600  0.5897  0.9815
  156MOL    H6140671   4.509   2.445   5.563 -0.8357  2.6280  0.7125
  156MOL    H6240672   4.802   2.570   5.361 -1.9480 -1.1979  1.2190
  156MOL    H6340673   4.847   2.647   5.517  1.7354 -1.0743 -0.1026
  156MOL    H6440674   4.771   2.737   5.389  1.0659 -0.5436 -1.4132
  156MOL    H6540675   4.609   2.785   5.619  0.3585  0.7539 -1.3455
  156MOL    H6640676   4.503   2.654   5.658 -1.2713  3.3413  1.2063
  156MOL    C6740677   4.445   2.746   5.481  0.0771  0.2298 -0.7673
  156MOL    C6840678   4.486   2.855   5.383  0.4339  0.1022 -0.4421
  156MOL    C6940679   4.438   2.873   5.257 -0.0191  0.0496  0.6215
  156MOL    C7040680   4.333   2.774   5.203 -0.0579 -0.0882 -0.0191
  156MOL    C7140681   4.502   2.974   5.162 -0.9828  0.4214  0.2450
  156MOL    H7240682   4.360   2.779   5.541  1.3825  1.9876  0.1444
  156MOL    H7340683   4.400   2.657   5.436  1.6837 -0.3063 -1.3255
  156MOL    H7440684   4.570   2.918   5.409  1.3628 -1.0460 -0.6352
  156MOL    H7540685   4.246   2.828   5.165 -0.7365 -0.6954  0.6595
  156MOL    H7640686   4.283   2.710   5.276  1.4762 -0.3464  0.8104
  156MOL    H7740687   4.376   2.714   5.122 -1.5079 -0.6884 -0.3748
  156MOL    H7840688   4.576   3.043   5.204  1.0111 -0.8108 -1.1581
  156MOL    H7940689   4.419   3.036   5.129 -1.1592  0.4867  0.7991
  156MOL    C8040690   4.572   2.910   5.039  0.0754  0.7501 -0.3469
  156MOL    C8140691   4.617   3.024   4.951 -0.4111 -0.3592 -0.2336
  156MOL    C8240692   4.560   3.073   4.837  1.2457  0.1777 -0.5856
  156MOL    C8340693   4.430   3.014   4.789  0.4486 -0.4879 -0.0492
  156MOL    C8440694   4.620   3.167   4.737 -0.5281 -0.4148 -0.4282
  156MOL    H8540695   4.504   2.840   4.990 -1.5643  1.6956  0.5162
  156MOL    H8640696   4.651   2.846   5.078 -0.5494 -0.5859 -1.2335
  156MOL    H8740697   4.719   3.054   4.972  0.1775 -0.6854 -2.5305
  156MOL    H8840698   4.376   3.091   4.733  4.0135  0.6533 -2.0614
  156MOL    H8940699   4.362   2.973   4.864  0.1261  0.4206  0.1670
  156MOL    H9040700   4.442   2.930   4.720  0.7077 -0.5445  0.0632
  156MOL    H9140701   4.718   3.194   4.777 -2.1374  0.9763  2.7632
  156MOL    H9240702   4.566   3.261   4.727 -0.0555 -0.1932 -0.9153
  156MOL    C9340703   4.640   3.108   4.601  0.4063  0.7584  0.4915
  156MOL    C9440704   4.716   3.200   4.501 -0.1498  0.2970  1.1292
  156MOL    C9540705   4.784   3.159   4.392 -0.3842  0.1014 -0.4338
  156MOL    C9640706   4.788   3.016   4.353 -0.3859  0.1666  0.4915
  156MOL    C9740707   4.858   3.257   4.306 -0.0096 -0.7878  0.8021
  156MOL    H9840708   4.550   3.063   4.560  0.4419  2.0042 -0.9866
  156MOL    H9940709   4.704   3.021   4.616  1.3360  1.4912  0.8022
  156MOL   H10040710   4.712   3.305   4.523 -3.4798  0.7384 -1.3263
  156MOL   H10140711   4.734   2.989   4.262  2.0759 -1.5812 -0.5059
  156MOL   H10240712   4.745   2.949   4.428  0.1559 -0.1843  0.4913
  156MOL   H10340713   4.894   2.991   4.349 -0.3688  0.2534  0.4070
  156MOL   H10440714   4.819   3.355   4.334  0.5230 -1.3026  3.5400
  156MOL   H10540715   4.838   3.237   4.201  0.3403 -2.3543  1.0214
  156MOL   C10640716   5.005   3.256   4.324 -0.3825 -0.8216  0.7039
  156MOL   C10740717   5.043   3.313   4.456 -0.7058 -0.8352 -0.5315
  156MOL   C10840718   5.094   3.432   4.486 -0.3045 -0.6768  0.5288
  156MOL   C10940719   5.123   3.546   4.394  0.2806  0.1900 -0.2692
  156MOL   C11040720   5.117   3.475   4.627  0.0648  0.6946 -0.9098
  156MOL   H11140721   5.065   3.293   4.239 -0.8357 -0.9666  0.3198
  156MOL   H11240722   5.037   3.152   4.322 -1.7599 -1.3024  3.3307
  156MOL   H11340723   5.032   3.237   4.532  1.5925  0.0567  0.7242
  156MOL   H11440724   5.229   3.570   4.410  0.7668 -2.3670  0.6282
  156MOL   H11540725   5.063   3.633   4.419 -1.2683 -1.2814  1.2424
  156MOL   H11640726   5.101   3.517   4.292 -0.2221 -1.0863  0.1883
  156MOL   H11740727   5.030   3.450   4.688  0.9884 -0.4773 -0.0575
  156MOL   H11840728   5.131   3.583   4.636 -0.8920  0.8869 -1.5495
  156MOL   C11940729   5.236   3.413   4.696  0.2658  0.4336  0.1242
  156MOL   C12040730   5.272   3.467   4.837 -0.3732  0.1848 -0.3369
  156MOL   C12140731   5.224   3.427   4.962 -0.8431  0.1362  0.2914
  156MOL   C12240732   5.119   3.316   4.983  0.2107  0.3517  0.0251
  156MOL   C12340733   5.277   3.487   5.085  0.1619 -0.7986  0.1613
  156MOL   H12440734   5.322   3.402   4.631 -0.3893  1.0567 -0.8726
  156MOL   H12540735   5.209   3.308   4.711 -0.9109  0.6424 -0.4530
  156MOL   H12640736   5.346   3.545   4.838  1.7818 -1.7877  1.1229
  156MOL   H12740737   5.158   3.239   5.049  1.3169 -0.3507 -1.4345
  156MOL   H12840738   5.080   3.277   4.889 -0.5186  2.0753 -0.4200
  156MOL   H12940739   5.023   3.351   5.022  0.3246 -0.3642  0.9645
  156MOL   H13040740   5.192   3.520   5.144  1.3458  1.5210  0.6428
  156MOL   H13140741   5.330   3.581   5.069 -1.0712  0.0016  0.7146
  156MOL   C13240742   5.365   3.384   5.168 -0.0610  0.3889  0.8288
  156MOL   C13340743   5.392   3.436   5.308  0.5828 -0.8335 -0.3764
  156MOL   C13440744   5.296   3.460   5.401 -1.0469  1.0679  0.4805
  156MOL   C13540745   5.149   3.433   5.376 -0.3367 -0.0678 -0.0738
  156MOL   C13640746   5.331   3.518   5.534 -0.3342  0.6928 -0.7656
  156MOL   H13740747   5.456   3.378   5.108 -1.3920 -0.1139 -1.1848
  156MOL   H13840748   5.318   3.287   5.183 -1.4045  1.2947  2.6691
  156MOL   H13940749   5.491   3.476   5.326 -0.1624  1.9938 -2.1803
  156MOL   H14040750   5.095   3.518   5.335 -1.3703 -0.3503  0.6805
  156MOL   H14140751   5.096   3.430   5.471 -1.1717 -0.1091 -0.5419
  156MOL   H14240752   5.125   3.335   5.334  0.2820 -0.1849 -0.1557
  156MOL   H14340753   5.439   3.512   5.547 -0.3555 -1.9987 -1.5140
  156MOL   H14440754   5.287   3.457   5.613 -0.4771  0.2208 -1.2073
  156MOL   C14540755   5.294   3.667   5.549  0.3987  0.4644  0.0351
  156MOL   C14640756   5.340   3.728   5.680  0.9087  0.1192 -0.0571
  156MOL   C14740757   5.412   3.838   5.701  0.0270 -0.0653  0.0346
  156MOL   C14840758   5.482   3.908   5.587  0.1854 -0.6531  0.7587
  156MOL   C14940759   5.424   3.906   5.835 -0.0181 -0.0775  0.0234
  156MOL   H15040760   5.186   3.677   5.543  0.3467  1.6239  2.3682
  156MOL   H15140761   5.331   3.730   5.468 -1.0553 -0.8594 -1.7156
  156MOL   H15240762   5.296   3.687   5.770  0.7505  0.1629 -0.1149
  156MOL   H15340763   5.416   3.989   5.556  0.3639 -0.5942  0.5333
  156MOL   H15440764   5.504   3.846   5.501 -0.0276  2.9185 -1.9904
  156MOL   H15540765   5.582   3.944   5.612 -0.0537 -0.1880  1.0639
  156MOL   H15640766   5.528   3.920   5.866 -0.0502 -2.2898  1.2207
  156MOL   H15740767   5.380   3.844   5.913 -1.2490 -1.0202 -1.3982
  156MOL   C15840768   5.365   4.046   5.823 -0.0197 -0.1725 -0.5343
  156MOL   C15940769   5.356   4.102   5.958  0.5112 -0.4882  0.0411
  156MOL   C16040770   5.248   4.163   6.008 -0.2798  0.6249 -0.5087
  156MOL   C16140771   5.106   4.163   5.967  0.3080  0.2164  0.3750
  156MOL   C16240772   5.282   4.243   6.136  0.8168 -0.5161  0.3980
  156MOL   H16340773   5.261   4.039   5.788 -0.1029 -0.0008 -0.3183
  156MOL   H16440774   5.439   4.095   5.760 -0.0665  2.6373  1.4932
  156MOL   H16540775   5.448   4.102   6.015 -0.7736  0.0355  2.1633
  156MOL   H16640776   5.036   4.137   6.047  0.5437  0.5726  0.6997
  156MOL   H16740777   5.084   4.086   5.894  1.9623 -0.5556  0.6859
  156MOL   H16840778   5.067   4.252   5.917 -0.5224 -0.8376 -0.8644
  156MOL   H16940779   5.381   4.226   6.179  1.8208  1.0298 -1.2609
  156MOL   H17040780   5.216   4.226   6.222  1.5625 -0.3295  1.0150
  156MOL   C17140781   5.285   4.394   6.121 -0.4401  1.1192 -0.2029
  156MOL   C17240782   5.414   4.442   6.056 -0.0941 -0.2567 -0.1896
  156MOL   C17340783   5.429   4.469   5.927  0.4030 -0.1025  0.4581
  156MOL   C17440784   5.311   4.469   5.820  0.8831  0.4072 -0.0205
  156MOL   C17540785   5.562   4.522   5.874 -0.1300  0.2023  0.2730
  156MOL   H17640786   5.276   4.439   6.220  0.7931 -0.3238  0.5869
  156MOL   H17740787   5.209   4.426   6.050  1.1845 -2.6970 -3.8454
  156MOL   H17840788   5.497   4.449   6.124 -2.0687  1.8151  2.0898
  156MOL   H17940789   5.323   4.537   5.735 -1.8087 -1.2664 -1.8303
  156MOL   H18040790   5.211   4.486   5.859  0.6294  2.1075 -1.3289
  156MOL   H18140791   5.306   4.371   5.772  0.3998 -0.7081  2.2723
  156MOL   H18240792   5.534   4.610   5.815 -0.5563 -0.2071 -0.1351
  156MOL   H18340793   5.603   4.454   5.799  0.1584 -1.5595  1.9954
  156MOL   C18440794   5.668   4.567   5.977 -0.4226 -0.1370  0.2553
  156MOL   C18540795   5.806   4.616   5.916  0.4027  0.2748 -0.5525
  156MOL   C18640796   5.897   4.704   5.973  0.1774 -0.1633  0.5696
  156MOL   C18740797   5.868   4.774   6.103 -0.4682 -0.3493 -0.3005
  156MOL   C18840798   6.016   4.763   5.908 -0.3591 -1.0736  0.3332
  156MOL   H18940799   5.690   4.486   6.046 -0.2960  0.5984  1.0886
  156MOL   H19040800   5.626   4.639   6.047 -0.6551 -1.1121  1.1202
  156MOL   H19140801   5.827   4.569   5.821 -0.3169  0.5738 -0.8595
  156MOL   H19240802   5.820   4.704   6.172 -2.4731 -1.0244 -2.3066
  156MOL   H19340803   5.799   4.857   6.092  1.2420  1.1493 -0.0483
  156MOL   H19440804   5.964   4.807   6.144 -1.7106  2.1169  0.6833
  156MOL   H19540805   6.106   4.750   5.968 -0.8866  0.5664  1.5325
  156MOL   H19640806   5.990   4.869   5.902  2.0835 -0.3982  1.0295
  156MOL   C19740807   6.049   4.716   5.762 -0.8429 -0.0586  0.0223
  156MOL   C19840808   6.120   4.832   5.699 -0.1051  0.2428 -1.0893
  156MOL   C19940809   6.214   4.822   5.602  0.5281 -0.4833  0.2766
  156MOL   C20040810   6.256   4.685   5.538  0.0937  0.2437  0.6935
  156MOL   C20140811   6.278   4.946   5.546  0.3578 -0.5319  0.4381
  156MOL   H20240812   5.961   4.700   5.699 -1.0140  1.1068 -0.0531
  156MOL   H20340813   6.113   4.629   5.767 -1.2290 -0.3156  0.4993
  156MOL   H20440814   6.108   4.929   5.745 -1.3220 -0.8467  0.9583
  156MOL   H20540815   6.180   4.609   5.555  0.3949 -0.8067 -2.3343
  156MOL   H20640816   6.338   4.662   5.606  0.4982  1.2895  0.5832
  156MOL   H20740817   6.282   4.683   5.432 -1.5966 -1.0321  0.2871
  156MOL   H20840818   6.216   5.035   5.562  0.4629 -0.4327  0.3027
  156MOL   H20940819   6.288   4.939   5.438 -1.7849  1.0384  0.1093
  156MOL   C21040820   6.418   4.974   5.607  0.2662 -0.3031 -0.3336
  156MOL   C21140821   6.515   4.891   5.528 -0.3987 -0.4701  0.5304
  156MOL   C21240822   6.594   4.939   5.432  0.2905 -0.9003  0.3807
  156MOL   C21340823   6.608   5.082   5.394 -0.1885 -0.0609  0.0413
  156MOL   C21440824   6.691   4.848   5.369 -0.2597 -0.4431  0.5872
  156MOL   H21540825   6.410   4.955   5.714 -0.0171 -2.2609 -0.6701
  156MOL   H21640826   6.433   5.081   5.609 -2.0754  0.0541  0.4625
  156MOL   H21740827   6.514   4.784   5.539 -1.8409 -0.6401 -1.0436
  156MOL   H21840828   6.514   5.137   5.393  0.1123  0.4571 -0.0415
  156MOL   H21940829   6.657   5.094   5.297  1.1876  1.1755  0.8701
  156MOL   H22040830   6.667   5.148   5.458  1.6356 -1.2329 -0.4035
  156MOL   H22140831   6.708   4.759   5.430 -1.6707 -0.0720  1.5565
  156MOL   H22240832   6.780   4.910   5.370 -1.8838  1.9575  0.4941
  156MOL   C22340833   6.650   4.801   5.222 -0.3541  0.3633 -0.0518
  156MOL   C22440834   6.753   4.698   5.161  0.4963 -0.4935 -0.1934
  156MOL   C22540835   6.747   4.566   5.180 -0.2298  0.0197  0.4234
  156MOL   C22640836   6.643   4.501   5.268  0.3172  0.1298 -0.4307
  156MOL   C22740837   6.852   4.475   5.110 -0.5340  0.3406 -0.3149
  156MOL   H22840838   6.637   4.892   5.163  1.2297  1.4279  1.2139
  156MOL   H22940839   6.550   4.758   5.219  0.1075 -0.6445 -1.6302
  156MOL   H23040840   6.838   4.743   5.111  1.3860 -1.6694  0.2258
  156MOL   H23140841   6.692   4.455   5.354 -1.0390  2.4593  1.6683
  156MOL   H23240842   6.584   4.430   5.210  0.1750  1.9888 -2.6394
  156MOL   H23340843   6.593   4.583   5.320 -2.0056 -0.9114 -0.9270
  156MOL   H23440844   6.868   4.513   5.009 -1.4478  1.4567 -0.0508
  156MOL   H23540845   6.805   4.378   5.091 -0.9984  0.3771  0.6392
  156MOL   C23640846   6.978   4.457   5.183  0.4936  0.0062 -0.6365
  156MOL   C23740847   7.084   4.404   5.092 -0.2627  0.1702  0.4167
  156MOL   C23840848   7.124   4.280   5.064 -0.0473  0.0976 -0.0649
  156MOL   C23940849   7.052   4.158   5.114 -0.4813  0.4063 -0.1517
  156MOL   C24040850   7.228   4.256   4.955  0.7066 -0.2507  0.3832
  156MOL   H24140851   6.960   4.404   5.277 -0.9877 -0.4270 -1.1496
  156MOL   H24240852   7.005   4.557   5.216 -1.9492 -0.4232  2.9770
  156MOL   H24340853   7.112   4.480   5.020 -1.6921  0.8641  0.5822
  156MOL   H24440854   6.989   4.193   5.197 -1.3761 -0.7392 -0.3494
  156MOL   H24540855   7.126   4.094   5.160 -2.0979 -0.8905  0.7011
  156MOL   H24640856   6.998   4.108   5.034 -0.0704  0.4940 -0.4813
  156MOL   H24740857   7.253   4.342   4.893  0.3311 -1.1969 -1.1400
  156MOL   H24840858   7.177   4.184   4.890 -0.0512  1.5588 -1.0772
  156MOL   C24940859   7.355   4.201   5.012 -0.3450 -0.5784 -0.2929
  156MOL   C25040860   7.454   4.136   4.910  0.1391  0.1457  0.3142
  156MOL   C25140861   7.589   4.150   4.906  0.0389 -0.3882  0.1979
  156MOL   C25240862   7.673   4.256   4.987  0.6954  0.2555 -0.8593
  156MOL   C25340863   7.675   4.060   4.815  0.3513  0.4041  0.4483
  156MOL   H25440864   7.333   4.131   5.093 -1.3397  2.3020  2.0232
  156MOL   H25540865   7.414   4.283   5.054 -0.4086 -0.7832  0.2023
  156MOL   H25640866   7.407   4.060   4.851 -0.2569  1.4983 -1.1520
  156MOL   H25740867   7.773   4.225   5.018  1.5223  3.7348  0.1951
  156MOL   H25840868   7.622   4.285   5.079  0.0163 -0.9329 -0.8482
  156MOL   H25940869   7.681   4.346   4.926 -1.4069  1.7774  1.0359
  156MOL   H26040870   7.770   4.030   4.859  0.1734  0.4711  0.8759
  156MOL   H26140871   7.697   4.104   4.718 -1.0011 -0.0832 -0.0954
  156MOL   H26240872   7.630   3.963   4.795 -0.5852  0.8093  0.5754
  157MOL     C140873   7.558   5.544   1.951  0.1338  0.2852 -0.2403
  157MOL     C240874   7.506   5.686   1.933  0.4136 -0.9612 -0.1753
  157MOL     C340875   7.568   5.798   1.979  0.7660  0.1230 -0.0276
  157MOL     C440876   7.701   5.791   2.039  0.2873 -0.0402  0.2598
  157MOL     C540877   7.502   5.931   1.961 -0.7313  0.0346  0.0188
  157MOL     H640878   7.579   5.522   2.056  0.5324 -0.6666 -0.5166
  157MOL     H740879   7.479   5.478   1.916 -1.1506  2.0837 -0.7930
  157MOL     H840880   7.411   5.695   1.883  0.8825 -1.6471 -1.1853
  157MOL     H940881   7.706   5.858   2.125  2.1354  0.2486 -0.0390
  157MOL    H1040882   7.778   5.819   1.966 -1.4226  0.8653 -1.2287
  157MOL    H1140883   7.735   5.696   2.080  1.2274 -0.2798 -1.0365
  157MOL    H1240884   7.484   5.974   2.060  0.3806 -0.4418  0.4363
  157MOL    H1340885   7.404   5.913   1.917 -1.1589  1.2713  0.4529
  157MOL    H1440886   7.653   5.530   1.900  0.1270  2.3326 -0.8522
  157MOL    C1540887   7.580   6.032   1.874  0.3886 -0.4641  0.0388
  157MOL    C1640888   7.502   6.157   1.829 -0.9416 -0.1889 -0.2100
  157MOL    C1740889   7.497   6.272   1.899 -0.4813 -0.1515 -0.5468
  157MOL    C1840890   7.561   6.294   2.035 -0.5550 -0.4503 -0.4008
  157MOL    C1940891   7.443   6.394   1.833 -0.1280  0.2207 -0.1871
  157MOL    H2040892   7.622   5.998   1.779 -0.7382 -1.0975 -0.2329
  157MOL    H2140893   7.667   6.064   1.931 -0.4692 -0.4497  1.3485
  157MOL    H2240894   7.443   6.150   1.739  0.0149 -0.3629 -0.8290
  157MOL    H2340895   7.663   6.331   2.030 -1.5137  2.6327  1.5740
  157MOL    H2440896   7.558   6.205   2.098 -1.3953  0.1749  0.4624
  157MOL    H2540897   7.494   6.365   2.084  1.9747  1.6298  0.1429
  157MOL    H2640898   7.361   6.436   1.891  1.8348 -0.3574  3.1479
  157MOL    H2740899   7.392   6.364   1.741 -1.0978  0.2668  0.3271
  157MOL    C2840900   7.566   6.492   1.810 -0.4300 -0.6797  0.0533
  157MOL    C2940901   7.522   6.601   1.712  0.6322 -0.0222  0.0799
  157MOL    C3040902   7.459   6.721   1.729 -0.8757 -0.2458 -0.3130
  157MOL    C3140903   7.375   6.763   1.855 -0.4407 -0.2802 -0.0261
  157MOL    C3240904   7.426   6.805   1.606  0.4362  0.6689  0.2196
  157MOL    H3340905   7.654   6.446   1.766  2.2570  1.9488  2.5192
  157MOL    H3440906   7.616   6.533   1.897 -0.5854  1.1839 -0.6988
  157MOL    H3540907   7.547   6.574   1.610  3.0564  0.8588  0.3955
  157MOL    H3640908   7.271   6.741   1.832  0.4577 -0.4320 -4.2438
  157MOL    H3740909   7.393   6.867   1.882 -1.9360 -0.2504  0.9109
  157MOL    H3840910   7.398   6.702   1.942 -2.9731 -0.0664  0.8385
  157MOL    H3940911   7.488   6.784   1.518 -0.9525  2.2744 -1.1837
  157MOL    H4040912   7.451   6.911   1.611  0.9680  0.6712 -1.9089
  157MOL    C4140913   7.280   6.797   1.555  0.3376 -0.4313 -0.5417
  157MOL    C4240914   7.241   6.657   1.519  0.0066  0.6586 -1.0831
  157MOL    C4340915   7.126   6.625   1.442  0.4633  0.3315 -0.2104
  157MOL    C4440916   7.036   6.725   1.377 -0.3964  0.6423 -0.3049
  157MOL    C4540917   7.078   6.482   1.430  0.0773  0.1915  0.5125
  157MOL    H4640918   7.288   6.852   1.462  0.4070  1.1391  0.3740
  157MOL    H4740919   7.212   6.860   1.614 -1.9948 -3.1553 -0.1865
  157MOL    H4840920   7.294   6.579   1.572 -1.7905  0.5581  0.6245
  157MOL    H4940921   6.969   6.763   1.454 -3.1209 -0.0407 -2.2639
  157MOL    H5040922   6.974   6.677   1.301 -0.3783 -1.9884  1.2810
  157MOL    H5140923   7.103   6.801   1.336  2.3135 -0.9779  0.9652
  157MOL    H5240924   6.970   6.477   1.445 -0.1783 -1.6409 -1.6171
  157MOL    H5340925   7.123   6.419   1.507 -1.8139 -0.2113  1.3036
  157MOL    C5440926   7.114   6.420   1.295  0.3445  0.2089  0.4957
  157MOL    C5540927   7.070   6.276   1.289  0.4755 -1.0494 -0.0428
  157MOL    C5640928   6.996   6.219   1.195 -0.1220 -0.2693  0.1362
  157MOL    C5740929   6.955   6.280   1.067  0.1746 -0.2303  0.6884
  157MOL    C5840930   6.949   6.076   1.212 -0.0273  0.2239 -0.4988
  157MOL    H5940931   7.221   6.423   1.274  0.1603 -0.1427 -0.5237
  157MOL    H6040932   7.071   6.479   1.214  0.1938 -1.7472 -0.8752
  157MOL    H6140933   7.095   6.218   1.376 -0.4096  0.0508  0.9544
  157MOL    H6240934   7.038   6.282   0.996 -0.6319 -1.7107 -0.3326
  157MOL    H6340935   6.919   6.380   1.089  0.0097 -0.3274  0.8604
  157MOL    H6440936   6.864   6.239   1.022 -1.2277 -0.1960  3.3908
  157MOL    H6540937   6.842   6.070   1.197 -0.3612  0.3742  1.7493
  157MOL    H6640938   6.972   6.036   1.310  1.0210 -0.8047 -1.1580
  157MOL    C6740939   7.014   5.976   1.109 -0.1852  0.3067 -0.2319
  157MOL    C6840940   7.020   5.831   1.159  0.2466  0.1654 -0.5213
  157MOL    C6940941   6.981   5.714   1.108  0.5982 -0.2299 -0.4140
  157MOL    C7040942   6.925   5.709   0.963  0.1002  0.5732 -0.2090
  157MOL    C7140943   6.987   5.576   1.179 -1.0905  0.5069  0.6819
  157MOL    H7240944   7.121   5.992   1.094 -0.0773  0.9064  1.0713
  157MOL    H7340945   6.968   5.975   1.011 -1.4877 -1.2497  0.3583
  157MOL    H7440946   7.061   5.831   1.259  2.4524  1.2048 -1.3881
  157MOL    H7540947   6.850   5.787   0.949 -2.5837 -1.4828  2.1929
  157MOL    H7640948   6.885   5.611   0.939  0.8835 -0.6130  3.0280
  157MOL    H7740949   7.007   5.723   0.892  0.2580  1.1334  0.0780
  157MOL    H7840950   6.887   5.533   1.179 -1.0895  0.5051  0.1077
  157MOL    H7940951   7.017   5.578   1.284  3.6078 -0.1044 -0.5061
  157MOL    C8040952   7.067   5.465   1.108  0.1331  0.4757  0.0395
  157MOL    C8140953   7.122   5.358   1.210 -0.3805  0.4591 -0.2969
  157MOL    C8240954   7.255   5.328   1.226 -0.3368 -0.4924 -0.2292
  157MOL    C8340955   7.381   5.392   1.157 -0.5807  0.4826  0.1637
  157MOL    C8440956   7.296   5.211   1.317  0.0734 -0.5927  0.4599
  157MOL    H8540957   7.158   5.508   1.066  1.5094 -0.5992  1.8282
  157MOL    H8640958   7.008   5.420   1.028 -0.7050  1.8316 -0.1333
  157MOL    H8740959   7.043   5.299   1.254  1.3468 -2.0271 -0.4171
  157MOL    H8840960   7.357   5.458   1.073 -1.4590 -1.3739 -1.0739
  157MOL    H8940961   7.443   5.311   1.117 -1.4301  0.4519 -1.1327
  157MOL    H9040962   7.443   5.444   1.229 -1.2266  1.0682  0.2975
  157MOL    H9140963   7.389   5.245   1.363 -0.0491 -1.1253  1.1019
  157MOL    H9240964   7.325   5.122   1.263 -0.2507 -0.1364 -0.4847
  157MOL    C9340965   7.209   5.173   1.436 -0.3966 -0.3845  0.1482
  157MOL    C9440966   7.217   5.281   1.545 -0.9117 -0.3715 -0.5763
  157MOL    C9540967   7.264   5.265   1.670  0.1324  0.3460 -0.9012
  157MOL    C9640968   7.316   5.134   1.729 -0.1189 -0.0055 -0.9564
  157MOL    C9740969   7.261   5.386   1.762 -1.1809 -0.0914 -0.1935
  157MOL    H9840970   7.244   5.075   1.468  1.6043  0.2707  0.0750
  157MOL    H9940971   7.104   5.162   1.410 -0.9045  0.6739  1.6714
  157MOL   H10040972   7.181   5.380   1.520 -1.3571 -0.3826  0.0175
  157MOL   H10140973   7.353   5.067   1.651 -0.1282  0.6044 -1.4877
  157MOL   H10240974   7.223   5.091   1.766  0.4827  0.0520  0.6248
  157MOL   H10340975   7.392   5.135   1.806  0.8986  2.7476 -1.9375
  157MOL   H10440976   7.242   5.477   1.705 -3.5656 -0.2790  0.2595
  157MOL   H10540977   7.366   5.386   1.790 -1.3260  0.4299  0.3487
  157MOL   C10640978   7.169   5.382   1.887 -0.2947 -0.3724  0.0839
  157MOL   C10740979   7.185   5.501   1.981 -0.0148  0.1166  0.6122
  157MOL   C10840980   7.256   5.514   2.095  0.1783  0.0308  0.0474
  157MOL   C10940981   7.337   5.405   2.156 -0.4684 -0.3550  0.4129
  157MOL   C11040982   7.263   5.643   2.175 -0.5904 -0.0909  0.3179
  157MOL   H11140983   7.194   5.296   1.949 -0.5933 -0.4746  0.0634
  157MOL   H11240984   7.067   5.387   1.849 -0.0434  1.1466 -0.4149
  157MOL   H11340985   7.133   5.590   1.949  1.2098  1.1796  1.4970
  157MOL   H11440986   7.385   5.340   2.082  0.7828 -1.7131  2.3607
  157MOL   H11540987   7.277   5.345   2.224 -0.9519 -0.7283 -0.3464
  157MOL   H11640988   7.419   5.443   2.217 -0.9852  1.0954  0.2283
  157MOL   H11740989   7.365   5.662   2.207 -0.3304 -0.2282 -0.4422
  157MOL   H11840990   7.220   5.621   2.273 -0.9895  0.8784  0.3597
  157MOL   C11940991   7.201   5.776   2.130 -0.4076 -0.1508 -0.3835
  157MOL   C12040992   7.205   5.882   2.236 -0.2014  0.1164 -0.1405
  157MOL   C12140993   7.096   5.940   2.295  0.5426  0.6907 -0.1808
  157MOL   C12240994   6.951   5.907   2.263  0.2929  0.8511  0.3458
  157MOL   C12340995   7.103   6.043   2.404  0.3439  0.2852 -0.1407
  157MOL   H12440996   7.099   5.755   2.099 -1.5093  1.2130  2.1914
  157MOL   H12540997   7.245   5.820   2.040  0.1888  0.3051  0.1290
  157MOL   H12640998   7.305   5.913   2.260 -0.7408  2.0100 -0.2235
  157MOL   H12740999   6.879   5.966   2.320  1.8138  1.4039  1.7131
  157MOL   H12841000   6.928   5.802   2.284 -1.9304  1.3481  0.5871
  157MOL   H12941001   6.939   5.917   2.156 -0.2633  0.7240  0.3919
  157MOL   H13041002   7.046   6.013   2.492  2.1116 -2.0458  0.2572
  157MOL   H13141003   7.061   6.137   2.369 -2.4177 -1.0107 -0.4225
  157MOL   C13241004   7.241   6.078   2.455  0.4539  0.4292 -0.7064
  157MOL   C13341005   7.242   6.202   2.541 -0.0259 -0.4718  0.6367
  157MOL   C13441006   7.307   6.316   2.512 -0.4476  0.3321 -0.8571
  157MOL   C13541007   7.412   6.334   2.402 -0.1396  0.1525 -0.3533
  157MOL   C13641008   7.291   6.443   2.586 -1.0379  0.4992 -0.2290
  157MOL   H13741009   7.299   6.100   2.365  1.7596  0.2469  0.0789
  157MOL   H13841010   7.287   6.004   2.520 -0.6074  1.6735  1.5012
  157MOL   H13941011   7.182   6.200   2.630 -1.8992  2.3850 -0.5078
  157MOL   H14041012   7.501   6.378   2.448 -0.6243 -0.3944  1.1512
  157MOL   H14141013   7.376   6.406   2.329 -1.6684  1.3279  1.5416
  157MOL   H14241014   7.453   6.251   2.344 -0.5095  0.5986 -1.2496
  157MOL   H14341015   7.195   6.437   2.637  0.1029 -0.5717  1.8814
  157MOL   H14441016   7.297   6.515   2.505  1.2101 -2.1167 -2.5095
  157MOL   C14541017   7.397   6.468   2.698 -0.1718  1.0658 -0.2476
  157MOL   C14641018   7.389   6.608   2.749 -0.6456 -0.0866 -0.2363
  157MOL   C14741019   7.472   6.703   2.704 -0.0521 -1.0934  0.2000
  157MOL   C14841020   7.590   6.674   2.611  0.2730 -0.3624 -0.3414
  157MOL   C14941021   7.466   6.847   2.753  0.9214 -0.3795  1.1067
  157MOL   H15041022   7.497   6.443   2.662 -0.2946  0.0889  0.0795
  157MOL   H15141023   7.374   6.407   2.785 -0.0208 -1.1876 -1.7305
  157MOL   H15241024   7.308   6.630   2.818 -0.5451 -1.2700  0.2659
  157MOL   H15341025   7.550   6.620   2.526  1.4462 -1.0837 -0.4421
  157MOL   H15441026   7.665   6.613   2.662  0.5012  1.1400  1.1775
  157MOL   H15541027   7.642   6.766   2.582 -1.3966  0.3103 -1.2996
  157MOL   H15641028   7.564   6.882   2.786  0.0782  0.5227  2.7078
  157MOL   H15741029   7.405   6.868   2.841 -2.0631 -0.7695 -0.7781
  157MOL   C15841030   7.412   6.929   2.632  0.4643  0.1610  0.5892
  157MOL   C15941031   7.425   7.073   2.669 -0.1385 -0.6524 -0.3492
  157MOL   C16041032   7.528   7.155   2.639 -0.0287  0.0200 -0.2364
  157MOL   C16141033   7.636   7.110   2.535  0.0620  0.4263 -1.1113
  157MOL   C16241034   7.532   7.294   2.692 -0.3399 -0.1503  0.2378
  157MOL   H16341035   7.309   6.900   2.611  1.6165 -0.5794 -4.7269
  157MOL   H16441036   7.467   6.910   2.540  0.5469 -1.3938  0.9509
  157MOL   H16541037   7.349   7.110   2.737  1.7103  2.1497  0.2788
  157MOL   H16641038   7.588   7.115   2.437  0.6303 -1.9811 -1.5350
  157MOL   H16741039   7.700   7.024   2.553 -0.8426  0.0802  0.5544
  157MOL   H16841040   7.715   7.183   2.519 -1.0840  2.2860  1.3152
  157MOL   H16941041   7.629   7.304   2.741 -0.8925  3.0927  0.7877
  157MOL   H17041042   7.455   7.320   2.766 -0.7657 -2.0148  0.4772
  157MOL   C17141043   7.514   7.399   2.583  0.3952  0.2130  0.7283
  157MOL   C17241044   7.479   7.538   2.639  0.0592  0.9060  0.2241
  157MOL   C17341045   7.557   7.645   2.627  0.5555 -0.3986 -0.2557
  157MOL   C17441046   7.670   7.666   2.528 -0.1998  0.8308 -0.1244
  157MOL   C17541047   7.517   7.765   2.713 -0.7042  0.4054 -0.2072
  157MOL   H17641048   7.430   7.364   2.523 -1.9187  2.3174  2.6547
  157MOL   H17741049   7.610   7.396   2.531  0.1608 -0.8368  0.3371
  157MOL   H17841050   7.400   7.535   2.712 -0.6187  1.2195 -0.4798
  157MOL   H17941051   7.666   7.759   2.472 -0.9933  1.0496  0.2888
  157MOL   H18041052   7.680   7.580   2.462 -0.9427 -0.0581  0.9009
  157MOL   H18141053   7.762   7.669   2.587 -0.8862 -1.2579  1.0988
  157MOL   H18241054   7.420   7.765   2.762 -0.9458 -1.4086 -0.6477
  157MOL   H18341055   7.513   7.851   2.647 -1.5560  1.0102  0.6335
  157MOL   C18441056   7.621   7.776   2.834 -0.5963  1.0946  0.0516
  157MOL   C18541057   7.552   7.806   2.968  0.7565  0.2584  0.6341
  157MOL   C18641058   7.563   0.034   3.045  0.1049  0.0127  0.0477
  157MOL   C18741059   7.656   0.149   3.016  0.1144  0.8123 -0.1748
  157MOL   C18841060   7.490   0.044   3.177 -0.4091 -0.6253 -0.3419
  157MOL   H18941061   7.691   7.854   2.805  1.3148  0.0283  1.6434
  157MOL   H19041062   7.681   7.685   2.839  0.4023  1.8487  2.3107
  157MOL   H19141063   7.494   7.721   3.001 -0.9683  0.5465 -1.5118
  157MOL   H19241064   7.589   0.230   2.989 -1.8301 -1.2850 -1.8329
  157MOL   H19341065   7.734   0.124   2.945 -1.4943 -1.4637 -1.2176
  157MOL   H19441066   7.704   0.169   3.112 -0.3058 -0.4622  0.3128
  157MOL   H19541067   7.392   7.879   3.170  0.2584 -2.4162  2.0489
  157MOL   H19641068   7.476   0.152   3.190  1.8291 -0.5102  1.2725
  157MOL   C19741069   7.569   7.871   3.301 -0.0098  0.5484  0.3022
  157MOL   C19841070   7.500   0.019   3.433 -0.1317 -0.1908  0.6483
  157MOL   C19941071   7.562   0.062   3.544 -0.0325 -0.3935  0.0124
  157MOL   C20041072   7.713   0.086   3.557  0.3736 -0.2956  0.0018
  157MOL   C20141073   7.484   0.103   3.667 -0.1567  0.4814  0.5403
  157MOL   H20241074   7.664   0.041   3.297  0.9313 -1.0636  0.7407
  157MOL   H20341075   7.583   7.767   3.272  0.0836  1.0444 -1.4616
  157MOL   H20441076   7.393   0.017   3.425 -0.0393 -0.5766 -0.6008
  157MOL   H20541077   7.748   0.057   3.656 -0.0856  0.3178  0.3482
  157MOL   H20641078   7.735   0.191   3.537 -0.6825 -0.2291 -0.8263
  157MOL   H20741079   7.772   0.030   3.485 -0.1661 -1.0334  0.1252
  157MOL   H20841080   7.517   0.056   3.759 -1.2864  0.6336  1.0348
  157MOL   H20941081   7.382   0.068   3.652  0.5240 -1.8318  1.1001
  157MOL   C21041082   7.488   0.256   3.689 -0.5819  0.2570  0.5276
  157MOL   C21141083   7.408   0.321   3.582 -0.2130 -0.9061  0.1839
  157MOL   C21241084   7.282   0.353   3.581  0.4956 -0.5920  0.4274
  157MOL   C21341085   7.188   0.356   3.699  0.2367  0.2047  0.4663
  157MOL   C21441086   7.214   0.417   3.460  0.2103  0.2972 -0.2781
  157MOL   H21541087   7.592   0.286   3.691 -0.0614 -1.4895  0.4683
  157MOL   H21641088   7.442   0.280   3.785 -0.0742 -0.9442  1.0833
  157MOL   H21741089   7.462   0.343   3.492 -3.3323 -1.5931 -1.9484
  157MOL   H21841090   7.106   0.427   3.706 -0.6974 -0.6787 -1.3095
  157MOL   H21941091   7.245   0.358   3.792  0.1478 -0.7744  0.5460
  157MOL   H22041092   7.142   0.257   3.705 -1.2875  0.9106  0.6325
  157MOL   H22141093   7.225   0.523   3.486 -0.0325  0.5994 -1.3656
  157MOL   H22241094   7.109   0.386   3.456 -0.4000  1.8787  2.1152
  157MOL   C22341095   7.276   0.392   3.327 -0.4703  0.1083  0.4949
  157MOL   C22441096   7.197   0.452   3.210  0.2001 -0.1144  0.5781
  157MOL   C22541097   7.246   0.520   3.107  0.3542  0.2286 -0.0944
  157MOL   C22641098   7.388   0.547   3.098  0.0702  0.3072  0.0474
  157MOL   C22741099   7.155   0.582   3.001  0.2148 -0.3347  0.0789
  157MOL   H22841100   7.303   0.289   3.303 -1.4074  0.0087 -0.1819
  157MOL   H22941101   7.370   0.446   3.328 -0.5796  0.3121  2.2684
  157MOL   H23041102   7.089   0.446   3.212  0.1339 -0.6085 -1.9434
  157MOL   H23141103   7.451   0.473   3.149  1.1412 -1.5043 -3.7153
  157MOL   H23241104   7.414   0.646   3.135 -2.1699  1.0666 -0.3483
  157MOL   H23341105   7.416   0.569   2.995  1.9875 -1.7307  0.0688
  157MOL   H23441106   7.189   0.680   2.968  0.6715 -0.3183  0.5953
  157MOL   H23541107   7.059   0.596   3.051  0.9785  0.1906  1.4347
  157MOL   C23641108   7.133   0.494   2.877 -0.1193  0.6394 -0.4196
  157MOL   C23741109   7.069   0.362   2.926  0.2213 -0.0063 -0.1541
  157MOL   C23841110   7.139   0.244   2.934  0.2340 -0.2702 -0.6535
  157MOL   C23941111   7.286   0.224   2.894  0.0649 -0.6667 -0.2222
  157MOL   C24041112   7.073   0.130   2.997  0.9114 -0.4096  0.2856
  157MOL   H24141113   7.223   0.489   2.817 -0.2891 -1.1185 -0.5372
  157MOL   H24241114   7.048   0.540   2.826 -1.0635 -0.3200  0.2654
  157MOL   H24341115   6.971   0.369   2.972  0.5790 -0.0281  0.6104
  157MOL   H24441116   7.296   0.172   2.799  0.2627 -1.0571  0.0107
  157MOL   H24541117   7.338   0.169   2.973 -0.7392 -1.8447 -0.5004
  157MOL   H24641118   7.344   0.316   2.903  0.3258 -0.7329 -1.1997
  157MOL   H24741119   7.114   0.045   2.944  1.1194  0.3808 -0.8242
  157MOL   H24841120   6.965   0.130   2.978  0.9428 -0.3528  0.1097
  157MOL   C24941121   7.099   0.119   3.148 -0.2834  0.3573 -0.2843
  157MOL   C25041122   7.023   0.002   3.204  0.3558 -0.4299  1.3871
  157MOL   C25141123   7.021   7.859   3.337 -0.2922  0.0297 -0.2392
  157MOL   C25241124   7.090   0.064   3.444  0.8469 -0.1823  0.2387
  157MOL   C25341125   6.949   7.740   3.392 -0.7078  0.5498 -0.5834
  157MOL   H25441126   7.067   0.214   3.191  1.6586  2.1651 -2.6999
  157MOL   H25541127   7.205   0.106   3.168 -0.4190 -2.2399 -1.1166
  157MOL   H25641128   6.971   7.820   3.134  0.6457  1.4617 -0.6240
  157MOL   H25741129   7.165   0.005   3.497  0.4272 -0.2333  0.7730
  157MOL   H25841130   7.009   0.097   3.509 -0.8085 -0.2446 -1.7300
  157MOL   H25941131   7.140   0.153   3.407  0.1708  0.4478  0.8363
  157MOL   H26041132   6.981   7.717   3.494  1.2318  1.0320 -1.0568
  157MOL   H26141133   6.958   7.652   3.329 -1.1467  1.8567 -2.4990
  157MOL   H26241134   6.842   7.755   3.406 -0.7591 -1.0592  0.8349
  158MOL     C141135   7.274   1.763   7.288 -0.1928 -0.4815  0.7377
  158MOL     C241136   7.297   1.622   7.339 -0.5333  0.5155 -0.6685
  158MOL     C341137   7.215   1.545   7.415  0.0893 -0.3238 -0.4858
  158MOL     C441138   7.083   1.601   7.469 -0.1205  0.5105  0.4614
  158MOL     C541139   7.255   1.412   7.460  0.0933  0.1857  0.9877
  158MOL     H641140   7.250   1.835   7.366 -0.3294  0.0457  0.2069
  158MOL     H741141   7.362   1.787   7.229  0.3687  0.2596  1.8634
  158MOL     H841142   7.391   1.583   7.303 -0.4392  1.3885 -1.3786
  158MOL     H941143   6.998   1.535   7.452  0.1235  0.2844  0.1273
  158MOL    H1041144   7.059   1.694   7.418  0.0984 -0.0903 -0.7495
  158MOL    H1141145   7.094   1.607   7.578  1.4423 -2.2763  0.4898
  158MOL    H1241146   7.231   1.407   7.566  1.4572 -3.0418  1.2247
  158MOL    H1341147   7.364   1.402   7.460  0.3275  2.4702  2.4693
  158MOL    H1441148   7.201   1.763   7.207  1.3544  0.8200 -0.6826
  158MOL    C1541149   7.196   1.299   7.381  0.2524  0.0894  0.0556
  158MOL    C1641150   7.287   1.173   7.397  1.1051  0.0206 -0.3579
  158MOL    C1741151   7.396   1.130   7.325 -0.4221 -0.2150 -0.9794
  158MOL    C1841152   7.452   1.208   7.204 -0.8321  0.9725  0.0563
  158MOL    C1941153   7.481   1.017   7.367  0.0584  0.1251  0.0735
  158MOL    H2041154   7.199   1.333   7.278  0.7603 -0.2499 -0.0435
  158MOL    H2141155   7.092   1.291   7.413 -0.2629  1.3486 -1.2658
  158MOL    H2241156   7.274   1.119   7.490  1.4655 -0.4666 -0.5892
  158MOL    H2341157   7.555   1.245   7.209  0.6441 -2.7393 -1.4904
  158MOL    H2441158   7.385   1.293   7.191 -1.1304  0.9878  1.6023
  158MOL    H2541159   7.451   1.144   7.117 -2.3491  0.4510  0.4407
  158MOL    H2641160   7.500   0.959   7.276  2.2254  1.6545 -0.4675
  158MOL    H2741161   7.433   0.946   7.435  0.1704  0.7195  0.7822
  158MOL    C2841162   7.613   1.073   7.436 -0.3276  0.2119  0.2278
  158MOL    C2941163   7.702   0.956   7.473 -0.8750 -0.0953 -0.3779
  158MOL    C3041164   7.810   0.973   7.553 -0.3753 -0.0529  0.6419
  158MOL    C3141165   7.859   1.111   7.599  0.2181 -0.0271 -0.1985
  158MOL    C3241166   0.009   0.852   7.597 -0.1319 -0.0438  0.1741
  158MOL    H3341167   7.592   1.126   7.529  1.0970  0.5976  0.3444
  158MOL    H3441168   7.659   1.140   7.363 -0.0445  0.6622  0.8156
  158MOL    H3541169   7.675   0.856   7.441  2.5290 -1.3395  0.4089
  158MOL    H3641170   7.780   1.185   7.585 -2.4713 -3.0628 -2.0700
  158MOL    H3741171   0.065   1.133   7.540 -0.0527  0.9808 -0.2327
  158MOL    H3841172   0.010   1.108   7.703 -0.5457 -0.6909  0.0404
  158MOL    H3941173   7.823   0.770   7.618 -2.6900  1.7871 -0.7692
  158MOL    H4041174   0.065   0.873   7.688 -1.5939  1.0229  0.8600
  158MOL    C4141175   0.101   0.794   7.486 -0.5201 -0.5621  0.0833
  158MOL    C4241176   0.142   0.654   7.519 -0.2493  0.0932 -0.0863
  158MOL    C4341177   0.125   0.541   7.446 -0.0420  0.5172  0.1219
  158MOL    C4441178   0.068   0.540   7.306 -0.2630  0.5942  0.3035
  158MOL    C4541179   0.177   0.414   7.500  0.1743  0.2095  0.2695
  158MOL    H4641180   0.185   0.861   7.469 -0.5415 -1.0299 -1.9155
  158MOL    H4741181   0.052   0.797   7.389  0.9124  1.7900 -0.6217
  158MOL    H4841182   0.192   0.634   7.613  1.3792 -1.9899 -1.3468
  158MOL    H4941183   0.144   0.549   7.228 -1.2748 -0.1745 -0.7898
  158MOL    H5041184   0.001   0.622   7.281 -1.1022  0.5147  2.1980
  158MOL    H5141185   0.014   0.446   7.294 -1.4766  0.6748  4.4059
  158MOL    H5241186   0.084   0.359   7.510  0.4736 -0.0307  1.9307
  158MOL    H5341187   0.216   0.432   7.600 -0.6617 -0.2514  0.6822
  158MOL    C5441188   0.267   0.332   7.409  0.0116  0.3364  0.0840
  158MOL    C5541189   0.307   0.204   7.481  0.1551  0.2505  0.1897
  158MOL    C5641190   0.318   0.079   7.429  0.1486  0.0527  0.4967
  158MOL    C5741191   0.299   0.050   7.283 -0.3544 -0.4035 -0.8358
  158MOL    C5841192   0.355   7.831   7.500 -0.1237 -0.4579 -0.1892
  158MOL    H5941193   0.357   0.385   7.379 -0.1382  2.3742  3.1259
  158MOL    H6041194   0.212   0.305   7.318  0.9743  0.2138 -0.4677
  158MOL    H6141195   0.313   0.219   7.587 -0.2131  0.2789  0.2087
  158MOL    H6241196   0.368   7.860   7.241  0.7268 -0.6003  1.2444
  158MOL    H6341197   0.280   0.135   7.217 -0.1900  2.1395  2.2604
  158MOL    H6441198   0.199   0.007   7.281 -2.2833  3.7671  0.3167
  158MOL    H6541199   0.447   7.790   7.460  0.6738  0.7718  0.3864
  158MOL    H6641200   0.282   7.752   7.480 -1.1059  0.8751 -2.1084
  158MOL    C6741201   0.381   7.855   7.651 -0.3065  0.4807 -0.0152
  158MOL    C6841202   0.439   7.726   7.717  0.0110 -0.6768  0.3355
  158MOL    C6941203   0.389   7.639   7.811 -0.5746  0.4008 -0.0524
  158MOL    C7041204   0.250   7.653   7.879 -1.2075 -0.2873  0.2254
  158MOL    C7141205   0.479   7.524   7.860  0.9655  0.2097 -0.6845
  158MOL    H7241206   0.285   7.879   7.697 -0.0272 -0.0734  0.8650
  158MOL    H7341207   0.453   0.050   7.677 -0.0847 -0.1904  1.4272
  158MOL    H7441208   0.540   7.701   7.687 -1.1917 -2.2116 -2.7452
  158MOL    H7541209   0.188   7.717   7.817 -1.1470 -0.5130 -0.0718
  158MOL    H7641210   0.264   7.680   0.101 -1.0486 -1.6126  0.5613
  158MOL    H7741211   0.203   7.555   0.002  0.5779 -1.0940  1.5953
  158MOL    H7841212   0.537   7.547   0.067  0.9525  0.5496 -0.7641
  158MOL    H7941213   0.557   7.503   7.787  0.6593  1.1936 -1.3009
  158MOL    C8041214   0.415   7.381   7.864  0.7852 -0.2388  0.1665
  158MOL    C8141215   0.509   7.277   0.030 -0.4456 -0.3794 -0.5297
  158MOL    C8241216   0.561   7.182   7.832 -0.7457  0.1095  0.1674
  158MOL    C8341217   0.529   7.152   7.683 -0.1125  0.1402 -0.2797
  158MOL    C8441218   0.671   7.100   0.004  0.7958 -0.0992 -0.5096
  158MOL    H8541219   0.387   7.370   7.760  0.7935  2.5389 -0.1606
  158MOL    H8641220   0.330   7.377   0.050  0.8241  0.8461  0.2825
  158MOL    H8741221   0.562   7.296   0.122 -0.2032 -0.7888 -0.5847
  158MOL    H8841222   0.430   7.185   7.654 -0.3992 -1.5164 -1.2606
  158MOL    H8941223   0.534   7.043   7.676  2.8508  0.0981  1.5754
  158MOL    H9041224   0.604   7.198   7.619  0.1565  0.6949  0.4342
  158MOL    H9141225   0.634   7.001   7.860 -1.3853  0.4349  0.3761
  158MOL    H9241226   0.670   7.104   0.113  2.2756  0.1349 -0.5037
  158MOL    C9341227   0.816   7.141   7.848 -0.1932 -0.0675 -0.1645
  158MOL    C9441228   0.929   7.044   0.004  0.0171  0.4001  0.0933
  158MOL    C9541229   1.059   7.048   7.841 -0.0560 -0.2788  0.1583
  158MOL    C9641230   1.131   7.161   7.755 -0.2348 -0.1461 -0.2102
  158MOL    C9741231   1.154   6.935   0.007  0.4664  0.5437 -0.8914
  158MOL    H9841232   0.839   7.229   0.024 -0.6568 -1.1549  1.6682
  158MOL    H9941233   0.831   7.166   7.743 -1.2228  3.8442  0.5504
  158MOL   H10041234   0.912   6.961   0.071  1.3057 -0.5687 -0.7536
  158MOL   H10141235   1.071   7.251   7.763  0.8291  0.5739 -0.2696
  158MOL   H10241236   1.139   7.137   7.649  0.3241  0.0777 -0.2199
  158MOL   H10341237   1.232   7.168   7.794 -1.1139  0.1952  2.0635
  158MOL   H10441238   1.178   6.872   7.804 -0.4524 -0.8878 -0.1072
  158MOL   H10541239   1.094   6.871   0.071  0.6148  2.8368  1.6460
  158MOL   C10641240   1.274   6.983   0.089  0.4682  0.0268  0.0975
  158MOL   C10741241   1.342   6.874   0.164  0.1382  0.3167  0.3344
  158MOL   C10841242   1.436   6.796   0.107 -0.1569 -0.0289 -0.2771
  158MOL   C10941243   1.481   6.792   7.843  0.6760 -0.3599  0.0249
  158MOL   C11041244   1.515   6.691   0.188 -0.0751 -0.2939  0.5427
  158MOL   H11141245   1.237   7.056   0.160 -1.3972 -1.0326  0.2437
  158MOL   H11241246   1.354   7.030   0.033 -0.3966  1.3067 -0.0722
  158MOL   H11341247   1.314   6.879   0.268 -1.4068  2.7786 -0.1543
  158MOL   H11441248   1.447   6.880   7.788 -0.8757  0.3492  2.0411
  158MOL   H11541249   1.453   6.697   7.798  1.5503 -0.2370 -0.8005
  158MOL   H11641250   1.589   6.806   7.843  0.5871  0.5228 -2.8217
  158MOL   H11741251   1.532   6.604   0.124  1.6041  0.2625  0.2221
  158MOL   H11841252   1.466   6.677   0.285  1.8693  1.9801  1.9147
  158MOL   C11941253   1.653   6.746   0.223 -0.2811  0.0679  0.2195
  158MOL   C12041254   1.740   6.647   0.299 -0.4080  0.5186  0.0058
  158MOL   C12141255   1.877   6.632   0.286 -0.1634 -0.4776 -1.1082
  158MOL   C12241256   1.959   6.716   0.192  0.2368  0.5431 -0.5980
  158MOL   C12341257   1.944   6.535   0.377 -0.2755  0.5446  0.2108
  158MOL   H12441258   1.643   6.822   0.300 -2.9410 -0.4474  0.4291
  158MOL   H12541259   1.695   6.803   0.139  0.2856 -1.2710 -0.4089
  158MOL   H12641260   1.679   6.591   0.369 -1.7014 -0.8392 -2.1466
  158MOL   H12741261   2.020   6.789   0.245  0.5527  1.3256 -2.0150
  158MOL   H12841262   1.897   6.772   0.122 -2.2042 -3.0486 -1.4585
  158MOL   H12941263   2.017   6.647   0.130  0.2719 -0.5022  0.5884
  158MOL   H13041264   1.899   6.437   0.363  1.6682 -0.2040 -1.0045
  158MOL   H13141265   1.924   6.577   0.476  0.2457  0.6670  0.2665
  158MOL   C13241266   2.099   6.540   0.367 -0.1237  0.3191 -0.0804
  158MOL   C13341267   2.168   6.454   0.470 -0.4351 -0.0705  0.6653
  158MOL   C13441268   2.299   6.421   0.474  0.7375  0.3292  0.0449
  158MOL   C13541269   2.404   6.460   0.368 -0.1675  0.1712 -0.5428
  158MOL   C13641270   2.352   6.309   0.562  0.7962 -0.4923  0.3614
  158MOL   H13741271   2.145   6.639   0.371  2.0361 -0.6285 -0.7985
  158MOL   H13841272   2.127   6.497   0.271 -0.6482 -0.0781 -0.0554
  158MOL   H13941273   2.103   6.414   0.546 -0.9026 -1.3266 -0.3777
  158MOL   H14041274   2.408   6.376   0.300 -1.4479  0.5311 -1.0918
  158MOL   H14141275   2.497   6.484   0.419  0.0759 -0.1307 -0.8482
  158MOL   H14241276   2.380   6.542   0.299 -3.1657  0.8010  1.1175
  158MOL   H14341277   2.396   6.236   0.495  0.9734  0.3148 -0.4051
  158MOL   H14441278   2.263   6.264   0.606  0.8020  0.8376  1.7840
  158MOL   C14541279   2.452   6.346   0.665  0.3096 -0.8062 -0.0602
  158MOL   C14641280   2.378   6.424   0.775 -0.3317 -0.0486 -0.4805
  158MOL   C14741281   2.405   6.547   0.818  0.8367  0.9639 -0.5230
  158MOL   C14841282   2.521   6.634   0.767  0.3756 -0.1532  0.0580
  158MOL   C14941283   2.322   6.598   0.932 -0.4541  0.1671 -0.0839
  158MOL   H15041284   2.538   6.404   0.631 -0.4501 -1.0508 -2.4825
  158MOL   H15141285   2.492   6.261   0.720 -0.5464 -0.6955  0.7455
  158MOL   H15241286   2.291   6.372   0.813  0.7194 -2.0256 -0.7230
  158MOL   H15341287   2.608   6.620   0.831  1.3757  0.9597 -1.0186
  158MOL   H15441288   2.495   6.739   0.754 -2.4189 -0.8292 -0.1084
  158MOL   H15541289   2.555   6.609   0.666  1.7594 -3.9095  1.3816
  158MOL   H15641290   2.386   6.636   1.013 -0.3511  2.0346 -1.0228
  158MOL   H15741291   2.270   6.516   0.981  0.0804 -0.0868  0.0723
  158MOL   C15841292   2.220   6.709   0.901 -0.4840  0.1177 -0.7086
  158MOL   C15941293   2.107   6.641   0.823 -0.1910  0.6928  0.2940
  158MOL   C16041294   1.976   6.673   0.845 -1.3317  0.3575  0.1211
  158MOL   C16141295   1.928   6.780   0.942  0.1685  0.1595 -0.4331
  158MOL   C16241296   1.866   6.607   0.766  0.1988  0.1577  0.5238
  158MOL   H16341297   2.277   6.777   0.838  1.7862 -1.0980 -0.0531
  158MOL   H16441298   2.197   6.764   0.992  3.4105  1.4182 -0.3975
  158MOL   H16541299   2.119   6.566   0.747 -0.1684 -1.4227  2.3491
  158MOL   H16641300   2.003   6.859   0.932  1.2133 -0.9614 -1.6546
  158MOL   H16741301   1.920   6.745   1.045  1.2866 -0.2796 -0.4890
  158MOL   H16841302   1.831   6.813   0.904 -0.8864 -0.7456  1.4091
  158MOL   H16941303   1.907   6.543   0.688  1.4730 -0.0277  1.3195
  158MOL   H17041304   1.830   6.691   0.707 -2.6639 -0.8438  0.8123
  158MOL   C17141305   1.747   6.550   0.852 -0.1924 -0.3545  0.0648
  158MOL   C17241306   1.634   6.490   0.765 -0.4145  0.2991 -0.3430
  158MOL   C17341307   1.507   6.538   0.743 -0.2715  0.7750  0.0597
  158MOL   C17441308   1.457   6.668   0.803  0.2834  0.1204 -0.1507
  158MOL   C17541309   1.401   6.465   0.656 -0.1189 -0.0574  0.2482
  158MOL   H17641310   1.696   6.632   0.902  1.2188  0.1199  0.7715
  158MOL   H17741311   1.783   6.487   0.935 -2.4612  0.9029  2.0491
  158MOL   H17841312   1.650   6.393   0.720 -2.0277 -1.1380  2.0579
  158MOL   H17941313   1.431   6.637   0.904 -1.2861  0.6459 -0.3817
  158MOL   H18041314   1.370   6.715   0.756  1.1720 -0.3867 -2.3771
  158MOL   H18141315   1.539   6.740   0.802  1.0891 -0.7734  0.8206
  158MOL   H18241316   1.303   6.462   0.703 -0.1101 -1.0382  0.2269
  158MOL   H18341317   1.429   6.360   0.647  1.8474  0.6219 -2.5836
  158MOL   C18441318   1.396   6.546   0.529 -0.3991 -0.1913  0.1597
  158MOL   C18541319   1.317   6.474   0.423  0.6165  0.0067 -0.3732
  158MOL   C18641320   1.211   6.517   0.353 -0.6921 -0.1960  0.6445
  158MOL   C18741321   1.143   6.654   0.361 -0.3547  0.5147 -0.0080
  158MOL   C18841322   1.162   6.430   0.238 -0.6765  0.1020 -0.7427
  158MOL   H18941323   1.499   6.566   0.498 -0.3071 -1.4160 -0.3813
  158MOL   H19041324   1.359   6.647   0.545  1.3533  0.4027  0.6040
  158MOL   H19141325   1.354   6.376   0.397  0.4603 -0.5896  1.5951
  158MOL   H19241326   1.102   6.681   0.264 -0.7180  0.8077  0.2257
  158MOL   H19341327   1.217   6.727   0.391  1.6059 -0.8210 -1.4588
  158MOL   H19441328   1.060   6.650   0.432  0.3779 -0.8509  0.7863
  158MOL   H19541329   1.054   6.437   0.223 -0.6034 -0.0839 -1.3816
  158MOL   H19641330   1.185   6.328   0.270  1.2062  1.2873  1.8557
  158MOL   C19741331   1.236   6.474   0.113 -0.8201  0.6300  0.0666
  158MOL   C19841332   1.187   6.394   7.877  0.7958 -0.5918 -0.8491
  158MOL   C19941333   1.251   6.288   7.824 -1.2325 -0.2880  0.1798
  158MOL   C20041334   1.374   6.233   0.003  0.4735  1.0645  0.7604
  158MOL   C20141335   1.193   6.220   7.707  0.1691  0.1006 -0.1655
  158MOL   H20241336   1.340   6.450   0.130 -0.6390 -0.4455 -2.3945
  158MOL   H20341337   1.243   6.581   0.093  1.8628  0.5684  0.5105
  158MOL   H20441338   1.097   6.429   7.828  1.0216  0.4863 -0.5085
  158MOL   H20541339   1.418   6.142   7.843  0.6599 -0.5784  4.2926
  158MOL   H20641340   1.357   6.210   0.108 -0.2904  0.3413  0.4840
  158MOL   H20741341   1.449   6.312   7.881 -0.1164  1.4765 -3.4852
  158MOL   H20841342   1.084   6.216   7.712  0.3278 -2.0082  3.0137
  158MOL   H20941343   1.211   6.114   7.726  1.1394  0.6501  1.9925
  158MOL   C21041344   1.261   6.256   7.578  0.2726 -0.9351 -0.8044
  158MOL   C21141345   1.226   6.165   7.458  0.0881 -0.6598 -0.1946
  158MOL   C21241346   1.304   6.080   7.389  0.6371  0.3094 -0.2467
  158MOL   C21341347   1.454   6.068   7.412  0.0539  0.1539 -0.2758
  158MOL   C21441348   1.255   5.993   7.281 -0.1262 -0.7730 -0.7671
  158MOL   H21541349   1.367   6.245   7.601  0.3582  0.4858 -0.4501
  158MOL   H21641350   1.241   6.362   7.564  0.6621 -0.8894 -1.0034
  158MOL   H21741351   1.120   6.173   7.438 -0.0227 -0.6032  0.4270
  158MOL   H21841352   1.472   5.970   7.458 -2.0499  0.6207  1.6565
  158MOL   H21941353   1.501   6.133   7.486  0.2335 -0.1398 -0.1283
  158MOL   H22041354   1.520   6.085   7.327  1.6106  0.8913  1.0595
  158MOL   H22141355   1.147   6.001   7.274 -0.0694 -0.4663 -1.3654
  158MOL   H22241356   1.280   5.891   7.307  1.4742 -0.9929 -3.0268
  158MOL   C22341357   1.304   6.041   7.134 -0.0746 -0.5116  0.3016
  158MOL   C22441358   1.272   5.942   7.026 -0.0205 -0.6424  0.3473
  158MOL   C22541359   1.151   5.932   6.968 -0.3329 -0.4342  0.5295
  158MOL   C22641360   1.032   6.013   7.013 -0.0336 -0.3035 -0.2347
  158MOL   C22741361   1.110   5.824   6.870  0.3766 -0.5750 -0.5459
  158MOL   H22841362   1.410   6.036   7.110 -0.2209 -0.4610 -0.3927
  158MOL   H22941363   1.260   6.139   7.116  0.7966 -0.1951 -0.1610
  158MOL   H23041364   1.346   5.872   6.991 -0.3660 -0.3615 -0.9651
  158MOL   H23141365   1.047   6.105   7.071  2.0249  0.8035 -2.4525
  158MOL   H23241366   0.993   5.937   7.081 -0.8577  0.1918 -0.1510
  158MOL   H23341367   0.961   6.026   6.932 -0.5012 -0.4930  0.1451
  158MOL   H23441368   1.017   5.779   6.905 -0.6062  2.3847  0.7558
  158MOL   H23541369   1.191   5.751   6.877  1.2855  0.6545  2.3880
  158MOL   C23641370   1.072   5.867   6.721  0.0764  0.0323 -0.8031
  158MOL   C23741371   1.092   5.753   6.631 -0.1859  0.6342 -0.2214
  158MOL   C23841372   1.173   5.748   6.527 -0.5553  0.3158  0.4878
  158MOL   C23941373   1.276   5.855   6.498 -0.6551 -0.2675 -0.2926
  158MOL   C24041374   1.189   5.618   6.444  1.0523  0.3572  0.1976
  158MOL   H24141375   1.128   5.958   6.698  2.3628 -1.6922 -2.3116
  158MOL   H24241376   0.967   5.895   6.720  0.0880  0.1349  0.0187
  158MOL   H24341377   1.039   5.662   6.655  3.5343 -1.6699 -0.3618
  158MOL   H24441378   1.355   5.807   6.440 -1.0566 -0.3709 -0.7627
  158MOL   H24541379   1.329   5.881   6.589  0.2366 -5.0065  0.6897
  158MOL   H24641380   1.240   5.934   6.432  0.1528  1.4123  1.2599
  158MOL   H24741381   1.213   5.642   6.341  3.4797 -1.9156  0.1938
  158MOL   H24841382   1.099   5.557   6.458  0.5383  0.9729 -0.3861
  158MOL   C24941383   1.299   5.527   6.498 -0.5616  0.4356 -0.6354
  158MOL   C25041384   1.306   5.384   6.456 -0.3853 -0.9894  0.7151
  158MOL   C25141385   1.408   5.298   6.456 -0.1526  1.2236  0.2023
  158MOL   C25241386   1.546   5.334   6.493 -0.0200  0.4487  0.7738
  158MOL   C25341387   1.399   5.159   6.401  0.1512 -0.9945 -0.1985
  158MOL   H25441388   1.286   5.534   6.606 -0.4229  0.1254 -0.5986
  158MOL   H25541389   1.397   5.570   6.476 -0.4647  0.9635  0.7489
  158MOL   H25641390   1.208   5.351   6.424 -0.0412 -1.4806  0.1512
  158MOL   H25741391   1.599   5.363   6.402 -0.4658  1.8810  0.9593
  158MOL   H25841392   1.594   5.244   6.533 -2.5032 -1.6187 -0.7778
  158MOL   H25941393   1.552   5.413   6.568 -2.2662  0.9521  0.4339
  158MOL   H26041394   1.463   5.137   6.316  0.0058 -2.0588 -0.0381
  158MOL   H26141395   1.300   5.128   6.367 -0.5963  3.0236 -2.0063
  158MOL   H26241396   1.422   5.094   6.485 -0.4091 -1.6668 -0.5494
  159MOL     C141397   0.624   7.849   2.245  0.7532 -0.3186  0.5742
  159MOL     C241398   0.499   0.029   2.191 -0.2754 -0.1064 -0.0516
  159MOL     C341399   0.478   0.074   2.070 -0.4870 -0.9702  0.6086
  159MOL     C441400   0.577   0.054   1.959 -0.0240 -0.1293  0.3594
  159MOL     C541401   0.343   0.129   2.034  0.1232 -0.1885 -0.1187
  159MOL     H641402   0.713   7.837   2.183  0.4884  1.2377 -0.1239
  159MOL     H741403   0.666   0.021   2.330  2.1971  0.1651 -0.4386
  159MOL     H841404   0.426   0.035   2.270 -0.6587  1.8190 -0.5291
  159MOL     H941405   0.613   7.834   1.970  1.1957  0.1809 -0.6925
  159MOL    H1041406   0.655   0.129   1.952  1.2998 -1.5670 -0.8391
  159MOL    H1141407   0.524   0.066   1.864 -0.0678 -0.9090  0.2786
  159MOL    H1241408   0.348   0.228   1.988  0.6190  0.0250  0.3865
  159MOL    H1341409   0.282   0.132   2.125 -0.2956  0.0523 -0.4036
  159MOL    H1441410   0.591   7.752   2.282  0.0276 -0.1148  0.4711
  159MOL    C1541411   0.259   0.045   1.944 -0.0798  0.3304 -0.3660
  159MOL    C1641412   0.118   0.093   1.939  0.1237 -0.7578 -0.2575
  159MOL    C1741413   0.016   0.021   1.993  0.2925 -0.8295  0.2366
  159MOL    C1841414   0.051   7.804   2.102  0.7023  0.5814  0.1889
  159MOL    C1941415   7.755   0.064   1.968 -0.3784  0.5630 -0.4199
  159MOL    H2041416   0.269   7.822   1.966  0.3832 -0.4214 -3.7832
  159MOL    H2141417   0.293   0.056   1.841  0.0742  2.6410 -0.1092
  159MOL    H2241418   0.095   0.180   1.881  2.1549  0.1636  0.2674
  159MOL    H2341419   0.079   7.704   2.067  1.7585  1.3772 -1.2889
  159MOL    H2441420   7.842   7.780   2.156  0.0516  1.7703 -0.3809
  159MOL    H2541421   0.124   7.834   2.177 -0.0578 -1.2917  1.7317
  159MOL    H2641422   7.752   0.156   1.909  2.7145  2.2432  1.8936
  159MOL    H2741423   7.714   0.083   2.068 -1.2753  2.0456 -1.0482
  159MOL    C2841424   7.674   7.831   1.908  0.2411 -0.9625  0.2920
  159MOL    C2941425   7.529   7.859   1.916  0.4050 -0.4245  0.0324
  159MOL    C3041426   7.439   7.797   1.997 -0.4921 -0.1704 -0.3052
  159MOL    C3141427   7.475   7.685   2.096 -0.4928  0.3705  0.4669
  159MOL    C3241428   7.300   7.853   2.007 -0.2277  0.2219 -0.1633
  159MOL    H3341429   7.695   7.732   1.950  2.6253 -0.0282  1.3788
  159MOL    H3441430   7.702   7.826   1.802  2.7838 -0.4050  0.8954
  159MOL    H3541431   7.497   0.055   1.849  2.3950  1.2791  1.0135
  159MOL    H3641432   7.579   7.694   2.128 -1.2190  1.1901  2.7256
  159MOL    H3741433   7.461   7.589   2.047  1.1089  0.3392  0.0562
  159MOL    H3841434   7.413   7.696   2.186  1.3900  1.4652  1.6528
  159MOL    H3941435   7.230   7.769   2.013  0.2495 -0.3608 -2.2773
  159MOL    H4041436   7.278   0.026   1.916 -1.3172  0.9743  0.5439
  159MOL    C4141437   7.277   0.066   2.121 -0.3593  0.3623  0.2918
  159MOL    C4241438   7.370   0.183   2.123  0.2417 -0.2673  0.1970
  159MOL    C4341439   7.472   0.211   2.209 -0.8917 -0.0406  0.3070
  159MOL    C4441440   7.520   0.096   2.312 -0.1600 -0.7114  0.4153
  159MOL    C4541441   7.573   0.330   2.196  0.7424  0.1377 -0.2407
  159MOL    H4641442   7.266   0.014   2.216 -1.6744  0.8326  0.4100
  159MOL    H4741443   7.180   0.112   2.101  1.2225  2.9936 -1.7527
  159MOL    H4841444   7.352   0.259   2.049 -0.2901  0.8895  1.4951
  159MOL    H4941445   7.448   0.017   2.335  0.9549 -1.5556  1.1159
  159MOL    H5041446   7.543   0.133   2.412  2.6586  0.1545 -0.5088
  159MOL    H5141447   7.607   0.042   2.272  0.0544  0.1396 -0.2668
  159MOL    H5241448   7.679   0.302   2.198  0.2058 -1.9183  0.9327
  159MOL    H5341449   7.565   0.393   2.285  1.4273 -0.9865  0.6338
  159MOL    C5441450   7.552   0.425   2.073  0.0501 -0.2681  0.2907
  159MOL    C5541451   7.651   0.536   2.065 -0.9240  0.2316  0.1122
  159MOL    C5641452   7.634   0.664   2.029 -0.5975 -0.0159  1.0262
  159MOL    C5741453   7.507   0.726   1.984  0.2425  0.2196  0.2877
  159MOL    C5841454   7.756   0.762   2.015  0.3473 -0.3474 -0.5446
  159MOL    H5941455   7.454   0.473   2.082  0.4456  0.3585  1.4121
  159MOL    H6041456   7.557   0.372   1.978 -1.2747  0.9540 -0.4831
  159MOL    H6141457   7.750   0.494   2.081 -0.3178  1.7283  0.3585
  159MOL    H6241458   7.504   0.831   2.011  1.2799  0.0343  1.1475
  159MOL    H6341459   7.411   0.683   2.016  0.9462 -1.6222  0.0138
  159MOL    H6441460   7.496   0.734   1.876  0.6092 -0.9230  0.1606
  159MOL    H6541461   7.843   0.717   2.064  0.1006  0.8131  0.9834
  159MOL    H6641462   7.739   0.858   2.064  0.0465 -1.3041  1.2733
  159MOL    C6741463   7.799   0.772   1.874  0.1993  0.3933  0.6637
  159MOL    C6841464   0.016   0.887   1.851 -0.0596 -0.5401 -0.6945
  159MOL    C6941465   0.014   0.979   1.753 -0.1610  0.3199  0.2800
  159MOL    C7041466   7.796   0.985   1.639  0.9341  0.5700  0.0762
  159MOL    C7141467   0.139   1.066   1.732 -0.0438  0.1491 -0.4004
  159MOL    H7241468   7.712   0.789   1.810  1.0966  1.5092 -0.3048
  159MOL    H7341469   7.845   0.682   1.835  1.3986  1.5065 -0.5664
  159MOL    H7441470   0.095   0.889   1.926 -0.6110  1.7276 -0.1280
  159MOL    H7541471   7.814   0.927   1.549  1.8032  0.1675  0.5072
  159MOL    H7641472   7.800   1.085   1.596  1.8831  1.3159  1.8596
  159MOL    H7741473   7.695   0.962   1.674  0.8547  0.5470 -0.1666
  159MOL    H7841474   0.194   1.073   1.825  2.8364 -0.5356 -2.0124
  159MOL    H7941475   0.101   1.168   1.724 -0.9809 -0.0417  1.4171
  159MOL    C8041476   0.218   1.043   1.601 -0.2114 -0.2189 -0.5499
  159MOL    C8141477   0.325   1.151   1.563  0.2896  1.2062 -0.8506
  159MOL    C8241478   0.458   1.132   1.558  0.4122  0.6938  0.4266
  159MOL    C8341479   0.533   1.000   1.584  0.6309  0.4208 -0.4721
  159MOL    C8441480   0.543   1.256   1.525 -0.1992 -0.3020  0.4172
  159MOL    H8541481   0.143   1.040   1.522 -0.9856 -4.1709  0.2383
  159MOL    H8641482   0.258   0.942   1.594 -0.3483 -0.3664  0.6825
  159MOL    H8741483   0.285   1.249   1.542  1.6885  2.7984  3.2466
  159MOL    H8841484   0.618   0.989   1.516  0.2542 -0.9247 -0.7418
  159MOL    H8941485   0.463   0.922   1.554  2.0429 -0.3675 -1.8260
  159MOL    H9041486   0.571   0.993   1.686 -1.2464 -1.3572  0.1425
  159MOL    H9141487   0.491   1.338   1.476 -1.2784  0.2339  2.4084
  159MOL    H9241488   0.605   1.212   1.446  0.8999  1.9569  0.0037
  159MOL    C9341489   0.633   1.317   1.633 -0.6626  0.0987 -0.5546
  159MOL    C9441490   0.691   1.455   1.594 -0.7238  0.3916  0.4974
  159MOL    C9541491   0.799   1.484   1.520  0.0180 -0.3814 -0.0423
  159MOL    C9641492   0.901   1.382   1.477  0.2588  0.2638 -0.0864
  159MOL    C9741493   0.832   1.626   1.459 -0.1209 -0.3300 -0.2567
  159MOL    H9841494   0.722   1.259   1.658  0.6761  2.3544  0.0677
  159MOL    H9941495   0.581   1.333   1.727 -0.6731 -0.9278 -0.3799
  159MOL   H10041496   0.625   1.538   1.614 -0.0331  1.1565 -0.3656
  159MOL   H10141497   1.000   1.426   1.468  0.3158  0.5701  1.7953
  159MOL   H10241498   0.885   1.321   1.387  2.2679  0.1017 -0.3441
  159MOL   H10341499   0.905   1.308   1.557  1.7266  0.9196  0.4446
  159MOL   H10441500   0.751   1.698   1.469  0.1901  0.0371 -0.3643
  159MOL   H10541501   0.845   1.621   1.351 -2.3131  2.2754 -0.7196
  159MOL   C10641502   0.962   1.697   1.527 -0.2332  0.1670  0.0904
  159MOL   C10741503   0.921   1.748   1.666  0.3898 -0.1038  0.1996
  159MOL   C10841504   0.989   1.730   1.785 -0.5780  0.2162 -0.6247
  159MOL   C10941505   1.115   1.641   1.804 -0.3747  0.0643  0.4583
  159MOL   C11041506   0.946   1.788   1.922 -0.4095  0.3506 -0.2189
  159MOL   H11141507   0.971   1.784   1.462 -0.1163 -0.9811 -1.4637
  159MOL   H11241508   1.057   1.646   1.514 -0.6417 -0.0077 -2.6779
  159MOL   H11341509   0.830   1.806   1.670  1.0969  1.1182 -1.0097
  159MOL   H11441510   1.119   1.582   1.896  0.4510 -1.0235 -0.2675
  159MOL   H11541511   1.206   1.699   1.789 -0.8749  0.9982  1.0129
  159MOL   H11641512   1.114   1.566   1.725 -1.9610 -0.5595  1.0511
  159MOL   H11741513   0.896   1.884   1.910 -0.8044  0.3779  1.5686
  159MOL   H11841514   1.035   1.815   1.979 -0.1298  0.9512 -0.9180
  159MOL   C11941515   0.878   1.685   2.013  0.2960 -0.3203  0.1779
  159MOL   C12041516   0.827   1.749   2.136 -0.1761 -0.6438 -0.4112
  159MOL   C12141517   0.766   1.701   2.245  0.3583  0.5468  0.1887
  159MOL   C12241518   0.717   1.554   2.246 -0.4364  0.3145 -0.6232
  159MOL   C12341519   0.717   1.792   2.366  0.2562  0.1132 -0.2244
  159MOL   H12441520   0.939   1.596   2.027  0.2891 -0.6563 -1.7253
  159MOL   H12541521   0.794   1.639   1.960 -1.4034  1.5145  1.2292
  159MOL   H12641522   0.859   1.850   2.154 -0.0064 -0.7623 -0.0344
  159MOL   H12741523   0.792   1.481   2.276 -1.0934  0.9226  2.6483
  159MOL   H12841524   0.674   1.522   2.151 -2.2668  2.2308 -0.4683
  159MOL   H12941525   0.631   1.544   2.312 -0.1561  2.0921  0.0200
  159MOL   H13041526   0.610   1.769   2.367  0.5329 -1.1774 -0.1535
  159MOL   H13141527   0.731   1.893   2.329  1.2008 -0.2153 -0.7586
  159MOL   C13241528   0.784   1.765   2.505  0.0502 -0.0322 -0.6325
  159MOL   C13341529   0.718   1.838   2.620  0.0889  0.5516 -1.2207
  159MOL   C13441530   0.777   1.931   2.694  0.6404 -0.2056  0.2356
  159MOL   C13541531   0.928   1.971   2.685  0.1458 -0.2431  0.1777
  159MOL   C13641532   0.704   1.986   2.813  0.2961  0.2730 -0.8514
  159MOL   H13741533   0.888   1.797   2.491 -0.0547 -1.0376 -4.2020
  159MOL   H13841534   0.777   1.661   2.535  1.4806 -0.2253 -0.9319
  159MOL   H13941535   0.615   1.816   2.643 -0.3177  3.9778  0.4749
  159MOL   H14041536   0.955   1.999   2.583 -2.1182 -1.0699 -0.7052
  159MOL   H14141537   0.991   1.893   2.728  2.3982  0.2154 -2.2072
  159MOL   H14241538   0.932   2.052   2.757 -1.0604  0.3279 -0.3757
  159MOL   H14341539   0.599   1.968   2.792  0.3142 -0.0361 -0.6951
  159MOL   H14441540   0.715   2.094   2.803  0.4950  0.3173 -0.2219
  159MOL   C14541541   0.761   1.929   2.944  0.8165 -0.4909 -0.1267
  159MOL   C14641542   0.708   2.007   3.065  0.1089  0.3994 -0.0811
  159MOL   C14741543   0.654   1.962   3.175  0.0131  0.0061 -0.2004
  159MOL   C14841544   0.626   1.816   3.193 -0.1894  0.3789  0.1381
  159MOL   C14941545   0.619   2.066   3.286  0.1839  0.1869  0.0645
  159MOL   H15041546   0.868   1.944   2.958  0.7360 -1.3545  1.6360
  159MOL   H15141547   0.734   1.824   2.953  0.2687 -0.3530 -0.1537
  159MOL   H15241548   0.728   2.112   3.049  0.3017  0.5824  1.2464
  159MOL   H15341549   0.626   1.758   3.100 -1.9850  0.5510  0.0175
  159MOL   H15441550   0.530   1.786   3.236  0.1399 -0.9289 -0.0192
  159MOL   H15541551   0.706   1.761   3.242  0.8769 -0.8348 -2.8564
  159MOL   H15641552   0.513   2.057   3.311  0.1986  0.5574  0.2686
  159MOL   H15741553   0.627   2.171   3.256 -2.5227  0.4536  0.0717
  159MOL   C15841554   0.686   2.040   3.417  0.5027  0.9974  0.1590
  159MOL   C15941555   0.699   2.166   3.498 -0.5898 -0.6961 -0.0764
  159MOL   C16041556   0.759   2.177   3.615 -0.1085 -0.4984 -0.1889
  159MOL   C16141557   0.825   2.063   3.689 -0.7931 -0.8553 -0.3492
  159MOL   C16241558   0.781   2.306   3.695  0.5906 -0.2742 -0.0248
  159MOL   H16341559   0.781   1.997   3.386  0.0965 -0.4250  0.8662
  159MOL   H16441560   0.623   1.971   3.473  0.7303  0.4116 -0.3078
  159MOL   H16541561   0.652   2.255   3.460  2.3440 -0.0237 -2.3541
  159MOL   H16641562   0.930   2.078   3.711 -1.0801  1.0848 -0.1940
  159MOL   H16741563   0.816   1.961   3.650  0.9121 -1.3431  0.4912
  159MOL   H16841564   0.780   2.058   3.788 -0.7180 -1.4668 -0.3433
  159MOL   H16941565   0.889   2.309   3.711  0.3286  2.1832  1.5671
  159MOL   H17041566   0.752   2.284   3.797  1.6924 -0.3213  0.2895
  159MOL   C17141567   0.718   2.426   3.628 -0.0913  0.6100  0.1181
  159MOL   C17241568   0.749   2.550   3.707  0.6132  0.2995 -0.4366
  159MOL   C17341569   0.672   2.614   3.798  1.0135 -0.3487  0.4695
  159MOL   C17441570   0.533   2.562   3.833 -0.2994 -0.4209  0.5218
  159MOL   C17541571   0.717   2.735   3.865  0.8433 -0.5267 -0.1652
  159MOL   H17641572   0.612   2.415   3.604  0.8263  0.0700 -4.0687
  159MOL   H17741573   0.755   2.432   3.526 -0.9559  3.3600 -0.0808
  159MOL   H17841574   0.844   2.601   3.702 -0.6392  2.4176 -4.2858
  159MOL   H17941575   0.521   2.561   3.942 -2.4507 -2.5907  0.3192
  159MOL   H18041576   0.522   2.458   3.802  1.8205 -0.7066  0.6516
  159MOL   H18141577   0.454   2.630   3.802 -0.0244  0.8357  2.4596
  159MOL   H18241578   0.630   2.798   3.884 -1.0415 -3.4435  1.4401
  159MOL   H18341579   0.776   2.783   3.788 -0.9777  0.3176 -1.0704
  159MOL   C18441580   0.787   2.696   4.001  0.1585  0.1300 -0.2359
  159MOL   C18541581   0.892   2.784   4.050  0.6602  0.0338  0.2937
  159MOL   C18641582   0.925   2.797   4.183  0.3278  0.7005 -0.1209
  159MOL   C18741583   0.842   2.737   4.296  0.0319  0.1705 -0.5847
  159MOL   C18841584   1.057   2.864   4.215  0.4685  0.3402 -0.0919
  159MOL   H18941585   0.841   2.606   3.971 -1.0806 -1.2503  1.6068
  159MOL   H19041586   0.720   2.662   4.079  2.1039 -0.5010  1.2004
  159MOL   H19141587   0.960   2.835   3.982  0.9748  0.6972  1.0983
  159MOL   H19241588   0.840   2.629   4.286  2.3736 -0.0907  1.3907
  159MOL   H19341589   0.738   2.767   4.290 -0.3815 -0.7590  1.6486
  159MOL   H19441590   0.887   2.758   4.393  2.0101  0.2714 -1.4842
  159MOL   H19541591   1.125   2.884   4.133  1.6382  0.9444  1.0124
  159MOL   H19641592   1.101   2.789   4.281 -2.5692 -1.6219 -0.1806
  159MOL   C19741593   1.031   2.990   4.290 -0.5222 -0.4638  0.1177
  159MOL   C19841594   1.162   3.055   4.325 -0.2253  0.5539  0.0496
  159MOL   C19941595   1.200   3.179   4.288 -0.3124  0.5423  0.5711
  159MOL   C20041596   1.107   3.281   4.233 -0.2325  0.1552  0.0615
  159MOL   C20141597   1.343   3.225   4.321 -0.7268 -0.4659  0.5691
  159MOL   H20241598   0.974   2.974   4.382  0.4822 -2.2389  0.4596
  159MOL   H20341599   0.973   3.055   4.224  1.4537 -2.1158 -3.3770
  159MOL   H20441600   1.232   2.987   4.370 -0.1586 -0.1119 -1.0260
  159MOL   H20541601   1.159   3.376   4.229 -2.9327  1.8888  3.5156
  159MOL   H20641602   1.014   3.304   4.285  0.0083 -1.2039  1.1201
  159MOL   H20741603   1.083   3.252   4.131 -2.0780 -1.0370  0.8168
  159MOL   H20841604   1.392   3.155   4.388  0.2148 -0.5350 -0.1804
  159MOL   H20941605   1.337   3.307   4.393 -1.8895 -1.3937  1.5436
  159MOL   C21041606   1.432   3.265   4.212  0.1631 -0.1244 -0.4172
  159MOL   C21141607   1.486   3.137   4.146  0.3348  0.3887  0.1538
  159MOL   C21241608   1.453   3.095   4.024  0.4509 -0.0022  0.3245
  159MOL   C21341609   1.354   3.157   3.926  0.5753  0.0367  0.1128
  159MOL   C21441610   1.495   2.963   3.959  0.0564 -0.6701 -0.0010
  159MOL   H21541611   1.520   3.304   4.264 -0.5327  0.6433  0.2029
  159MOL   H21641612   1.366   3.326   4.151  0.4365  2.9510  2.1993
  159MOL   H21741613   1.566   3.089   4.201  0.0125  0.4092  0.6404
  159MOL   H21841614   1.391   3.249   3.880  2.7956 -0.8739  0.0369
  159MOL   H21941615   1.261   3.171   3.980 -0.1167  0.5103 -1.1796
  159MOL   H22041616   1.328   3.090   3.844 -1.2478  1.4368 -0.4890
  159MOL   H22141617   1.413   2.899   3.929  0.5055 -1.6256  0.7792
  159MOL   H22241618   1.557   2.919   4.037  1.1978  1.5475  0.4044
  159MOL   C22341619   1.584   2.988   3.834 -0.0502 -0.1891 -0.0193
  159MOL   C22441620   1.657   2.866   3.787 -0.3124 -0.2376  0.3302
  159MOL   C22541621   1.715   2.852   3.666  0.4246  0.2399  0.2730
  159MOL   C22641622   1.690   2.952   3.557 -0.2972  0.1709 -0.2717
  159MOL   C22741623   1.818   2.744   3.649  0.1692  0.0349  0.3040
  159MOL   H22841624   1.662   3.063   3.841 -0.4385  0.1158  1.2864
  159MOL   H22941625   1.516   3.028   3.759 -0.6018  0.3196  0.7428
  159MOL   H23041626   1.694   2.811   3.872 -0.1801  2.6730  2.2551
  159MOL   H23141627   1.588   2.971   3.524 -0.1491  0.6201 -0.4619
  159MOL   H23241628   1.765   2.926   3.482 -0.0075 -2.4040  0.8443
  159MOL   H23341629   1.720   3.049   3.594 -0.5232 -0.0157  0.4029
  159MOL   H23441630   1.814   2.697   3.747  1.1961 -2.4765 -0.8245
  159MOL   H23541631   1.921   2.778   3.643  0.7836 -1.9703 -0.8776
  159MOL   C23641632   1.782   2.649   3.535  0.0867  0.1153  0.4185
  159MOL   C23741633   1.885   2.538   3.529 -1.3559  0.9006 -0.1452
  159MOL   C23841634   1.860   2.407   3.511 -0.5310 -0.5136 -0.1880
  159MOL   C23941635   1.718   2.354   3.489  0.4692 -0.8513 -0.6388
  159MOL   C24041636   1.974   2.307   3.514 -0.1555 -0.3877 -0.7420
  159MOL   H24141637   1.778   2.697   3.437 -1.9154  0.1875  0.5152
  159MOL   H24241638   1.681   2.613   3.556 -0.5175  0.7000 -1.3584
  159MOL   H24341639   1.988   2.569   3.540 -1.1800 -0.3478  2.0788
  159MOL   H24441640   1.705   2.258   3.540  2.0030 -0.0291  1.3863
  159MOL   H24541641   1.699   2.319   3.388  0.2456 -0.3203 -0.7825
  159MOL   H24641642   1.634   2.417   3.519  2.3415  2.2590 -1.6977
  159MOL   H24741643   1.973   2.247   3.606 -1.7431  2.3176  1.0733
  159MOL   H24841644   2.069   2.359   3.519 -1.0528  1.5615 -3.1121
  159MOL   C24941645   1.982   2.207   3.396 -0.0729 -0.1316  0.5528
  159MOL   C25041646   2.100   2.108   3.413 -0.1853 -0.1145 -0.2950
  159MOL   C25141647   2.176   2.054   3.319  0.6609  0.2366 -0.1767
  159MOL   C25241648   2.171   2.084   3.175  0.2977  0.6478  0.8396
  159MOL   C25341649   2.286   1.959   3.359 -0.2473 -0.2120 -0.1092
  159MOL   H25441650   1.994   2.257   3.300 -1.4463  0.1521  0.5240
  159MOL   H25541651   1.896   2.143   3.379 -0.3773  0.1428  1.0666
  159MOL   H25641652   2.119   2.067   3.510  2.2622 -1.3170 -1.2428
  159MOL   H25741653   2.273   2.101   3.142  0.3140  2.8319  1.9224
  159MOL   H25841654   2.105   2.167   3.148  0.3272  0.0420 -1.2007
  159MOL   H25941655   2.132   1.993   3.131  3.0917 -0.1639 -0.0707
  159MOL   H26041656   2.258   1.905   3.450 -0.2211 -0.1725 -0.0777
  159MOL   H26141657   2.379   2.010   3.383 -1.2501  1.0426  1.1516
  159MOL   H26241658   2.302   1.884   3.281 -3.0972  1.2149 -2.1334
  160MOL     C141659   0.479   0.992   1.997 -0.3237 -0.0611  0.5066
  160MOL     C241660   0.552   0.965   2.124 -0.6792  1.0534  0.5099
  160MOL     C341661   0.578   1.050   2.224  0.7509 -0.0245 -0.3673
  160MOL     C441662   0.550   1.200   2.234  0.0865  0.5917 -0.4630
  160MOL     C541663   0.641   1.002   2.353 -0.3872 -0.1137  0.7881
  160MOL     H641664   0.439   1.093   1.989  0.2859  0.0245 -1.7777
  160MOL     H741665   0.539   0.979   1.907 -0.8110 -1.5509  0.3879
  160MOL     H841666   0.568   0.859   2.139 -1.9340  0.8091  0.2122
  160MOL     H941667   0.515   1.245   2.142 -0.2414  2.2609  0.4588
  160MOL    H1041668   0.647   1.246   2.248  3.3924 -6.3189  1.3985
  160MOL    H1141669   0.484   1.212   2.321  0.5858 -1.1608  0.1928
  160MOL    H1241670   0.569   0.983   2.433 -1.4126 -1.9891 -0.5386
  160MOL    H1341671   0.716   1.072   2.391 -1.1525 -0.5301  3.1575
  160MOL    H1441672   0.403   0.916   1.979 -1.0183  0.7789 -0.1537
  160MOL    C1541673   0.710   0.867   2.351 -0.2037 -0.0796  0.5433
  160MOL    C1641674   0.796   0.841   2.476 -0.2219  0.8798  0.3677
  160MOL    C1741675   0.928   0.817   2.485  0.1439 -0.4049 -0.2017
  160MOL    C1841676   1.024   0.816   2.368 -0.6509  0.4461  0.8642
  160MOL    C1941677   0.983   0.793   2.627 -0.4581  0.0596 -0.2045
  160MOL    H2041678   0.769   0.868   2.259  0.1257  0.8548  0.7580
  160MOL    H2141679   0.640   0.785   2.334  0.6912 -0.6126 -0.6905
  160MOL    H2241680   0.742   0.848   2.569 -1.4195 -0.3408 -0.2165
  160MOL    H2341681   1.006   0.728   2.306  1.4830 -0.8976  2.0917
  160MOL    H2441682   1.128   0.795   2.390  0.0838  2.7511 -0.3097
  160MOL    H2541683   1.012   0.910   2.315 -1.4211  2.0899  3.7974
  160MOL    H2641684   1.031   0.695   2.630 -0.2397  0.2138  1.5671
  160MOL    H2741685   0.901   0.806   2.697 -0.5200  1.9184 -0.6042
  160MOL    C2841686   1.085   0.896   2.672  0.0555 -0.1427  0.0311
  160MOL    C2941687   1.108   0.903   2.822  0.7127  0.0434  0.2441
  160MOL    C3041688   1.216   0.842   2.884  0.4065  1.3421  0.1381
  160MOL    C3141689   1.320   0.747   2.819  0.3265 -0.2183  0.1131
  160MOL    C3241690   1.228   0.849   3.041  0.2209 -0.2734 -0.6047
  160MOL    H3341691   1.053   0.994   2.636  1.2276  0.5701  0.8780
  160MOL    H3441692   1.170   0.878   2.605  1.0407 -0.0768  1.2406
  160MOL    H3541693   1.042   0.957   2.888 -1.6953 -0.8271 -1.3890
  160MOL    H3641694   1.305   0.654   2.874 -0.3897  0.0069  0.2978
  160MOL    H3741695   1.422   0.783   2.833 -0.4107  1.3603  1.6627
  160MOL    H3841696   1.306   0.708   2.719 -1.3539 -2.8696  1.3327
  160MOL    H3941697   1.247   0.747   3.073 -0.9006  0.1556  1.5153
  160MOL    H4041698   1.129   0.868   3.084  0.0548  0.3652 -1.2526
  160MOL    C4141699   1.332   0.949   3.100 -0.3856  0.3273  0.9116
  160MOL    C4241700   1.305   0.983   3.241  0.6782  0.2517 -0.8221
  160MOL    C4341701   1.375   0.963   3.357 -0.2565  0.2471 -0.1490
  160MOL    C4441702   1.515   0.907   3.344 -0.3519 -0.6431 -0.3293
  160MOL    C4541703   1.335   1.013   3.498  0.4648  0.4301  0.7079
  160MOL    H4641704   1.332   1.046   3.051 -0.7301  0.1939  0.6498
  160MOL    H4741705   1.429   0.902   3.087 -0.6023 -0.0774  0.7382
  160MOL    H4841706   1.208   1.030   3.238  1.1277  1.3687  1.5804
  160MOL    H4941707   1.585   0.988   3.328  1.2127 -1.8727  0.1648
  160MOL    H5041708   1.529   0.839   3.260  0.1908 -0.2524 -0.5550
  160MOL    H5141709   1.548   0.859   3.436  2.7605 -0.9908 -1.5809
  160MOL    H5241710   1.328   0.937   3.576 -0.5454  1.7906  1.9634
  160MOL    H5341711   1.235   1.052   3.477  1.1520  1.1543 -1.3952
  160MOL    C5441712   1.415   1.135   3.542 -0.2642  0.3028 -0.6219
  160MOL    C5541713   1.379   1.186   3.682 -0.2864  0.2987  0.4044
  160MOL    C5641714   1.330   1.305   3.726 -0.2786 -0.2809  0.1390
  160MOL    C5741715   1.299   1.424   3.634  0.1597  0.1577  0.3466
  160MOL    C5841716   1.302   1.330   3.874 -0.3775 -0.2623  0.2981
  160MOL    H5941717   1.407   1.209   3.463 -0.5800 -0.3202 -1.1733
  160MOL    H6041718   1.522   1.114   3.540 -0.4413 -1.0246  1.8349
  160MOL    H6141719   1.405   1.114   3.758  1.7477  1.0589  0.4619
  160MOL    H6241720   1.359   1.505   3.676  0.8723 -0.3306  0.2857
  160MOL    H6341721   1.194   1.453   3.635 -0.4179 -1.5211 -3.2695
  160MOL    H6441722   1.336   1.405   3.533 -1.1484  0.9201 -0.2836
  160MOL    H6541723   1.351   1.422   3.905 -0.8417  0.0762  0.0388
  160MOL    H6641724   1.359   1.254   3.928 -1.0720 -1.4141 -0.5565
  160MOL    C6741725   1.150   1.324   3.894 -1.0796  0.6401 -0.8695
  160MOL    C6841726   1.074   1.218   3.823  0.5577  0.0067 -0.5747
  160MOL    C6941727   1.062   1.087   3.856 -0.5556 -0.0706 -0.0936
  160MOL    C7041728   1.131   1.028   3.980 -0.4090  0.0925 -0.0636
  160MOL    C7141729   0.982   0.978   3.785 -0.4213 -0.8575 -0.2060
  160MOL    H7241730   1.103   1.421   3.875  2.0766  2.6398  1.0780
  160MOL    H7341731   1.127   1.317   4.000  0.2469 -2.2367 -0.7196
  160MOL    H7441732   1.019   1.258   3.739  1.0956  0.6725 -0.6187
  160MOL    H7541733   1.186   0.942   3.940 -2.5161 -0.3967 -2.0007
  160MOL    H7641734   1.057   0.994   4.052 -0.4236  0.6669  0.1989
  160MOL    H7741735   1.204   1.095   4.026  0.6892  0.0323 -1.6591
  160MOL    H7841736   0.917   0.927   3.855  0.3156 -1.9179 -0.2787
  160MOL    H7941737   1.053   0.900   3.755  1.6538  0.7387  0.4142
  160MOL    C8041738   0.913   1.033   3.664 -0.2547 -0.2058 -0.6287
  160MOL    C8141739   0.839   0.925   3.581  0.0919 -0.1798  0.4948
  160MOL    C8241740   0.871   0.869   3.463  0.1286 -0.0266 -0.0420
  160MOL    C8341741   0.997   0.896   3.395  0.6302  0.0024 -0.2169
  160MOL    C8441742   0.778   0.769   3.397  0.3639  0.1622 -0.0386
  160MOL    H8541743   0.984   1.080   3.596 -2.6762  1.8127 -1.8355
  160MOL    H8641744   0.843   1.113   3.690  0.8211  1.0054 -1.3799
  160MOL    H8741745   0.741   0.909   3.624 -1.5746 -0.1213 -3.1188
  160MOL    H8841746   1.035   0.803   3.353  0.5689  0.6657 -1.7768
  160MOL    H8941747   1.065   0.939   3.468 -0.5190 -0.8643  1.3860
  160MOL    H9041748   0.993   0.978   3.324  1.1853 -1.2143 -1.6781
  160MOL    H9141749   0.767   0.784   3.290 -0.1906  2.5746  0.3190
  160MOL    H9241750   0.674   0.777   3.429  0.5707  1.3621  0.3759
  160MOL    C9341751   0.814   0.620   3.418 -0.3089  0.0767 -1.2609
  160MOL    C9441752   0.700   0.530   3.370  0.4569  0.6820 -0.7389
  160MOL    C9541753   0.717   0.402   3.343  0.5480 -0.3689 -0.2670
  160MOL    C9641754   0.848   0.326   3.355 -0.5339 -0.8754  0.8276
  160MOL    C9741755   0.594   0.319   3.298  0.0234 -0.3355  0.3011
  160MOL    H9841756   0.827   0.605   3.525  0.4540  0.8013 -1.2461
  160MOL    H9941757   0.911   0.601   3.371 -0.5418 -0.7107 -1.4203
  160MOL   H10041758   0.606   0.584   3.371  0.5337  0.8454 -1.8892
  160MOL   H10141759   0.834   0.269   3.446  2.7050 -2.6156  0.2854
  160MOL   H10241760   0.925   0.402   3.364  0.1447 -1.7582  2.6600
  160MOL   H10341761   0.857   0.261   3.268 -2.0695 -0.5955  0.4384
  160MOL   H10441762   0.602   0.288   3.194 -0.3357 -2.6498  0.9256
  160MOL   H10541763   0.500   0.372   3.313  0.4017  0.4806 -0.2002
  160MOL   C10641764   0.574   0.191   3.390 -1.2702 -0.1831  0.0743
  160MOL   C10741765   0.471   0.095   3.338  0.4261  0.4927 -0.3088
  160MOL   C10841766   0.362   0.045   3.403 -0.3684 -0.0553 -0.5327
  160MOL   C10941767   0.330   0.090   3.546 -0.6429 -0.2869  0.1476
  160MOL   C11041768   0.289   7.805   3.353 -0.9229  0.0899 -0.0798
  160MOL   H11141769   0.551   0.207   3.495  1.5409  0.4212  0.6263
  160MOL   H11241770   0.664   0.130   3.394 -0.4140  0.9142 -1.7532
  160MOL   H11341771   0.501   0.051   3.244 -1.4583 -1.4071 -0.0717
  160MOL   H11441772   0.406   0.047   3.612  0.0400  0.6359 -0.0220
  160MOL   H11541773   0.228   0.068   3.578 -1.3631 -1.3764 -2.7376
  160MOL   H11641774   0.340   0.198   3.550  2.4742 -0.4702 -1.2422
  160MOL   H11741775   0.272   7.740   3.439 -0.2672  0.4081  0.2947
  160MOL   H11841776   0.336   7.742   3.277  0.0178  1.9351 -1.0612
  160MOL   C11941777   0.146   7.845   3.312  0.5838  0.7291 -0.4490
  160MOL   C12041778   0.093   7.748   3.207 -0.0620  0.5380  0.2343
  160MOL   C12141779   0.039   7.622   3.232 -0.2892 -0.7933  0.8829
  160MOL   C12241780   0.041   7.564   3.370 -1.0028  0.2593 -0.0766
  160MOL   C12341781   7.858   7.542   3.121  0.2487 -0.5074  0.0523
  160MOL   H12441782   0.137   0.062   3.267  1.0150  0.5174 -1.0047
  160MOL   H12541783   0.078   7.854   3.397  0.4488  3.4987 -0.7948
  160MOL   H12641784   0.087   7.789   3.107  0.0305  1.2369  0.5153
  160MOL   H12741785   0.072   7.643   3.438 -0.7166  0.5506 -0.5413
  160MOL   H12841786   0.116   7.484   3.372 -0.9934  0.2639 -0.3112
  160MOL   H12941787   7.837   7.523   3.421  1.2304 -2.1895  1.9416
  160MOL   H13041788   7.835   7.610   3.039  0.0509 -1.1020 -0.3922
  160MOL   H13141789   7.766   7.506   3.166 -0.6856  0.0805 -1.3488
  160MOL   C13241790   0.075   7.441   3.059  0.0066 -0.2668 -0.6066
  160MOL   C13341791   0.039   7.389   2.922 -0.1463 -0.5276 -0.1217
  160MOL   C13441792   0.123   7.324   2.840 -0.2311  0.0142 -0.0045
  160MOL   C13541793   0.268   7.271   2.880  0.3190  0.3182  0.2203
  160MOL   C13641794   0.085   7.289   2.697  0.4841 -0.6056 -0.4436
  160MOL   H13741795   0.101   7.362   3.129  0.1789  0.0803 -0.2713
  160MOL   H13841796   0.159   7.504   3.029  0.1870 -1.3559 -2.4404
  160MOL   H13941797   7.822   7.409   2.885  0.0522 -0.4284 -0.6083
  160MOL   H14041798   0.261   7.162   2.885  1.1750  0.3058  1.9070
  160MOL   H14141799   0.281   7.311   2.981  1.7137  2.8524 -0.9281
  160MOL   H14241800   0.346   7.296   2.808  0.0662  0.4320 -0.0147
  160MOL   H14341801   7.874   7.337   2.668  1.6593  1.8294 -0.3329
  160MOL   H14441802   0.060   7.183   2.695  1.5581 -0.8621 -0.7241
  160MOL   C14541803   0.188   7.327   2.587 -0.6434  0.1690 -0.2115
  160MOL   C14641804   0.139   7.315   2.442 -0.6294  0.6566 -0.0066
  160MOL   C14741805   0.111   7.417   2.353 -0.4150  0.7096  0.3427
  160MOL   C14841806   0.125   7.564   2.392  0.0279  0.4146  0.6227
  160MOL   C14941807   0.066   7.382   2.211  0.1388 -0.2157  0.3018
  160MOL   H15041808   0.271   7.256   2.587 -1.5522 -0.8969  0.0190
  160MOL   H15141809   0.235   7.426   2.598 -0.0992  0.1493 -2.1617
  160MOL   H15241810   0.131   7.214   2.404  1.5569  0.6999 -0.6568
  160MOL   H15341811   0.226   7.584   2.357  0.8079 -1.8588  1.4925
  160MOL   H15441812   0.105   7.588   2.496 -2.1084 -0.1934  0.3697
  160MOL   H15541813   0.064   7.626   2.326 -0.1663  1.3891  1.7121
  160MOL   H15641814   0.085   7.275   2.203 -2.9117 -0.7730  0.1634
  160MOL   H15741815   0.116   7.440   2.134 -0.7117 -0.1391 -0.1939
  160MOL   C15841816   7.798   7.408   2.181  0.1110  0.2966 -0.4253
  160MOL   C15941817   7.749   7.350   2.047  0.4304 -0.5918  0.5210
  160MOL   C16041818   7.704   7.225   2.031  0.2545 -0.1738 -0.5497
  160MOL   C16141819   7.702   7.124   2.137 -0.8189  0.0189 -0.3748
  160MOL   C16241820   7.662   7.185   1.889 -0.4034  0.5851  0.3824
  160MOL   H16341821   7.781   7.515   2.186 -0.4497  0.1301  1.5177
  160MOL   H16441822   7.741   7.361   2.261  2.7810 -2.2983  0.0463
  160MOL   H16541823   7.761   7.411   1.959 -1.1299 -0.7256  0.1867
  160MOL   H16641824   7.597   7.121   2.165 -0.8574  1.5866 -0.3077
  160MOL   H16741825   7.765   7.144   2.224 -0.6228  1.3364 -0.8103
  160MOL   H16841826   7.718   7.025   2.095 -3.2531 -0.9655  0.9490
  160MOL   H16941827   7.731   7.107   1.855 -2.1498 -0.9994  0.4228
  160MOL   H17041828   7.674   7.252   1.804  2.0620  2.2033  1.9207
  160MOL   C17141829   7.520   7.136   1.882  0.1408 -0.2740  0.3870
  160MOL   C17241830   7.412   7.230   1.930  0.7135  0.2892 -0.4377
  160MOL   C17341831   7.353   7.331   1.866  0.1247 -0.5390  0.8500
  160MOL   C17441832   7.379   7.380   1.723 -0.8406 -0.3538  1.1429
  160MOL   C17541833   7.259   7.423   1.944  0.2240  0.5177 -0.2472
  160MOL   H17641834   7.509   7.049   1.948 -0.9305 -1.5868 -1.4855
  160MOL   H17741835   7.494   7.089   1.787  1.0970  0.6707 -0.3537
  160MOL   H17841836   7.381   7.226   2.033 -1.3815  0.3919 -1.0440
  160MOL   H17941837   7.392   7.487   1.707  2.9050 -1.2472 -2.5307
  160MOL   H18041838   7.297   7.345   1.661 -0.7896  0.8701  0.3681
  160MOL   H18141839   7.462   7.319   1.688 -1.8419  0.2867 -2.5246
  160MOL   H18241840   7.292   7.520   1.909  1.2171  0.8498  1.5320
  160MOL   H18341841   7.270   7.416   2.053  0.3669  1.2529 -0.2131
  160MOL   C18441842   7.112   7.411   1.898  0.4577 -0.5335 -0.0259
  160MOL   C18541843   7.012   7.521   1.950 -0.1494  0.1629 -0.8916
  160MOL   C18641844   6.944   7.618   1.882 -0.6065  0.2025  0.1203
  160MOL   C18741845   6.937   7.622   1.729 -0.5410  0.5422 -0.1292
  160MOL   C18841846   6.858   7.726   1.946  0.5624 -0.2467  0.2227
  160MOL   H18941847   7.070   7.313   1.922  1.5257 -1.5886 -2.3005
  160MOL   H19041848   7.113   7.398   1.790 -0.1344 -1.2442  0.0534
  160MOL   H19141849   7.007   7.522   2.057  1.1337  1.7599 -0.8181
  160MOL   H19241850   6.999   7.547   1.681 -0.3443  0.8380 -0.3410
  160MOL   H19341851   6.963   7.716   1.680  1.1472  0.4603  0.5596
  160MOL   H19441852   6.841   7.594   1.686  0.5263 -0.9412 -1.5877
  160MOL   H19541853   6.828   7.694   2.046  0.4945 -1.0917 -0.0605
  160MOL   H19641854   6.764   7.724   1.891  1.4351 -0.9180 -1.2883
  160MOL   C19741855   6.915   7.868   1.936 -0.8906  0.1090  0.4456
  160MOL   C19841856   6.818   0.101   1.970 -0.3389  0.9888 -0.3432
  160MOL   C19941857   6.837   0.236   1.960  1.1983  0.4623  0.0076
  160MOL   C20041858   6.959   0.300   1.905 -0.0088 -0.0451  0.7488
  160MOL   C20141859   6.727   0.337   2.003  0.8811 -0.2780  0.1401
  160MOL   H20241860   6.956   7.881   1.836 -2.8739  0.2707 -0.3668
  160MOL   H20341861   7.002   7.872   2.001 -0.8801  0.2088  0.4261
  160MOL   H20441862   6.719   0.074   2.003 -1.0052  2.3591 -1.1821
  160MOL   H20541863   7.010   0.371   1.970  1.2774  0.5725 -0.8824
  160MOL   H20641864   6.934   0.343   1.808  2.0086  0.8794  0.6000
  160MOL   H20741865   7.040   0.230   1.883  0.0615  0.2577 -0.0011
  160MOL   H20841866   6.764   0.405   2.080 -0.7174  2.0114 -1.0293
  160MOL   H20941867   6.647   0.281   2.052  2.4970 -0.6040  2.4608
  160MOL   C21041868   6.680   0.425   1.887  0.5975  0.5529  0.3847
  160MOL   C21141869   6.565   0.509   1.927 -0.2423  0.4697  0.2438
  160MOL   C21241870   6.521   0.624   1.875 -0.4734 -0.1142  0.0647
  160MOL   C21341871   6.593   0.693   1.762 -0.0064  0.1434  0.4107
  160MOL   C21441872   6.399   0.699   1.931 -0.1426  0.4210 -0.3019
  160MOL   H21541873   6.640   0.370   1.802 -1.2232  2.2436  0.0976
  160MOL   H21641874   6.755   0.497   1.854 -0.7259  1.1877 -1.3856
  160MOL   H21741875   6.509   0.482   2.016 -2.0566  1.2459 -0.6438
  160MOL   H21841876   6.689   0.735   1.793 -0.0804  0.8340 -0.3038
  160MOL   H21941877   6.544   0.787   1.737 -0.7540 -0.9258 -2.3473
  160MOL   H22041878   6.611   0.626   1.678 -0.7675  0.6437 -0.1542
  160MOL   H22141879   6.424   0.799   1.965  1.6617 -0.6586  1.7039
  160MOL   H22241880   6.356   0.647   2.016 -1.5210  3.0470  0.6566
  160MOL   C22341881   6.289   0.696   1.825  0.6735 -1.0073  0.1822
  160MOL   C22441882   6.149   0.749   1.866  0.4015 -0.2766 -0.9619
  160MOL   C22541883   6.050   0.781   1.778  0.1928  0.5877 -0.3429
  160MOL   C22641884   6.054   0.775   1.628 -0.1673 -0.2695 -0.0130
  160MOL   C22741885   5.920   0.838   1.825 -0.8479 -0.4174 -0.2681
  160MOL   H22841886   6.267   0.593   1.798 -0.4156 -0.1718 -2.3643
  160MOL   H22941887   6.316   0.745   1.731  3.4015 -1.9509  0.4514
  160MOL   H23041888   6.117   0.768   1.967  2.1598  0.9887 -0.6175
  160MOL   H23141889   6.152   0.776   1.579 -0.2212 -0.1665 -0.1183
  160MOL   H23241890   6.007   0.862   1.582  0.7221 -0.1040 -0.6317
  160MOL   H23341891   5.996   0.688   1.598 -0.7196 -0.0420  0.3969
  160MOL   H23441892   5.902   0.930   1.768  2.0260 -1.4922 -3.0240
  160MOL   H23541893   5.931   0.866   1.929 -0.0793 -0.3323 -0.3707
  160MOL   C23641894   5.800   0.751   1.802 -0.1707  0.5543 -0.4294
  160MOL   C23741895   5.669   0.813   1.852 -0.0819 -0.4291 -0.0129
  160MOL   C23841896   5.588   0.889   1.774 -0.0734 -0.6293 -0.3815
  160MOL   C23941897   5.635   0.941   1.643  0.6653 -0.5067  0.0388
  160MOL   C24041898   5.449   0.953   1.807  0.0442  0.1240  0.1214
  160MOL   H24141899   5.793   0.654   1.850  0.9436  0.4793 -0.3998
  160MOL   H24241900   5.788   0.720   1.698 -4.3695  0.6624 -0.0749
  160MOL   H24341901   5.638   0.786   1.952  0.4608 -1.2288 -0.0592
  160MOL   H24441902   5.737   0.921   1.610  0.1686 -0.2078 -1.7247
  160MOL   H24541903   5.627   1.049   1.636  2.4791 -0.2973  0.8101
  160MOL   H24641904   5.572   0.907   1.561  4.0783  1.1149 -3.3564
  160MOL   H24741905   5.379   0.927   1.728 -0.3491  3.2684 -0.6156
  160MOL   H24841906   5.470   1.060   1.804 -1.0793  0.3930  1.5364
  160MOL   C24941907   5.398   0.920   1.946  0.1121 -0.2213 -0.1792
  160MOL   C25041908   5.279   1.015   1.969  1.0486 -0.1660  0.1726
  160MOL   C25141909   5.162   0.990   2.026 -0.6428  0.0137 -0.8117
  160MOL   C25241910   5.123   0.857   2.083 -0.1967  0.1249 -0.1555
  160MOL   C25341911   5.047   1.090   2.022  0.0342  0.7150  0.2183
  160MOL   H25441912   5.471   0.921   2.027 -0.2556  0.2271  0.1474
  160MOL   H25541913   5.371   0.815   1.934 -0.3077 -0.2832  1.1584
  160MOL   H25641914   5.294   1.112   1.924  0.7396  0.2077  0.8749
  160MOL   H25741915   5.184   0.772   2.052 -0.6003  1.1190 -3.9335
  160MOL   H25841916   5.023   0.823   2.056 -0.2359 -1.7250  2.1892
  160MOL   H25941917   5.133   0.849   2.191 -0.1478 -1.7236 -0.2666
  160MOL   H26041918   4.966   1.044   1.966 -1.5763  4.3247 -0.5579
  160MOL   H26141919   5.059   1.185   1.971 -0.9848  0.5182 -0.4158
  160MOL   H26241920   5.011   1.110   2.123 -1.5068 -2.2509  0.3434
  161MOL     C141921   6.034   0.066   6.049 -0.0997  0.8601  0.7698
  161MOL     C241922   5.940   7.835   6.056 -0.7371 -0.2288  0.4489
  161MOL     C341923   5.832   7.819   5.976  0.0379 -0.6124  0.3700
  161MOL     C441924   5.795   0.039   5.876 -0.5382 -0.7340  0.1325
  161MOL     C541925   5.735   7.708   5.991 -0.2000 -0.0969  0.4483
  161MOL     H641926   6.004   0.151   5.988 -3.2110  1.1819  2.6265
  161MOL     H741927   6.065   0.097   6.149 -1.8780  2.4571  0.8507
  161MOL     H841928   5.964   7.763   6.133  1.1191  0.8505  0.8956
  161MOL     H941929   5.877   0.102   5.841  1.8114 -2.2045  2.8072
  161MOL    H1041930   5.715   0.095   5.925 -0.3880  0.8594 -1.3921
  161MOL    H1141931   5.756   7.869   5.788 -0.0042  0.0971 -0.6183
  161MOL    H1241932   5.772   7.618   6.040 -2.0047 -1.9584 -1.4745
  161MOL    H1341933   5.714   7.670   5.891  0.6324  1.8854 -0.4999
  161MOL    H1441934   6.121   0.026   5.998 -0.9154 -1.0096  0.8036
  161MOL    C1541935   5.608   7.752   6.060  0.3092  0.0954  0.0859
  161MOL    C1641936   5.502   7.645   6.051 -0.4736 -0.1852  0.5353
  161MOL    C1741937   5.463   7.563   6.151  0.3686 -0.4109 -0.4367
  161MOL    C1841938   5.512   7.560   6.293 -0.1789  0.2292  0.7481
  161MOL    C1941939   5.365   7.450   6.122  0.5742 -0.1041  0.6815
  161MOL    H2041940   5.559   7.836   6.009 -0.9180 -0.0536  0.9913
  161MOL    H2141941   5.617   7.778   6.166 -0.4808  1.4020 -0.1498
  161MOL    H2241942   5.477   7.621   5.948 -0.6883  0.2711  0.4770
  161MOL    H2341943   5.565   7.654   6.308  2.0707 -0.8551 -0.2152
  161MOL    H2441944   5.591   7.486   6.306  0.3285  0.8552  1.2276
  161MOL    H2541945   5.439   7.556   6.374 -1.3655 -1.3844 -0.3566
  161MOL    H2641946   5.311   7.461   6.028 -0.0536  1.1948  1.1677
  161MOL    H2741947   5.289   7.482   6.194  0.9180  0.0462  0.9773
  161MOL    C2841948   5.416   7.313   6.146  0.0855  0.7449  0.2461
  161MOL    C2941949   5.516   7.273   6.042 -0.0791 -0.0878  0.5515
  161MOL    C3041950   5.611   7.182   6.065 -1.1764 -0.7437  0.1900
  161MOL    C3141951   5.623   7.094   6.193  0.0031 -0.0053  0.4864
  161MOL    C3241952   5.716   7.156   5.964 -0.3456 -0.5353  0.4500
  161MOL    H3341953   5.331   7.248   6.129  0.3386  0.5118 -0.1503
  161MOL    H3441954   5.445   7.315   6.251  0.4453  3.4961  0.1317
  161MOL    H3541955   5.519   7.323   5.946 -0.1232 -2.4443 -0.7057
  161MOL    H3641956   5.603   6.988   6.175 -0.2256  0.4164 -1.9313
  161MOL    H3741957   5.559   7.122   6.277  0.6546 -0.0589  1.0050
  161MOL    H3841958   5.727   7.105   6.224  0.7706 -3.2231 -0.7169
  161MOL    H3941959   5.678   7.190   5.868 -1.5643 -1.4200  0.6025
  161MOL    H4041960   5.720   7.048   5.948 -2.0279 -0.4917 -0.3701
  161MOL    C4141961   5.850   7.225   6.000 -0.3165 -0.3283  0.1477
  161MOL    C4241962   5.968   7.207   5.899  0.2486 -0.1132 -0.0463
  161MOL    C4341963   6.014   7.303   5.815 -0.2746 -0.6931  0.2319
  161MOL    C4441964   5.962   7.445   5.811  0.0633 -0.2687  0.5394
  161MOL    C4541965   6.145   7.281   5.736  0.1788 -0.1311 -0.1415
  161MOL    H4641966   5.879   7.189   6.099 -0.0244 -1.2850 -0.2821
  161MOL    H4741967   5.833   7.332   6.013  4.0067  0.1959  2.6636
  161MOL    H4841968   6.010   7.108   5.895  1.5158  0.4890 -2.2387
  161MOL    H4941969   5.989   7.504   5.724 -1.4879  1.0163  0.9060
  161MOL    H5041970   5.985   7.511   5.894 -1.5136  1.6616 -0.5061
  161MOL    H5141971   5.853   7.451   5.816  0.0463 -0.2414  0.1449
  161MOL    H5241972   6.128   7.307   5.632  0.5472 -0.1920 -0.2180
  161MOL    H5341973   6.172   7.178   5.759  1.9769  0.3180 -0.1414
  161MOL    C5441974   6.251   7.380   5.780 -0.2699 -0.6345 -0.2818
  161MOL    C5541975   6.385   7.340   5.722  0.1332 -0.3269  1.1553
  161MOL    C5641976   6.457   7.400   5.622  0.0307 -0.0240  0.1579
  161MOL    C5741977   6.403   7.515   5.542  0.5513 -1.1592 -0.0811
  161MOL    C5841978   6.604   7.363   5.602  0.0539  0.2954 -0.1239
  161MOL    H5941979   6.255   7.386   5.889 -3.1743 -0.4616 -0.1325
  161MOL    H6041980   6.237   7.485   5.756  1.8907 -0.4232 -0.7231
  161MOL    H6141981   6.433   7.259   5.775  1.9158 -0.1477 -0.1337
  161MOL    H6241982   6.429   7.614   5.578 -0.2050 -0.1822 -2.1390
  161MOL    H6341983   6.296   7.501   5.531  0.6575 -2.9218  0.9864
  161MOL    H6441984   6.444   7.515   5.440  1.4327  0.4503  0.2520
  161MOL    H6541985   6.615   7.367   5.493  1.3806  1.1424  0.0284
  161MOL    H6641986   6.613   7.259   5.633 -1.4963  0.7728  2.0240
  161MOL    C6741987   6.713   7.452   5.676  1.1597  1.0929 -0.2151
  161MOL    C6841988   6.854   7.417   5.635  0.6108 -0.0101  0.5590
  161MOL    C6941989   6.959   7.396   5.708  0.0461  0.0081 -0.2639
  161MOL    C7041990   6.961   7.401   5.858 -0.1226  0.2447  0.5949
  161MOL    C7141991   7.093   7.368   5.639  0.1056  0.0033 -0.0132
  161MOL    H7241992   6.695   7.449   5.783 -0.4472  1.0652 -0.4633
  161MOL    H7341993   6.695   7.557   5.652 -1.1378  0.8643  0.3741
  161MOL    H7441994   6.865   7.401   5.529 -2.2849 -1.1391  0.3911
  161MOL    H7541995   6.858   7.391   5.892 -0.5028 -0.2413 -0.6592
  161MOL    H7641996   7.007   7.490   5.902  2.7281 -1.6570  1.6173
  161MOL    H7741997   7.028   7.324   5.898  0.3634 -0.2809 -1.1827
  161MOL    H7841998   7.078   7.312   5.546 -1.0489  0.1683  0.0614
  161MOL    H7941999   7.139   7.289   5.698  1.5850 -1.7413 -3.3418
  161MOL    C8042000   7.183   7.491   5.621 -0.3506 -0.2684 -0.4074
  161MOL    C8142001   7.196   7.576   5.743  0.3504  0.3374 -0.0378
  161MOL    C8242002   7.136   7.694   5.764  0.2555 -0.2526  0.5397
  161MOL    C8342003   7.042   7.758   5.658 -0.0504 -0.2746  0.1230
  161MOL    C8442004   7.171   7.783   5.878 -0.6493  0.3016  0.3478
  161MOL    H8542005   7.154   7.556   5.539 -0.7437  1.5445  1.1238
  161MOL    H8642006   7.283   7.457   5.595 -0.1037 -0.1893  0.4137
  161MOL    H8742007   7.267   7.543   5.817  0.0254 -0.9682 -0.3050
  161MOL    H8842008   6.999   7.849   5.700 -0.2007 -0.0924 -0.4257
  161MOL    H8942009   6.974   7.687   5.611  1.2603  0.4603 -3.0367
  161MOL    H9042010   7.100   7.794   5.573 -1.6483 -0.0153 -0.8846
  161MOL    H9142011   7.074   7.814   5.917 -1.1368 -0.6062 -0.1303
  161MOL    H9242012   7.223   7.874   5.847 -2.3194  0.1112 -3.3579
  161MOL    C9342013   7.251   7.708   5.994 -0.4689 -0.0769 -0.6301
  161MOL    C9442014   7.262   7.785   6.122 -0.6652  0.1611 -0.2497
  161MOL    C9542015   7.372   7.842   6.183  0.5660 -0.5950  0.2928
  161MOL    C9642016   7.505   7.864   6.119 -0.2462  0.9601  0.5204
  161MOL    C9742017   7.354   0.040   6.316  0.9961  0.4799 -0.3519
  161MOL    H9842018   7.349   7.685   5.951 -0.1740  0.4828 -0.2493
  161MOL    H9942019   7.201   7.613   6.016  1.2561 -0.3772  2.2310
  161MOL   H10042020   7.169   7.798   6.176 -1.2171  0.1554 -1.1908
  161MOL   H10142021   7.517   7.808   6.027  1.1179  0.7593  0.8179
  161MOL   H10242022   7.576   7.825   6.191 -2.0383 -1.6037  0.9602
  161MOL   H10342023   7.531   0.088   6.116  0.4272  0.8669  2.2212
  161MOL   H10442024   7.251   0.024   6.348  1.9835  1.6996  3.7351
  161MOL   H10542025   7.376   0.146   6.309 -0.4554  0.9823  1.9503
  161MOL   C10642026   7.435   7.860   6.433 -0.2344 -0.0454 -0.8920
  161MOL   C10742027   7.431   0.057   6.567  0.9918  0.8034  0.1416
  161MOL   C10842028   7.399   0.004   6.685 -0.5580 -0.4266  0.4612
  161MOL   C10942029   7.364   7.738   6.705  0.5175  0.5298 -0.4187
  161MOL   C11042030   7.403   0.080   6.813 -0.2128 -0.8109  0.2289
  161MOL   H11142031   7.536   7.835   6.402 -0.1970 -0.2565 -0.5999
  161MOL   H11242032   7.396   7.759   6.439 -0.2297  0.0477  1.0523
  161MOL   H11342033   7.472   0.156   6.562 -1.5848  1.9348  0.7616
  161MOL   H11442034   7.255   7.732   6.702  0.5327 -1.3186  1.4602
  161MOL   H11542035   7.407   7.700   6.797 -1.0229 -4.8183 -1.7589
  161MOL   H11642036   7.402   7.674   6.626  0.0839  1.2014 -1.1799
  161MOL   H11742037   7.456   0.174   6.801 -0.1150 -1.2690 -3.5419
  161MOL   H11842038   7.462   0.018   6.881 -1.6592 -1.0680  1.2808
  161MOL   C11942039   7.261   0.099   6.871 -0.7674 -0.1300  0.6436
  161MOL   C12042040   7.259   0.180   7.000  0.3133 -0.8089 -0.1150
  161MOL   C12142041   7.268   0.316   7.006 -0.0350  0.3405 -0.3179
  161MOL   C12242042   7.288   0.398   6.883 -0.4946 -0.1835  0.1746
  161MOL   C12342043   7.267   0.385   7.144  0.0548  0.2302  0.2885
  161MOL   H12442044   7.221   7.882   6.889 -1.4013  0.1294  0.6724
  161MOL   H12542045   7.194   0.160   6.811 -0.2052  1.0351  1.1817
  161MOL   H12642046   7.258   0.118   7.089 -1.0392 -0.2845  0.2446
  161MOL   H12742047   7.304   0.343   6.791  1.0009 -2.5991  1.8134
  161MOL   H12842048   7.377   0.457   6.907 -1.6787  1.0866  1.5494
  161MOL   H12942049   7.206   0.466   6.862 -0.4308  0.2562  1.3155
  161MOL   H13042050   7.333   0.472   7.134  0.4368 -0.1096 -0.1716
  161MOL   H13142051   7.320   0.323   7.216  0.1686 -0.8360 -0.6920
  161MOL   C13242052   7.123   0.424   7.190  0.3214  0.3414  0.2177
  161MOL   C13342053   7.036   0.298   7.222 -0.1004  0.1121 -0.2731
  161MOL   C13442054   6.973   0.264   7.338 -0.4223 -0.2914 -0.7018
  161MOL   C13542055   6.986   0.347   7.467  0.0659 -0.8700 -0.2143
  161MOL   C13642056   6.860   0.153   7.343 -0.3360  0.5440 -0.1614
  161MOL   H13742057   7.084   0.485   7.110  0.8620  1.2003  0.5951
  161MOL   H13842058   7.125   0.495   7.274  1.6286 -1.3220  1.6324
  161MOL   H13942059   7.022   0.238   7.132  0.4659  0.8955 -0.8908
  161MOL   H14042060   6.884   0.381   7.488  0.4739 -0.2478  0.8046
  161MOL   H14142061   7.057   0.429   7.474  1.9119 -2.5905  1.9171
  161MOL   H14242062   7.007   0.279   7.550 -0.2438 -1.1158 -0.3389
  161MOL   H14342063   6.830   0.143   7.239 -0.2551 -2.6704  0.0651
  161MOL   H14442064   6.770   0.194   7.389 -0.1468  2.3359 -1.3200
  161MOL   C14542065   6.903   0.017   7.401 -0.2478 -0.0663  0.5142
  161MOL   C14642066   6.817   7.792   7.345  0.2359 -0.1891 -0.5572
  161MOL   C14742067   6.836   7.707   7.244  0.2461  0.2063  0.5899
  161MOL   C14842068   6.958   7.722   7.154  0.2009 -0.6155 -0.0306
  161MOL   C14942069   6.742   7.592   7.207  0.1171 -0.3671 -0.2307
  161MOL   H15042070   6.903   0.029   7.509  0.5917  1.3964  0.3581
  161MOL   H15142071   7.006   7.882   7.371 -0.6695 -3.0295  0.6399
  161MOL   H15242072   6.724   7.785   7.398 -0.3506  2.0299 -1.2508
  161MOL   H15342073   7.037   7.649   7.173  2.3478  1.2506 -1.4993
  161MOL   H15442074   7.000   7.821   7.168 -1.4285  0.2866 -1.2675
  161MOL   H15542075   6.923   7.706   7.052 -0.0257 -0.5724  0.0395
  161MOL   H15642076   6.675   7.570   7.290  0.7094 -1.2894  0.0105
  161MOL   H15742077   6.808   7.507   7.194 -1.5552 -1.9666  1.5443
  161MOL   C15842078   6.642   7.611   7.090 -0.1512 -0.3523 -0.3523
  161MOL   C15942079   6.561   7.485   7.055 -0.1391 -0.3551 -0.2869
  161MOL   C16042080   6.449   7.480   6.986  0.2411  0.2668 -0.3588
  161MOL   C16142081   6.376   7.595   6.934 -0.3039  0.9852 -0.6962
  161MOL   C16242082   6.368   7.351   6.958  0.2140  0.3327  0.0010
  161MOL   H16342083   6.690   7.645   6.998 -0.6694 -1.3797 -1.0097
  161MOL   H16442084   6.579   7.695   7.119 -0.0985 -0.1588 -0.7987
  161MOL   H16542085   6.611   7.396   7.091  0.4901 -0.1674 -0.6908
  161MOL   H16642086   6.416   7.695   6.950 -3.0105  1.9263  0.4906
  161MOL   H16742087   6.283   7.595   6.990  0.4970 -0.7573  0.7110
  161MOL   H16842088   6.350   7.594   6.829 -1.8635  0.2265 -0.3153
  161MOL   H16942089   6.262   7.367   6.980 -0.2368 -0.6267 -1.3528
  161MOL   H17042090   6.399   7.282   7.037  0.1143 -2.0890 -1.9807
  161MOL   C17142091   6.384   7.288   6.820  0.4527 -0.0706  0.1367
  161MOL   C17242092   6.525   7.235   6.789  0.2051 -0.0313 -0.2410
  161MOL   C17342093   6.597   7.257   6.674 -0.4094 -0.4883  0.0432
  161MOL   C17442094   6.562   7.340   6.549 -0.7130 -0.6184  0.4409
  161MOL   C17542095   6.738   7.197   6.671  0.6634 -0.7295 -0.2969
  161MOL   H17642096   6.344   7.353   6.742  0.5820  0.7358  0.7371
  161MOL   H17742097   6.310   7.209   6.802 -0.4838  0.8358 -0.0003
  161MOL   H17842098   6.584   7.179   6.859  2.4461 -0.4294 -2.3894
  161MOL   H17942099   6.455   7.354   6.534 -0.6624 -3.7510 -3.8813
  161MOL   H18042100   6.589   7.287   6.458 -0.3846  0.0492  0.1470
  161MOL   H18142101   6.611   7.437   6.541  2.2344 -2.2023 -1.7122
  161MOL   H18242102   6.778   7.164   6.767 -0.3150  0.1575  0.4291
  161MOL   H18342103   6.797   7.281   6.636 -0.9450  0.4466 -0.2508
  161MOL   C18442104   6.742   7.079   6.580  0.5426  0.1456  0.4531
  161MOL   C18542105   6.859   6.989   6.613  0.0226 -0.6787  0.5434
  161MOL   C18642106   6.855   6.885   6.696  0.5378 -0.8004  0.2111
  161MOL   C18742107   6.730   6.841   6.770 -0.5832  0.0766  0.4248
  161MOL   C18842108   6.971   6.786   6.708  0.4796 -0.2238 -0.4781
  161MOL   H18942109   6.736   7.108   6.475  1.8802 -0.5363  0.1859
  161MOL   H19042110   6.650   7.027   6.604  1.2761 -0.8410  1.1576
  161MOL   H19142111   6.951   7.016   6.563  2.0878 -3.0858  2.9356
  161MOL   H19242112   6.735   6.757   6.839 -0.6389  0.0786  0.4310
  161MOL   H19342113   6.646   6.825   6.702  0.5326  2.1958 -1.5104
  161MOL   H19442114   6.703   6.926   6.832 -1.1426 -0.8885  1.5310
  161MOL   H19542115   6.940   6.682   6.693 -1.7778  0.0859  1.6735
  161MOL   H19642116   7.007   6.783   6.811  0.2724 -0.7471 -0.4207
  161MOL   C19742117   7.096   6.822   6.625  0.5405 -0.1825 -0.5572
  161MOL   C19842118   7.064   6.796   6.478 -0.0043  0.2401  0.0905
  161MOL   C19942119   7.126   6.856   6.377  0.2386  0.9093 -0.4615
  161MOL   C20042120   7.228   6.964   6.394  0.4901 -0.0925  0.5114
  161MOL   C20142121   7.089   6.814   6.235 -0.4425  0.2165  0.0309
  161MOL   H20242122   7.179   6.754   6.646  1.9648  1.6519 -0.0262
  161MOL   H20342123   7.130   6.924   6.643 -0.2320  0.1903 -1.1822
  161MOL   H20442124   7.001   6.712   6.456  2.5714 -2.0589  1.2220
  161MOL   H20542125   7.250   6.992   6.497 -0.5631  0.7026  0.5415
  161MOL   H20642126   7.188   7.051   6.341  1.1077  0.4295  0.8871
  161MOL   H20742127   7.323   6.940   6.347  0.1054 -0.9057  0.1478
  161MOL   H20842128   6.998   6.754   6.228 -0.9177  1.0981 -1.4137
  161MOL   H20942129   7.167   6.741   6.211 -1.1296 -1.2111  1.9683
  161MOL   C21042130   7.078   6.929   6.133 -0.1334 -0.1233 -0.6849
  161MOL   C21142131   7.026   6.882   6.000 -0.4303 -0.1977 -0.4461
  161MOL   C21242132   7.096   6.833   5.895  0.2370  0.1132 -0.2917
  161MOL   C21342133   7.239   6.816   5.893  1.0878 -0.1156  0.1656
  161MOL   C21442134   7.028   6.795   5.763  0.0346 -0.0717 -0.5943
  161MOL   H21542135   7.181   6.965   6.125  0.2231 -1.2227 -1.0342
  161MOL   H21642136   7.022   7.015   6.172  0.4804  0.3741 -0.8892
  161MOL   H21742137   6.921   6.909   6.001 -1.0428 -2.3520  3.7846
  161MOL   H21842138   7.292   6.894   5.838  0.9485 -1.3767 -1.8040
  161MOL   H21942139   7.276   6.725   5.846  2.2129 -1.4114  3.4212
  161MOL   H22042140   7.265   6.812   5.999  1.0029 -0.6200  0.1691
  161MOL   H22142141   6.920   6.799   5.783  0.2626 -2.3847  1.4104
  161MOL   H22242142   7.034   6.689   5.740  1.7849 -0.3019  0.8751
  161MOL   C22342143   7.077   6.892   5.659  0.3651 -0.6514 -0.1586
  161MOL   C22442144   6.998   6.892   5.533  0.1541 -0.1769  0.3654
  161MOL   C22542145   6.877   6.947   5.523 -0.1138 -0.6858 -0.4546
  161MOL   C22642146   6.817   7.031   5.630 -0.2250 -0.8736 -0.0776
  161MOL   C22742147   6.793   6.934   5.401 -0.8520  0.3473 -0.4301
  161MOL   H22842148   7.181   6.864   5.644 -0.0807 -3.6079  1.8620
  161MOL   H22942149   7.065   6.990   5.705  0.3961 -1.1679  0.9799
  161MOL   H23042150   7.037   6.839   5.448 -0.5154  0.1712 -0.1659
  161MOL   H23142151   6.835   7.002   5.734  4.4195  1.4155 -0.0987
  161MOL   H23242152   6.713   7.056   5.609  0.6160  2.7955 -0.2484
  161MOL   H23342153   6.864   7.127   5.610 -3.0106  0.2105 -1.6908
  161MOL   H23442154   6.698   6.884   5.416 -0.7580  0.5179  0.7981
  161MOL   H23542155   6.845   6.864   5.335 -0.5697 -1.8988  2.0994
  161MOL   C23642156   6.771   7.056   5.324  0.5127 -0.1731  0.1066
  161MOL   C23742157   6.699   7.023   5.189 -0.1105 -0.8692  0.2188
  161MOL   C23842158   6.574   7.055   5.146  0.6592 -0.1314  0.4105
  161MOL   C23942159   6.464   7.124   5.231  0.3169 -0.1627 -0.9031
  161MOL   C24042160   6.538   7.044   5.007 -0.1428  0.3902  0.4129
  161MOL   H24142161   6.859   7.112   5.292  0.4920 -0.4542 -0.4495
  161MOL   H24242162   6.716   7.126   5.386 -0.2129  0.8865 -1.7114
  161MOL   H24342163   6.760   6.971   5.117 -2.2028 -2.8004 -0.2077
  161MOL   H24442164   6.436   7.219   5.186 -0.1105 -1.7083 -4.0819
  161MOL   H24542165   6.492   7.144   5.334 -1.6495 -0.5767 -0.2705
  161MOL   H24642166   6.377   7.059   5.243  0.8290 -0.4647  1.4123
  161MOL   H24742167   6.627   7.023   4.948 -0.6072  0.5218 -0.3469
  161MOL   H24842168   6.520   7.148   4.979  1.7726  0.6662  0.1438
  161MOL   C24942169   6.424   6.951   4.967 -0.1608  0.3274  0.7750
  161MOL   C25042170   6.405   6.943   4.820 -0.0024 -0.3659  0.3670
  161MOL   C25142171   6.394   6.834   4.741  0.3820  0.5548 -0.2692
  161MOL   C25242172   6.443   6.695   4.783 -0.3133 -0.5287 -0.2176
  161MOL   C25342173   6.377   6.842   4.589  0.0195  0.5153  0.0348
  161MOL   H25442174   6.326   6.988   4.996 -1.5054 -1.7456 -0.9802
  161MOL   H25542175   6.434   6.858   5.023  1.8288  0.8713  1.3688
  161MOL   H25642176   6.378   7.035   4.770  2.1604  0.4228  0.6365
  161MOL   H25742177   6.548   6.685   4.757 -0.3911  0.8219 -1.1032
  161MOL   H25842178   6.386   6.615   4.734  0.9072 -0.1431 -2.3598
  161MOL   H25942179   6.424   6.668   4.887 -0.7854 -2.2114 -0.7235
  161MOL   H26042180   6.306   6.769   4.553 -0.0863 -0.4125  2.0451
  161MOL   H26142181   6.474   6.822   4.543 -0.5031 -1.8795 -0.0591
  161MOL   H26242182   6.335   6.941   4.567  0.2737  0.3100 -1.3973
  162MOL     C142183   0.192   2.154   1.522  0.3535  0.3007 -0.0020
  162MOL     C242184   0.144   2.193   1.385  0.8191  0.1341  0.3165
  162MOL     C342185   0.042   2.139   1.314  0.1974 -0.2205 -0.0575
  162MOL     C442186   7.846   2.019   1.361 -0.1902  0.8324  0.1046
  162MOL     C542187   7.878   2.211   1.180 -0.2601 -0.3489 -0.0971
  162MOL     H642188   0.146   2.069   1.572  0.1377  1.7032  2.2428
  162MOL     H742189   0.300   2.141   1.527  0.4790  1.6391  1.1089
  162MOL     H842190   0.179   2.287   1.344 -1.2950  0.0905 -1.7044
  162MOL     H942191   7.832   2.019   1.469  0.7132 -1.0858  0.2584
  162MOL    H1042192   0.031   1.934   1.344 -2.8054 -0.8064 -2.5367
  162MOL    H1142193   7.758   2.007   1.297  1.6332 -0.7351 -2.2184
  162MOL    H1242194   0.064   2.292   1.154  0.0884 -0.6924 -0.2423
  162MOL    H1342195   7.787   2.266   1.204  0.4939  0.3220  1.2980
  162MOL    H1442196   0.159   2.234   1.588 -2.7235 -1.3646  0.5713
  162MOL    C1542197   7.873   2.117   1.053  0.6546  0.7826  0.1320
  162MOL    C1642198   7.839   2.189   0.921 -0.8456  0.0841  0.0529
  162MOL    C1742199   0.027   2.176   0.802 -1.1163 -0.3692  0.2684
  162MOL    C1842200   0.162   2.103   0.783  0.0019 -0.4838  0.0208
  162MOL    C1942201   7.875   2.267   0.686 -0.4729 -0.5961 -0.0553
  162MOL    H2042202   7.798   2.039   1.063  2.1404 -0.5432  1.1765
  162MOL    H2142203   0.093   2.083   1.049  0.5755  0.4486  0.9576
  162MOL    H2242204   7.751   2.252   0.918  0.0737  1.3008 -3.2120
  162MOL    H2342205   0.174   2.025   0.859 -3.6240 -0.7695  0.3757
  162MOL    H2442206   0.235   2.181   0.805 -0.4469 -0.2552  0.7445
  162MOL    H2542207   0.176   2.049   0.690 -0.9110 -1.3939  0.4067
  162MOL    H2642208   0.079   2.328   0.663 -0.8266 -0.7840 -1.9806
  162MOL    H2742209   7.792   2.331   0.717  0.8644  1.8757 -1.4244
  162MOL    C2842210   7.837   2.201   0.551  0.0808 -0.1708 -0.3167
  162MOL    C2942211   7.719   2.109   0.555  1.1569  0.1627 -0.2377
  162MOL    C3042212   7.632   2.085   0.457  0.3495  0.4172 -0.0815
  162MOL    C3142213   7.633   2.143   0.319 -0.0254 -0.4173  0.4306
  162MOL    C3242214   7.505   2.001   0.476  0.0104 -0.1893 -1.0677
  162MOL    H3342215   0.043   2.146   0.520  1.1838  1.5083 -0.2255
  162MOL    H3442216   7.831   2.275   0.472  1.3170  2.0480  1.6005
  162MOL    H3542217   7.705   2.062   0.652  1.9175  3.1192  1.3823
  162MOL    H3642218   7.725   2.198   0.297 -0.5998 -0.9459 -3.6586
  162MOL    H3742219   7.550   2.210   0.301 -0.2252 -0.4180  1.3054
  162MOL    H3842220   7.618   2.074   0.236  0.7842 -0.2401  0.1246
  162MOL    H3942221   7.520   1.933   0.560 -0.1951  0.6808 -0.3036
  162MOL    H4042222   7.489   1.939   0.389 -3.0225 -0.9093 -0.0510
  162MOL    C4142223   7.379   2.089   0.506 -0.2878 -0.2838 -0.7189
  162MOL    C4242224   7.385   2.177   0.636 -0.5023  0.2312  0.0889
  162MOL    C4342225   7.361   2.310   0.650 -0.0393 -0.0229  0.0545
  162MOL    C4442226   7.315   2.405   0.534 -0.4391 -0.5597 -0.4062
  162MOL    C4542227   7.371   2.368   0.795 -0.2500  0.0677  0.8535
  162MOL    H4642228   7.290   2.026   0.513 -2.1395  2.2475 -1.1232
  162MOL    H4742229   7.350   2.142   0.416 -0.1025 -1.2048 -1.3236
  162MOL    H4842230   7.424   2.122   0.721  2.0022 -1.0271 -1.8302
  162MOL    H4942231   7.394   2.479   0.528 -0.7242 -0.3385 -1.4670
  162MOL    H5042232   7.224   2.456   0.565  0.2724  0.6733 -0.3101
  162MOL    H5142233   7.300   2.363   0.434 -1.7648 -1.4055  0.1334
  162MOL    H5242234   7.447   2.317   0.853  1.1453 -0.3012 -1.2182
  162MOL    H5342235   7.273   2.355   0.841 -0.6432 -2.4305 -0.6045
  162MOL    C5442236   7.430   2.511   0.795 -0.8897 -0.0845 -0.3263
  162MOL    C5542237   7.445   2.561   0.934  0.9938  0.1140 -0.1830
  162MOL    C5642238   7.550   2.626   0.990 -0.1865 -0.2527  0.2982
  162MOL    C5742239   7.677   2.660   0.912 -0.5250 -0.2558  0.0232
  162MOL    C5842240   7.522   2.702   1.123  0.4499  0.2875  0.1225
  162MOL    H5942241   7.367   2.581   0.741  1.7272  2.9290  0.3334
  162MOL    H6042242   7.520   2.519   0.733 -2.4926 -0.6635 -2.7865
  162MOL    H6142243   7.353   2.556   0.990  0.6764  0.3756 -0.6673
  162MOL    H6242244   7.765   2.638   0.973 -0.3568  0.0005 -0.1266
  162MOL    H6342245   7.680   2.766   0.887 -3.6186 -0.2642 -0.5907
  162MOL    H6442246   7.685   2.604   0.819  1.0548 -0.2863  0.1511
  162MOL    H6542247   7.415   2.725   1.123  0.2748 -0.4734  1.7888
  162MOL    H6642248   7.572   2.799   1.124  3.3448 -1.1498 -0.0768
  162MOL    C6742249   7.533   2.616   1.250 -0.0241 -0.0023  0.3979
  162MOL    C6842250   7.510   2.703   1.369  0.4381  0.1165  0.0276
  162MOL    C6942251   7.408   2.693   1.457  0.3699  0.7546  0.0498
  162MOL    C7042252   7.288   2.600   1.436  0.2117  0.3603  0.0068
  162MOL    C7142253   7.387   2.795   1.568 -0.1826 -0.3909  0.2059
  162MOL    H7242254   7.632   2.574   1.262  0.7890  1.6019 -0.5813
  162MOL    H7342255   7.462   2.534   1.238  0.1246  0.2177 -2.3484
  162MOL    H7442256   7.577   2.787   1.378 -2.0224  1.9896  1.2745
  162MOL    H7542257   7.230   2.561   1.520 -2.5015 -1.0872 -2.4429
  162MOL    H7642258   7.313   2.505   1.389  0.6520  1.1161 -1.2996
  162MOL    H7742259   7.212   2.646   1.374 -0.2034 -1.4620 -0.8727
  162MOL    H7842260   7.282   2.789   1.599 -0.1666 -0.2829  0.2830
  162MOL    H7942261   7.398   2.893   1.520  1.8542  0.1453  1.7179
  162MOL    C8042262   7.478   2.781   1.692  0.2012  0.6329  0.3464
  162MOL    C8142263   7.452   2.651   1.761  0.2394  0.0788 -0.2748
  162MOL    C8242264   7.391   2.638   1.877 -0.1557  0.1215 -0.4345
  162MOL    C8342265   7.330   2.755   1.961  0.3778  0.2140 -0.3340
  162MOL    C8442266   7.365   2.496   1.927 -0.5935 -0.5253 -0.4199
  162MOL    H8542267   7.459   2.870   1.752 -0.1423 -0.6365  2.1522
  162MOL    H8642268   7.583   2.794   1.665  0.1435  0.6177  0.1090
  162MOL    H8742269   7.489   2.563   1.710  0.4524 -0.1639  0.2875
  162MOL    H8842270   7.341   2.726   2.065 -0.0822 -1.0239 -0.6242
  162MOL    H8942271   7.232   2.779   1.921 -0.0339  0.4595  0.8136
  162MOL    H9042272   7.381   2.851   1.953  1.4671 -0.5582 -3.3781
  162MOL    H9142273   7.414   2.482   2.023  1.4020 -0.5133 -1.4298
  162MOL    H9242274   7.415   2.418   1.870 -0.2743  0.3527 -1.3705
  162MOL    C9342275   7.217   2.460   1.925  0.5487  0.4669 -0.3715
  162MOL    C9442276   7.206   2.315   1.976 -0.5235  0.8687 -0.5940
  162MOL    C9542277   7.169   2.284   2.099 -0.0273 -0.1588 -0.7641
  162MOL    C9642278   7.124   2.392   2.202  0.3931 -0.5760 -0.2873
  162MOL    C9742279   7.153   2.144   2.165  0.2255  0.5773 -0.1773
  162MOL    H9842280   7.183   2.457   1.821 -2.4652 -1.6004  0.6099
  162MOL    H9942281   7.152   2.542   1.955 -0.0163 -0.4858  1.0349
  162MOL   H10042282   7.226   2.235   1.907  0.1660 -0.1816  0.8117
  162MOL   H10142283   7.190   2.401   2.289 -0.0147 -0.1183 -0.0251
  162MOL   H10242284   7.017   2.396   2.223  0.6544 -1.1891  1.2576
  162MOL   H10342285   7.147   2.487   2.155 -0.5336 -0.8418 -1.2893
  162MOL   H10442286   7.050   2.130   2.198  0.3951 -1.1445 -0.3449
  162MOL   H10542287   7.209   2.147   2.259 -1.6520 -3.1399  1.1601
  162MOL   C10642288   7.203   2.020   2.088 -0.8629  0.8346  0.5938
  162MOL   C10742289   7.208   1.907   2.183 -0.0579  0.9340  0.6996
  162MOL   C10842290   7.178   1.777   2.161  0.7362 -0.2957  0.5964
  162MOL   C10942291   7.110   1.734   2.032  0.2447 -0.0901  0.1181
  162MOL   C11042292   7.198   1.665   2.261 -1.0826 -0.0308  0.0619
  162MOL   H11142293   7.307   2.043   2.062 -0.0065 -1.1570  2.1295
  162MOL   H11242294   7.145   1.995   1.999 -1.3296 -0.2512  1.1942
  162MOL   H11342295   7.258   1.923   2.278  0.0030  0.1966  0.7951
  162MOL   H11442296   7.009   1.771   2.011  0.4640 -0.4059 -1.6029
  162MOL   H11542297   7.097   1.625   2.038  1.5296 -0.1344  2.4829
  162MOL   H11642298   7.180   1.746   1.949 -0.9064 -1.7467 -1.1503
  162MOL   H11742299   7.102   1.615   2.276 -1.0919 -0.4648 -1.3804
  162MOL   H11842300   7.217   1.693   2.365 -0.1582 -0.7015  0.0817
  162MOL   C11942301   7.310   1.568   2.223 -0.0191 -0.2930  0.3106
  162MOL   C12042302   7.352   1.468   2.324  0.9421 -0.4698 -0.7562
  162MOL   C12142303   7.477   1.423   2.353  0.3806 -0.9790  0.2709
  162MOL   C12242304   7.597   1.473   2.281 -0.2781 -0.2615  0.4887
  162MOL   C12342305   7.499   1.304   2.441  0.0780  0.3254  0.2452
  162MOL   H12442306   7.393   1.629   2.187 -0.3147 -0.1354 -0.1131
  162MOL   H12542307   7.285   1.521   2.129 -3.4603 -0.4254  1.2198
  162MOL   H12642308   7.268   1.419   2.372  0.9610  2.5178  2.5474
  162MOL   H12742309   7.681   1.460   2.349 -0.1609  0.7489  0.5460
  162MOL   H12842310   7.599   1.579   2.260 -0.6178 -0.1579  0.9528
  162MOL   H12942311   7.606   1.416   2.189 -4.4521 -0.7666  0.2560
  162MOL   H13042312   7.577   1.248   2.388  1.3544 -0.8392  3.2509
  162MOL   H13142313   7.407   1.248   2.452 -0.6113  1.6936  1.5611
  162MOL   C13242314   7.549   1.335   2.578 -0.2652 -0.0964  0.0936
  162MOL   C13342315   7.439   1.386   2.670  0.1202 -0.0278  0.7529
  162MOL   C13442316   7.425   1.518   2.699 -0.5821  0.1599  0.0377
  162MOL   C13542317   7.513   1.618   2.630 -0.0097 -0.0514 -0.4620
  162MOL   C13642318   7.308   1.574   2.774 -0.1561 -0.1358  0.6938
  162MOL   H13742319   7.638   1.398   2.590 -1.3631  1.2590  1.3835
  162MOL   H13842320   7.573   1.234   2.612 -2.6795 -0.2970  1.3079
  162MOL   H13942321   7.385   1.309   2.723  0.5543  0.0237  1.2676
  162MOL   H14042322   7.496   1.625   2.522 -1.2368 -1.5308 -0.3793
  162MOL   H14142323   7.620   1.603   2.644  0.0995  0.3326 -0.8731
  162MOL   H14242324   7.501   1.717   2.673  0.3442  0.2126 -0.9686
  162MOL   H14342325   7.238   1.490   2.775  0.8841 -1.0584 -0.9625
  162MOL   H14442326   7.260   1.654   2.718  1.3685 -0.8528 -1.6990
  162MOL   C14542327   7.341   1.602   2.918  0.4426 -0.2591  0.3353
  162MOL   C14642328   7.229   1.684   2.975 -0.0735 -0.1607 -0.1167
  162MOL   C14742329   7.115   1.644   3.026 -0.4726  0.3586 -0.8277
  162MOL   C14842330   7.086   1.494   3.042 -0.2827 -0.2942 -0.0350
  162MOL   C14942331   7.009   1.736   3.077 -0.3538 -0.5810 -0.2957
  162MOL   H15042332   7.433   1.659   2.927 -0.0959  0.7602 -0.4598
  162MOL   H15142333   7.358   1.506   2.966  1.3200 -0.9113 -1.2427
  162MOL   H15242334   7.255   1.789   2.981  2.4279 -0.8017  0.7007
  162MOL   H15342335   7.061   1.460   3.143  1.1164 -0.0497  0.4151
  162MOL   H15442336   7.158   1.425   2.999 -2.0668 -1.3138 -1.4383
  162MOL   H15542337   6.998   1.486   2.979  0.4720  1.7887 -1.3999
  162MOL   H15642338   6.918   1.712   3.021 -1.4049  1.9261  0.2503
  162MOL   H15742339   7.033   1.840   3.054 -0.8538 -0.0776  1.3878
  162MOL   C15842340   6.960   1.728   3.219 -1.2020  0.3808  0.0950
  162MOL   C15942341   6.836   1.811   3.258 -0.2151 -0.3608  0.6957
  162MOL   C16042342   6.736   1.782   3.344 -0.1746 -0.3826 -0.0090
  162MOL   C16142343   6.708   1.652   3.416  0.0535  0.2554 -0.0056
  162MOL   C16242344   6.627   1.882   3.363 -0.5932 -0.7796  0.7185
  162MOL   H16342345   7.045   1.767   3.274 -0.6979  2.0007 -1.7864
  162MOL   H16442346   6.946   1.625   3.255  1.1342 -0.8992 -2.5087
  162MOL   H16542347   6.834   1.908   3.212 -0.8537  0.0090  1.4923
  162MOL   H16642348   6.691   1.674   3.521  0.3127 -1.5253  0.4201
  162MOL   H16742349   6.776   1.567   3.407 -0.3633 -0.2591  1.6619
  162MOL   H16842350   6.610   1.622   3.379  0.1898 -1.2860  0.8661
  162MOL   H16942351   6.528   1.840   3.352 -0.2758 -1.4064  0.1968
  162MOL   H17042352   6.631   1.944   3.273  2.8466 -2.3003 -0.2748
  162MOL   C17142353   6.646   1.961   3.493 -0.1211  0.6887  0.8103
  162MOL   C17242354   6.534   2.060   3.525 -0.0314  0.3996 -0.0989
  162MOL   C17342355   6.545   2.197   3.551 -0.6354 -0.7298  0.2834
  162MOL   C17442356   6.680   2.268   3.566  0.0954  0.9689  0.0942
  162MOL   C17542357   6.426   2.285   3.560 -0.4032 -0.6063 -0.5227
  162MOL   H17642358   6.744   2.008   3.498  0.7826 -0.9570 -0.9626
  162MOL   H17742359   6.641   1.896   3.580  0.2507  0.6721  0.8206
  162MOL   H17842360   6.432   2.023   3.524  1.1193 -2.8982 -0.6962
  162MOL   H17942361   6.679   2.295   3.672  2.9833 -1.8359  0.9032
  162MOL   H18042362   6.685   2.353   3.498  1.6849  1.2901  0.5752
  162MOL   H18142363   6.764   2.201   3.550 -0.7390 -0.0279 -0.0991
  162MOL   H18242364   6.430   2.329   3.660 -2.3166 -0.0893 -0.6595
  162MOL   H18342365   6.340   2.218   3.557 -0.4510 -0.7834  2.9104
  162MOL   C18442366   6.424   2.396   3.456  0.6074  0.0836 -0.1026
  162MOL   C18542367   6.291   2.469   3.456  0.3471 -0.3350  0.3627
  162MOL   C18642368   6.206   2.482   3.352  0.6971  0.2497 -0.7147
  162MOL   C18742369   6.216   2.418   3.224 -0.7171 -0.6335  0.3553
  162MOL   C18842370   6.069   2.547   3.369 -0.0784  0.4662 -0.1074
  162MOL   H18942371   6.454   2.349   3.363  1.0218 -0.8332  0.4818
  162MOL   H19042372   6.509   2.464   3.465 -0.6659  1.8409 -1.2701
  162MOL   H19142373   6.275   2.520   3.550 -0.1506  0.7656 -0.3103
  162MOL   H19242374   6.300   2.351   3.208 -0.8467 -1.2764  2.2117
  162MOL   H19342375   6.228   2.496   3.149  2.4313 -0.3395  1.0907
  162MOL   H19442376   6.121   2.366   3.214 -1.1972  0.0927  1.0187
  162MOL   H19542377   6.037   2.607   3.284 -3.3126 -0.0863  0.6404
  162MOL   H19642378   6.072   2.624   3.447 -3.2004  0.5532 -0.0139
  162MOL   C19742379   5.976   2.439   3.422  0.1070 -0.5476  0.7153
  162MOL   C19842380   5.833   2.489   3.433 -0.7761 -0.5039 -0.1460
  162MOL   C19942381   5.720   2.435   3.389  0.3698  0.1495 -0.8495
  162MOL   C20042382   5.718   2.309   3.307  0.1610 -0.6926 -0.2604
  162MOL   C20142383   5.590   2.501   3.417 -0.7462 -0.1768 -0.5664
  162MOL   H20242384   6.013   2.400   3.517  0.8378  2.7324  1.8253
  162MOL   H20342385   5.974   2.347   3.362  0.7273  0.7095 -1.2992
  162MOL   H20442386   5.831   2.581   3.489 -3.2723 -0.9012  0.4885
  162MOL   H20542387   5.777   2.301   3.215  0.1244 -0.9050 -0.2653
  162MOL   H20642388   5.618   2.286   3.271 -0.0950  0.7977 -0.5549
  162MOL   H20742389   5.745   2.226   3.371  1.2506  0.0846  0.3205
  162MOL   H20842390   5.595   2.543   3.517  0.0379 -2.4728  0.4041
  162MOL   H20942391   5.511   2.426   3.417 -0.6581 -0.2977  1.5695
  162MOL   C21042392   5.554   2.601   3.307  0.4474 -0.7329  0.5222
  162MOL   C21142393   5.415   2.667   3.310  0.1854 -0.3548  0.2457
  162MOL   C21242394   5.346   2.710   3.206  0.2909  0.3304 -1.0327
  162MOL   C21342395   5.403   2.709   3.065  0.1565 -1.2060  0.4520
  162MOL   C21442396   5.207   2.765   3.223  1.1578 -0.0107 -0.2305
  162MOL   H21542397   5.573   2.549   3.213  1.2364 -1.5309  1.1126
  162MOL   H21642398   5.627   2.682   3.312  2.5796 -2.4630 -1.2242
  162MOL   H21742399   5.381   2.684   3.411  0.2429 -2.2379  0.5996
  162MOL   H21842400   5.381   2.807   3.021  0.4473 -0.5790  1.6988
  162MOL   H21942401   5.367   2.635   2.994 -0.5346  0.7395 -1.2966
  162MOL   H22042402   5.509   2.686   3.061  0.1644 -1.0977 -0.0037
  162MOL   H22142403   5.148   2.710   3.296  0.5696  0.8695 -0.0351
  162MOL   H22242404   5.142   2.748   3.137 -0.0832 -0.5990  0.7952
  162MOL   C22342405   5.192   2.919   3.247  0.9405 -0.4409 -0.4556
  162MOL   C22442406   5.087   2.960   3.356 -1.0872 -0.2409 -0.1697
  162MOL   C22542407   5.111   3.045   3.460 -0.9272 -0.0438 -0.2766
  162MOL   C22642408   5.249   3.102   3.496  0.0781 -0.3683  0.2101
  162MOL   C22742409   4.991   3.091   3.542 -0.3197  0.4448  0.0356
  162MOL   H22842410   5.156   2.961   3.153  0.2494  2.0348  0.8592
  162MOL   H22942411   5.294   2.947   3.272  0.1253  0.7174  1.6889
  162MOL   H23042412   4.986   2.926   3.339 -0.2233 -2.8034 -0.3115
  162MOL   H23142413   5.279   3.148   3.402  0.7284  0.0431  0.6105
  162MOL   H23242414   5.322   3.024   3.518  0.3834 -0.6841 -1.8612
  162MOL   H23342415   5.250   3.184   3.569 -0.0038 -0.0017 -0.1979
  162MOL   H23442416   4.903   3.029   3.527  0.6251 -1.1731  0.9673
  162MOL   H23542417   4.962   3.188   3.503  0.1072  0.5476 -0.0274
  162MOL   C23642418   5.025   3.085   3.695 -0.2081 -0.1111 -0.4587
  162MOL   C23742419   4.902   3.140   3.760 -0.3677  0.4691  0.1240
  162MOL   C23842420   4.890   3.241   3.851  0.7005 -0.1677  0.3394
  162MOL   C23942421   5.001   3.331   3.897  0.1252  0.0024  0.9252
  162MOL   C24042422   4.744   3.285   3.890 -0.0140  0.0785 -0.2317
  162MOL   H24142423   5.118   3.131   3.730 -0.3589  0.0022 -0.2103
  162MOL   H24242424   5.031   2.977   3.707 -1.2309 -0.2562 -1.1490
  162MOL   H24342425   4.812   3.091   3.727  1.3984 -1.8441 -1.4292
  162MOL   H24442426   4.974   3.429   3.857 -0.7699  0.0029  1.5225
  162MOL   H24542427   5.099   3.307   3.857 -0.8199 -0.6635 -1.0579
  162MOL   H24642428   5.003   3.352   4.004 -3.6252  1.2583  0.8316
  162MOL   H24742429   4.754   3.393   3.908  2.9045 -0.0582 -0.8619
  162MOL   H24842430   4.716   3.253   3.991  0.0974 -0.9238 -0.5247
  162MOL   C24942431   4.632   3.262   3.793 -0.5571  0.1745  0.1462
  162MOL   C25042432   4.502   3.347   3.813 -0.1067  0.0332  0.1362
  162MOL   C25142433   4.371   3.313   3.803  0.1684  0.3418  0.6510
  162MOL   C25242434   4.322   3.174   3.767 -0.2788  0.6863 -1.0306
  162MOL   C25342435   4.261   3.416   3.843 -0.1797 -0.3318 -0.2563
  162MOL   H25442436   4.621   3.154   3.790  0.5653 -0.0439  2.7138
  162MOL   H25542437   4.671   3.295   3.697 -2.1688  1.0759 -0.2201
  162MOL   H25642438   4.531   3.447   3.843 -1.4723 -0.2165  2.3283
  162MOL   H25742439   4.248   3.178   3.687 -0.2836  0.0510 -1.0594
  162MOL   H25842440   4.273   3.129   3.853 -0.2598  1.7607 -0.4467
  162MOL   H25942441   4.401   3.108   3.733 -0.5245  0.1771 -0.6088
  162MOL   H26042442   4.180   3.370   3.899 -1.3530  3.7250  1.5948
  162MOL   H26142443   4.221   3.457   3.750  1.1809 -0.0980 -0.7440
  162MOL   H26242444   4.308   3.499   3.896 -0.1285 -0.5716  0.0772
  163MOL     C142445   1.992   6.434   1.837  0.5090 -0.3039 -0.1773
  163MOL     C242446   1.862   6.438   1.918 -0.0168 -0.4139  0.2542
  163MOL     C342447   1.802   6.331   1.975  0.0973 -0.1935 -0.2373
  163MOL     C442448   1.857   6.190   1.988  0.3895  0.5365 -0.1969
  163MOL     C542449   1.674   6.351   2.055 -0.2997 -0.2812 -0.7784
  163MOL     H642450   2.054   6.517   1.871 -1.2607  0.9668 -0.0015
  163MOL     H742451   2.055   6.345   1.841 -0.0553 -0.7349 -0.8194
  163MOL     H842452   1.809   6.532   1.923 -1.6855 -1.2525 -1.4270
  163MOL     H942453   1.890   6.174   2.091  0.7477  2.8544  0.0608
  163MOL    H1042454   1.948   6.175   1.930  0.3479 -1.9604  0.2989
  163MOL    H1142455   1.789   6.108   1.965  0.2807  0.7828 -0.7540
  163MOL    H1242456   1.700   6.381   2.156  0.7623  0.3512 -1.2328
  163MOL    H1342457   1.625   6.254   2.062  0.3122 -0.5336 -0.0103
  163MOL    H1442458   1.968   6.450   1.732 -2.8091  1.3815  0.7743
  163MOL    C1542459   1.568   6.451   1.993 -0.0651  0.1192  0.1805
  163MOL    C1642460   1.426   6.443   2.047 -0.1988  0.7115  0.2587
  163MOL    C1742461   1.327   6.533   2.038  0.5529 -0.1851 -0.3244
  163MOL    C1842462   1.333   6.660   1.962  0.7975  0.5582 -0.1903
  163MOL    C1942463   1.202   6.506   2.117 -0.3846  0.2344  0.0619
  163MOL    H2042464   1.550   6.432   1.887  1.2945 -0.4199  0.0292
  163MOL    H2142465   1.603   6.554   1.988  0.1243  0.0661  0.3946
  163MOL    H2242466   1.404   6.355   2.107  1.2074  1.2725  1.6464
  163MOL    H2342467   1.387   6.649   1.868 -1.1097  2.8039 -1.6101
  163MOL    H2442468   1.380   6.733   2.028 -1.6086  3.4392 -1.5697
  163MOL    H2542469   1.234   6.698   1.938 -0.9154 -2.4177  1.8377
  163MOL    H2642470   1.165   6.406   2.091 -0.2357 -0.1505  1.2813
  163MOL    H2742471   1.128   6.575   2.078 -0.9947 -0.5531 -0.1783
  163MOL    C2842472   1.215   6.507   2.265 -0.5237  0.3866 -0.5679
  163MOL    C2942473   1.272   6.641   2.309 -0.1428  0.7073  0.0871
  163MOL    C3042474   1.204   6.741   2.372  0.0219 -0.2603  0.5618
  163MOL    C3142475   1.065   6.735   2.434 -0.2324 -0.0038  0.3861
  163MOL    C3242476   1.285   6.867   2.403  0.3726  0.0318 -0.1120
  163MOL    H3342477   1.290   6.436   2.299  0.3740  1.7776  0.4295
  163MOL    H3442478   1.115   6.487   2.305  0.5952  0.1625  2.2192
  163MOL    H3542479   1.372   6.660   2.272 -0.0164  0.2774  0.2030
  163MOL    H3642480   1.003   6.797   2.370  0.0030 -0.8705 -0.6979
  163MOL    H3742481   1.065   6.789   2.528  0.0170 -1.2514  1.1189
  163MOL    H3842482   1.015   6.639   2.449  0.6211 -0.3713  0.9557
  163MOL    H3942483   1.389   6.865   2.368  0.0264  1.8610 -1.2668
  163MOL    H4042484   1.293   6.873   2.512  0.6499  0.2541 -0.1434
  163MOL    C4142485   1.223   6.993   2.344 -1.0021 -0.1394  0.4085
  163MOL    C4242486   1.315   7.106   2.371  0.2957 -0.3362  0.3383
  163MOL    C4342487   1.291   7.232   2.331 -0.4270 -0.0292  0.1629
  163MOL    C4442488   1.161   7.272   2.264  0.0856 -0.0630 -0.1402
  163MOL    C4542489   1.386   7.344   2.367 -0.2862  1.0868  0.4326
  163MOL    H4642490   1.122   7.004   2.383 -0.4931  1.1795  1.4088
  163MOL    H4742491   1.223   6.988   2.236  1.3934  1.5674  0.2881
  163MOL    H4842492   1.408   7.087   2.423  0.1651  0.3952  0.8421
  163MOL    H4942493   1.098   7.191   2.227  0.6974 -0.5802 -0.0537
  163MOL    H5042494   1.183   7.334   2.178  0.5472 -1.3638 -0.9722
  163MOL    H5142495   1.105   7.331   2.338  0.7244  2.2863 -1.4880
  163MOL    H5242496   1.421   7.388   2.273  0.4534 -0.8887 -0.2553
  163MOL    H5342497   1.478   7.305   2.410 -0.5181  2.3158  2.0684
  163MOL    C5442498   1.329   7.458   2.459 -0.8305 -0.2503 -0.0621
  163MOL    C5542499   1.292   7.393   2.584 -0.5177 -0.2060 -0.2299
  163MOL    C5642500   1.325   7.434   2.710  0.3888 -0.1084 -0.0826
  163MOL    C5742501   1.381   7.566   2.754  0.3282  0.2574  0.3200
  163MOL    C5842502   1.291   7.341   2.825  0.0949 -0.4879 -0.4620
  163MOL    H5942503   1.242   7.504   2.412 -0.6262 -2.1414 -2.3671
  163MOL    H6042504   1.410   7.529   2.469 -3.7556  3.2797 -0.4378
  163MOL    H6142505   1.240   7.298   2.576 -0.0675 -0.8898  3.9124
  163MOL    H6242506   1.428   7.619   2.671  0.7286  1.7131  1.4662
  163MOL    H6342507   1.456   7.548   2.831  1.8771 -0.0674 -1.2179
  163MOL    H6442508   1.308   7.634   2.797 -0.7684 -0.0310 -1.0218
  163MOL    H6542509   1.292   7.405   2.914 -0.8644 -2.2557  0.8508
  163MOL    H6642510   1.379   7.277   2.826  1.8240  1.7919 -1.0638
  163MOL    C6742511   1.149   7.267   2.808  0.7154  0.1991 -0.1059
  163MOL    C6842512   1.124   7.181   2.932 -0.3481 -0.3039  0.2074
  163MOL    C6942513   1.117   7.046   2.938  0.7121  0.1452  0.3246
  163MOL    C7042514   1.142   6.954   2.823 -0.6199  0.2839 -0.2737
  163MOL    C7142515   1.091   6.980   3.077 -0.0843 -0.2102 -0.3341
  163MOL    H7242516   1.148   7.205   2.718 -0.1580  0.6905 -0.4345
  163MOL    H7342517   1.071   7.342   2.800  0.6138 -0.1532 -2.7903
  163MOL    H7442518   1.106   7.243   3.018  0.2410 -1.3307  1.0672
  163MOL    H7542519   1.250   6.942   2.809 -0.7350 -0.2255 -0.7241
  163MOL    H7642520   1.108   7.003   2.732  0.0695  0.0519 -0.6620
  163MOL    H7742521   1.088   6.859   2.829 -1.6431  0.9500  1.5001
  163MOL    H7842522   1.098   7.051   3.159 -0.2062 -1.7903  1.0812
  163MOL    H7942523   1.167   6.902   3.088  0.9530  0.6376 -1.2240
  163MOL    C8042524   0.956   6.909   3.100  0.0844 -0.5775 -0.4836
  163MOL    C8142525   0.919   6.897   3.247 -0.0156  0.0317 -0.3989
  163MOL    C8242526   0.893   6.784   3.311  0.1947 -0.2514 -0.8203
  163MOL    C8342527   0.936   6.642   3.265  0.3216  0.5494 -0.2840
  163MOL    C8442528   0.824   6.790   3.448 -0.5128 -0.0814 -0.2182
  163MOL    H8542529   0.951   6.823   3.034  1.1421 -0.7445 -0.3550
  163MOL    H8642530   0.886   6.983   3.060  0.2157  0.6028  1.3619
  163MOL    H8742531   0.902   6.994   3.292  0.7036 -0.9748  2.1755
  163MOL    H8842532   1.000   6.579   3.327 -1.4225  0.5947  1.6309
  163MOL    H8942533   0.963   6.635   3.160 -0.7755 -1.5913 -0.4620
  163MOL    H9042534   0.845   6.581   3.270 -0.2373  1.4727  1.1232
  163MOL    H9142535   0.728   6.738   3.444 -0.3909 -0.3576  0.4953
  163MOL    H9242536   0.786   6.887   3.481 -0.3939 -0.5458  1.3216
  163MOL    C9342537   0.913   6.742   3.558 -0.2086  0.0121 -0.3851
  163MOL    C9442538   1.019   6.851   3.585  0.2235  0.3510 -0.3322
  163MOL    C9542539   1.047   6.900   3.707  0.0958 -0.3629 -0.4333
  163MOL    C9642540   0.974   6.880   3.836  0.1510 -0.2865 -0.0060
  163MOL    C9742541   1.172   6.991   3.731  0.4655 -0.8391 -0.1382
  163MOL    H9842542   0.965   6.650   3.532  0.0746 -0.2298  0.9888
  163MOL    H9942543   0.849   6.728   3.646 -1.5321  1.1715 -1.1482
  163MOL   H10042544   1.080   6.865   3.497 -0.0036  0.4055 -0.4830
  163MOL   H10142545   1.021   6.804   3.898 -1.2984 -0.2049  1.2264
  163MOL   H10242546   0.881   6.824   3.829  0.3362 -0.7904  1.3550
  163MOL   H10342547   0.953   6.972   3.891  3.2555  0.1964  0.4368
  163MOL   H10442548   1.243   6.932   3.788  0.8915 -0.4138 -0.2307
  163MOL   H10542549   1.145   7.077   3.792 -1.3203 -0.4938 -1.3634
  163MOL   C10642550   1.244   7.038   3.608  0.1427 -1.0002  0.7082
  163MOL   C10742551   1.341   7.153   3.640  0.2249 -0.5170 -0.3404
  163MOL   C10842552   1.475   7.147   3.623  0.1791 -0.6463  0.6998
  163MOL   C10942553   1.557   7.022   3.587  0.3204  0.7090 -0.2087
  163MOL   C11042554   1.560   7.269   3.623  0.0142 -0.0866  0.1665
  163MOL   H11142555   1.176   7.065   3.528  0.7008 -0.3131  0.4642
  163MOL   H11242556   1.312   6.959   3.575  0.1259 -0.2600 -1.1234
  163MOL   H11342557   1.295   7.248   3.660  0.8126 -0.5138  1.0729
  163MOL   H11442558   1.515   6.940   3.644 -0.7689  0.0776 -1.9003
  163MOL   H11542559   1.661   7.033   3.620  0.6886  1.3276 -1.5086
  163MOL   H11642560   1.551   6.992   3.482  1.2028 -1.7663  0.4044
  163MOL   H11742561   1.638   7.266   3.699  1.2338  2.1962 -0.9379
  163MOL   H11842562   1.497   7.352   3.654  1.3543  0.5421  1.2461
  163MOL   C11942563   1.626   7.297   3.489 -0.0992  0.2554 -0.0062
  163MOL   C12042564   1.712   7.424   3.499 -0.2450  0.2176  1.1468
  163MOL   C12142565   1.840   7.435   3.469  0.6624 -0.5703 -0.1083
  163MOL   C12242566   1.934   7.324   3.436  0.0400  0.1838  0.4834
  163MOL   C12342567   1.910   7.565   3.495 -0.1314  0.6513 -0.1495
  163MOL   H12442568   1.551   7.316   3.413 -0.5570 -1.1444  0.0749
  163MOL   H12542569   1.692   7.214   3.466  1.9603  1.8814 -0.0536
  163MOL   H12642570   1.664   7.519   3.516 -0.7771  0.3398 -0.8789
  163MOL   H12742571   1.967   7.284   3.532  2.0747  0.7305  0.0304
  163MOL   H12842572   2.018   7.349   3.372  0.4274  0.1890  0.9941
  163MOL   H12942573   1.881   7.252   3.374  0.8861  0.8579 -1.0584
  163MOL   H13042574   2.011   7.557   3.537 -0.3232 -2.7551 -0.2003
  163MOL   H13142575   1.864   7.636   3.563 -0.0681  1.2646 -0.7511
  163MOL   C13242576   1.940   7.640   3.361  0.3940 -0.7320 -0.1525
  163MOL   C13342577   1.846   7.755   3.323 -0.6276 -0.3430  0.1730
  163MOL   C13442578   1.771   7.755   3.215 -0.4966 -0.0965  0.0646
  163MOL   C13542579   1.757   7.638   3.123  0.4042 -0.4313  0.5266
  163MOL   C13642580   1.680   7.870   3.190  0.1918 -0.3571  0.5156
  163MOL   H13742581   1.966   7.575   3.278 -0.5058 -1.1237 -0.1317
  163MOL   H13842582   2.033   7.692   3.381 -0.0647 -1.0003  2.9360
  163MOL   H13942583   1.842   7.840   3.390  0.1496 -1.1331  1.2234
  163MOL   H14042584   1.830   7.636   3.042 -0.9826 -0.4352 -0.7397
  163MOL   H14142585   1.655   7.620   3.088  1.5831 -2.9321 -1.8473
  163MOL   H14242586   1.788   7.548   3.176  1.7346  0.3662  1.1126
  163MOL   H14342587   1.649   0.045   3.277 -0.7059 -1.7370  1.1227
  163MOL   H14442588   1.586   7.828   3.155 -0.4912 -0.6656  2.6934
  163MOL   C14542589   1.744   0.088   3.092 -0.1612 -0.3092  0.4512
  163MOL   C14642590   1.658   0.213   3.062  0.8567  0.1341  1.5061
  163MOL   C14742591   1.678   0.340   3.087 -0.5273 -0.0019 -1.3458
  163MOL   C14842592   1.821   0.396   3.137 -0.3384  0.1006 -0.9958
  163MOL   C14942593   1.577   0.448   3.069 -0.7020 -0.3423  0.2914
  163MOL   H15042594   1.757   0.047   2.992 -0.7065 -1.4887  0.8535
  163MOL   H15142595   1.843   0.115   3.128 -1.3357  2.0845  2.0560
  163MOL   H15242596   1.561   0.190   3.023 -0.3925  3.2168  2.6449
  163MOL   H15342597   1.897   0.321   3.158 -1.3185 -0.6118  0.0515
  163MOL   H15442598   1.798   0.465   3.219 -1.9683 -0.0293 -1.3157
  163MOL   H15542599   1.854   0.465   3.059  0.7926 -0.0218 -0.6191
  163MOL   H15642600   1.505   0.399   3.003  0.7102 -0.7803 -0.9355
  163MOL   H15742601   1.628   0.528   3.017 -0.6793 -0.3466  0.3069
  163MOL   C15842602   1.513   0.498   3.199  0.8142  0.2142  0.1406
  163MOL   C15942603   1.416   0.400   3.269 -0.2171 -0.1795 -0.1635
  163MOL   C16042604   1.306   0.428   3.340  0.0967  0.1056 -0.5491
  163MOL   C16142605   1.244   0.563   3.354  0.5496  0.0823 -0.1257
  163MOL   C16242606   1.231   0.327   3.421 -0.1608 -0.2382 -0.0794
  163MOL   H16342607   1.458   0.585   3.164 -1.0829 -0.3498  1.6086
  163MOL   H16442608   1.594   0.530   3.265 -0.1004  0.8262  0.9810
  163MOL   H16542609   1.458   0.300   3.273 -0.9292 -0.4558  0.7732
  163MOL   H16642610   1.235   0.592   3.458  1.3022 -2.5983  0.7271
  163MOL   H16742611   1.139   0.556   3.327 -0.3767 -0.1636  3.3533
  163MOL   H16842612   1.285   0.640   3.288 -1.2027  0.8735 -0.3150
  163MOL   H16942613   1.258   0.222   3.404  0.2130 -0.2673  0.6569
  163MOL   H17042614   1.123   0.332   3.412 -0.0581  0.7051 -0.7713
  163MOL   C17142615   1.277   0.350   3.567 -1.0515  0.3400  0.3555
  163MOL   C17242616   1.238   0.240   3.656  0.2091  0.2629 -0.4659
  163MOL   C17342617   1.308   0.197   3.762 -0.7322 -0.5749  0.5318
  163MOL   C17442618   1.456   0.227   3.785  0.6052  0.1527  0.1160
  163MOL   C17542619   1.242   0.125   3.873  0.7662 -0.3708 -0.4058
  163MOL   H17642620   1.251   0.448   3.606 -1.3034  0.8164 -0.9789
  163MOL   H17742621   1.386   0.357   3.555 -0.8619  0.3300  1.9901
  163MOL   H17842622   1.132   0.222   3.646  0.6436 -3.1529  0.3576
  163MOL   H17942623   1.508   0.139   3.822  1.6528  0.0412 -1.5761
  163MOL   H18042624   1.459   0.294   3.871  2.5121  0.1081  0.1118
  163MOL   H18142625   1.503   0.269   3.696  4.0531  1.3003  2.3510
  163MOL   H18242626   1.306   0.046   3.912  0.1575 -0.9469 -0.5611
  163MOL   H18342627   1.154   0.080   3.826  2.1398 -0.6540 -2.8487
  163MOL   C18442628   1.203   0.212   3.994  0.3812  0.9253  1.0495
  163MOL   C18542629   1.140   0.130   4.112 -0.6184 -0.1313 -0.6265
  163MOL   C18642630   1.026   0.156   4.179  0.3808 -0.1284  0.1289
  163MOL   C18742631   0.947   0.284   4.166  0.0903  0.0257  0.0413
  163MOL   C18842632   0.991   0.067   4.294  0.1423 -0.0606  0.0624
  163MOL   H18942633   1.126   0.281   3.960 -0.5501  0.5198  2.2868
  163MOL   H19042634   1.280   0.281   4.027  1.4508 -0.6972  2.0157
  163MOL   H19142635   1.198   0.045   4.145  1.0130  1.1847 -0.0713
  163MOL   H19242636   0.962   0.339   4.074 -2.3621  2.1691  0.8734
  163MOL   H19342637   0.964   0.359   4.243 -0.2219  1.5185 -1.3327
  163MOL   H19442638   0.846   0.249   4.185  0.5473 -0.7736  1.1017
  163MOL   H19542639   1.060   7.866   4.308 -0.7287 -1.1523 -1.8721
  163MOL   H19642640   0.896   0.016   4.278 -0.1466  0.8980 -1.4902
  163MOL   C19742641   0.997   0.160   4.422 -0.0775 -0.0392  0.8167
  163MOL   C19842642   0.974   0.079   4.552 -0.6343 -0.0569 -0.2784
  163MOL   C19942643   0.885   0.101   4.648  0.7986 -0.4569 -0.5321
  163MOL   C20042644   0.771   0.203   4.638 -0.5009 -0.6570 -0.1009
  163MOL   C20142645   0.865   0.015   4.769 -0.1411 -0.4877  0.2177
  163MOL   H20242646   0.918   0.235   4.423  0.0208  0.0576  1.8469
  163MOL   H20342647   1.096   0.204   4.423  0.0509 -0.2946 -0.5734
  163MOL   H20442648   1.044   7.880   4.569 -1.4599 -1.1529 -2.0406
  163MOL   H20542649   0.811   0.301   4.612  3.8063 -2.2202  0.3280
  163MOL   H20642650   0.732   0.221   4.738 -0.9265 -0.4755 -0.2973
  163MOL   H20742651   0.678   0.171   4.591 -0.8030 -0.3989  0.3141
  163MOL   H20842652   0.887   0.084   4.851  3.1698 -0.0303 -0.9765
  163MOL   H20942653   0.937   7.816   4.780  3.6317  2.3179 -2.2967
  163MOL   C21042654   0.717   7.854   4.793 -0.4284  0.1197  0.5654
  163MOL   C21142655   0.719   7.771   4.924 -0.1585 -0.1844  0.5913
  163MOL   C21242656   0.700   7.637   4.930  0.7005 -0.2778 -0.6209
  163MOL   C21342657   0.664   7.548   4.823  0.7285 -0.1881 -0.2217
  163MOL   C21442658   0.714   7.569   5.064  0.2617  0.3980  0.2062
  163MOL   H21542659   0.695   7.800   4.700 -0.5743  0.3706  0.4550
  163MOL   H21642660   0.644   0.051   4.804  0.0048  0.4839  0.8405
  163MOL   H21742661   0.736   7.821   5.018 -0.1038  3.6400 -1.3654
  163MOL   H21842662   0.633   7.586   4.726  0.1502 -1.1049 -0.4083
  163MOL   H21942663   0.582   7.483   4.856 -0.0419  1.2900  0.8485
  163MOL   H22042664   0.756   7.492   4.812  0.8596 -0.1367  0.5817
  163MOL   H22142665   0.790   7.620   5.123 -0.0312 -0.0552  0.9733
  163MOL   H22242666   0.769   7.475   5.056  0.2966  0.2931  1.6994
  163MOL   C22342667   0.578   7.550   5.144 -0.4893  0.3012  0.1765
  163MOL   C22442668   0.597   7.470   5.276 -0.3788 -0.3755  0.3234
  163MOL   C22542669   0.578   7.514   5.404  0.8005 -0.5124  0.8547
  163MOL   C22642670   0.525   7.649   5.429 -0.3438 -0.8539 -0.3111
  163MOL   C22742671   0.565   7.422   5.518  0.2965 -0.4403 -0.6535
  163MOL   H22842672   0.497   7.503   5.089  1.0775 -1.1010 -0.9721
  163MOL   H22942673   0.530   7.645   5.166 -0.1260  0.3540  0.7525
  163MOL   H23042674   0.628   7.367   5.266  0.2055 -0.3837  1.9743
  163MOL   H23142675   0.421   7.666   5.405  0.4426  1.1152 -2.4942
  163MOL   H23242676   0.586   7.731   5.391 -0.4600  0.2868  1.8809
  163MOL   H23342677   0.523   7.662   5.538 -2.0463 -2.4774 -0.1225
  163MOL   H23442678   0.612   7.471   5.603  0.1217 -0.9452 -0.2665
  163MOL   H23542679   0.627   7.336   5.496  0.2996 -0.5855 -0.0692
  163MOL   C23642680   0.425   7.372   5.562  0.0568  0.1153  0.2470
  163MOL   C23742681   0.433   7.285   5.685  0.3864  0.1333 -0.3105
  163MOL   C23842682   0.359   7.177   5.711 -0.1271  0.9902 -0.2440
  163MOL   C23942683   0.243   7.137   5.614  0.2803 -0.1453  0.0402
  163MOL   C24042684   0.372   7.095   5.840 -0.1250  0.4238 -0.2005
  163MOL   H24142685   0.399   7.310   5.476  0.5185 -0.3637  0.4478
  163MOL   H24242686   0.360   7.458   5.582  1.2809  1.3297 -0.8549
  163MOL   H24342687   0.507   7.319   5.756 -1.5857  0.9628  1.4292
  163MOL   H24442688   0.274   7.058   5.546  2.8259  1.4484 -0.7562
  163MOL   H24542689   0.220   7.219   5.545  1.4382  1.6784  1.7829
  163MOL   H24642690   0.150   7.101   5.657  0.7824  0.2044  1.4413
  163MOL   H24742691   0.343   6.995   5.808  1.1105 -0.5091  1.5370
  163MOL   H24842692   0.301   7.131   5.915 -0.7485 -1.7603  0.2896
  163MOL   C24942693   0.512   7.098   5.906 -0.1398 -0.2323  0.0682
  163MOL   C25042694   0.523   6.980   5.995  0.2493  1.0581  0.2016
  163MOL   C25142695   0.495   6.961   6.121  0.5392 -0.8519 -0.4414
  163MOL   C25242696   0.451   7.075   6.210 -0.4035 -0.3968  0.4026
  163MOL   C25342697   0.543   6.838   6.201 -0.8325 -0.3217  0.9412
  163MOL   H25442698   0.546   7.175   5.976  0.4485 -0.6844  0.2828
  163MOL   H25542699   0.584   7.104   5.824 -0.7690  0.2667 -0.4626
  163MOL   H25642700   0.551   6.887   5.947  0.9166  1.0470  0.6135
  163MOL   H25742701   0.429   7.162   6.149  1.9381 -1.2690 -1.7595
  163MOL   H25842702   0.531   7.105   6.278 -0.9107  2.6812 -0.2869
  163MOL   H25942703   0.362   7.041   6.263 -0.8117  1.5759  1.0041
  163MOL   H26042704   0.533   6.741   6.153 -1.7258 -0.1688  0.8131
  163MOL   H26142705   0.485   6.831   6.293 -0.8330  0.8532  1.0410
  163MOL   H26242706   0.650   6.846   6.223 -0.6681  0.1283  0.0337
  164MOL     C142707   6.580   6.205   0.682  0.0920 -0.2429  0.1178
  164MOL     C242708   6.447   6.267   0.635 -0.4125 -0.2849  0.8963
  164MOL     C342709   6.401   6.281   0.509  0.4666 -0.5315 -0.2142
  164MOL     C442710   6.466   6.226   0.392  0.4555  0.1454 -0.1467
  164MOL     C542711   6.270   6.355   0.483  0.3094  0.0930 -0.1024
  164MOL     H642712   6.646   6.292   0.674  1.2054 -0.9988  0.9749
  164MOL     H742713   6.566   6.185   0.788 -0.6292 -0.2425  0.0260
  164MOL     H842714   6.399   6.322   0.715 -1.2884 -0.6163  0.5920
  164MOL     H942715   6.426   6.127   0.369  1.4836 -0.7500  1.8269
  164MOL    H1042716   6.572   6.210   0.411 -0.0084 -2.6635  0.3939
  164MOL    H1142717   6.453   6.290   0.305 -0.9527 -0.7370 -0.6019
  164MOL    H1242718   6.288   6.454   0.441  0.3678  0.3494  0.5155
  164MOL    H1342719   6.220   6.369   0.579  1.0591  0.5290  0.2315
  164MOL    H1442720   6.619   6.121   0.625 -0.2101 -1.4270  1.6369
  164MOL    C1542721   6.172   6.284   0.387  0.5841 -0.2940  0.5774
  164MOL    C1642722   6.053   6.369   0.354 -0.0339  0.3851 -0.3636
  164MOL    C1742723   5.921   6.346   0.379  0.4910 -0.0840  0.3363
  164MOL    C1842724   5.869   6.223   0.465 -0.3401 -0.4220  0.8428
  164MOL    C1942725   5.813   6.450   0.344 -0.3548 -0.0916  0.2304
  164MOL    H2042726   6.139   6.189   0.430 -0.9854 -0.3935 -0.8343
  164MOL    H2142727   6.229   6.258   0.298 -2.5334 -1.5652 -1.0984
  164MOL    H2242728   6.083   6.456   0.296 -1.0632 -0.5779 -2.3859
  164MOL    H2342729   5.765   6.238   0.495 -0.9310 -2.8265  0.1613
  164MOL    H2442730   5.931   6.215   0.554 -1.4341 -3.0621  1.4373
  164MOL    H2542731   5.891   6.130   0.412 -1.2352 -0.1543 -0.0089
  164MOL    H2642732   5.873   6.536   0.316 -1.7605  1.5202  2.0675
  164MOL    H2742733   5.762   6.464   0.439  0.0237  0.0028  0.4193
  164MOL    C2842734   5.722   6.409   0.221  0.3542 -0.5273 -0.6499
  164MOL    C2942735   5.789   6.416   0.082 -0.2594 -0.9565 -0.2546
  164MOL    C3042736   5.816   6.308   0.007 -0.0789  0.1559 -0.0347
  164MOL    C3142737   5.804   6.162   0.058  0.1437  0.1338  0.2136
  164MOL    C3242738   5.882   6.316   7.754  0.1520  0.0379  0.1146
  164MOL    H3342739   5.635   6.475   0.221  1.0421  0.3964  0.1596
  164MOL    H3442740   5.675   6.314   0.244 -1.1499 -0.0412 -1.6026
  164MOL    H3542741   5.819   6.514   0.048  0.7246 -1.0187  0.4358
  164MOL    H3642742   5.843   6.146   0.159 -1.0112  1.7615  0.9404
  164MOL    H3742743   5.839   6.086   7.871 -0.6097  0.4165 -0.4708
  164MOL    H3842744   5.697   6.144   0.069  0.2017  0.1699  0.8300
  164MOL    H3942745   5.971   6.254   7.748  0.4356  0.3901  0.6882
  164MOL    H4042746   5.923   6.415   7.731  1.1192 -0.6133 -0.9970
  164MOL    C4142747   5.783   6.278   7.644  0.6239  0.8229  0.1387
  164MOL    C4242748   5.834   6.314   7.504 -0.7450  0.7021  0.5427
  164MOL    C4342749   5.890   6.225   7.422 -0.3842 -0.0609  0.6155
  164MOL    C4442750   5.916   6.083   7.471  0.7306  0.3215  0.4201
  164MOL    C4542751   5.926   6.261   7.275 -0.7737  0.7094  0.3012
  164MOL    H4642752   5.685   6.324   7.658  0.5031  0.4041  0.6523
  164MOL    H4742753   5.769   6.170   7.649  0.8600  0.8293  0.9402
  164MOL    H4842754   5.818   6.415   7.469 -0.8397  0.7217  0.6444
  164MOL    H4942755   5.972   6.020   7.403 -0.0245 -1.1850  1.1592
  164MOL    H5042756   5.818   6.038   7.485  0.5782  0.4391 -0.2593
  164MOL    H5142757   5.964   6.083   7.569 -0.4392  0.2147  1.0070
  164MOL    H5242758   6.010   6.195   7.254 -2.2115 -1.5275  1.3503
  164MOL    H5342759   5.972   6.359   7.268  1.4923 -0.3851 -0.8923
  164MOL    C5442760   5.813   6.241   7.176  0.4880  0.7713 -0.4593
  164MOL    C5542761   5.847   6.273   7.040  0.8981 -0.3530 -0.1506
  164MOL    C5642762   5.887   6.173   6.960 -0.7416  0.1281 -0.7372
  164MOL    C5742763   5.921   6.030   7.011  0.4169 -0.4166 -0.3714
  164MOL    C5842764   5.896   6.203   6.814  0.7994 -0.4641 -0.2058
  164MOL    H5942765   5.727   6.304   7.197 -1.0755 -2.0906  2.1991
  164MOL    H6042766   5.777   6.139   7.190 -0.4367  0.7640 -2.7440
  164MOL    H6142767   5.821   6.370   7.001 -0.4251 -0.6590 -0.0734
  164MOL    H6242768   5.949   6.021   7.116  0.8864  0.2982 -0.4307
  164MOL    H6342769   6.007   5.991   6.957  1.0769  1.1253 -0.4810
  164MOL    H6442770   5.835   5.964   7.004 -0.8267  0.9440  1.4729
  164MOL    H6542771   5.995   6.165   6.788 -0.5144 -4.1576 -0.1459
  164MOL    H6642772   5.870   6.307   6.795  2.9104  0.3792  1.3444
  164MOL    C6742773   5.796   6.122   6.731 -0.0285  0.2272 -0.3624
  164MOL    C6842774   5.811   6.172   6.595  0.3684 -0.5540 -0.2715
  164MOL    C6942775   5.868   6.107   6.494  0.1074  0.0986  0.2423
  164MOL    C7042776   5.943   5.972   6.499  0.0439 -0.6526 -0.1025
  164MOL    C7142777   5.865   6.162   6.350  0.6157  0.3077  0.5563
  164MOL    H7242778   5.698   6.145   6.772  0.0376  0.0210 -0.0891
  164MOL    H7342779   5.827   6.018   6.742  1.9844  0.5525 -2.4649
  164MOL    H7442780   5.777   6.272   6.574  0.9140 -0.0420  1.2751
  164MOL    H7542781   6.043   5.985   6.456 -1.2314  0.8305 -2.7048
  164MOL    H7642782   5.889   5.903   6.434  1.3914 -2.4929  0.6826
  164MOL    H7742783   5.955   5.948   6.605  1.2467 -1.0170 -0.3105
  164MOL    H7842784   5.964   6.137   6.309  0.0374  1.7001 -1.7936
  164MOL    H7942785   5.854   6.270   6.345  3.6947  0.6408 -0.3437
  164MOL    C8042786   5.757   6.092   6.270 -0.0816  0.1205 -0.1673
  164MOL    C8142787   5.767   6.142   6.125 -0.0124  0.6702 -0.6278
  164MOL    C8242788   5.823   6.076   6.024 -0.5385  0.1842  0.7611
  164MOL    C8342789   5.894   5.943   6.037 -0.2477  0.2904 -0.0594
  164MOL    C8442790   5.816   6.126   5.880 -0.2022  0.0161  0.2935
  164MOL    H8542791   5.665   6.114   6.325  1.0577 -1.0288  2.2887
  164MOL    H8642792   5.759   5.984   6.259  0.3462  0.1545 -0.4421
  164MOL    H8742793   5.714   6.234   6.104 -2.2844 -0.7989 -1.4490
  164MOL    H8842794   5.820   5.864   6.052  0.7745 -0.7492 -0.4468
  164MOL    H8942795   5.951   5.940   6.129 -0.9503 -2.3140  0.3247
  164MOL    H9042796   5.953   5.927   5.947 -0.2883 -1.6149  0.2486
  164MOL    H9142797   5.911   6.110   5.829  0.0926 -1.2110  1.1901
  164MOL    H9242798   5.789   6.231   5.875  0.6343  0.3834  2.5954
  164MOL    C9342799   5.716   6.045   5.798 -0.2392 -0.0439 -0.3016
  164MOL    C9442800   5.688   6.110   5.664  0.2393 -0.3389 -1.2582
  164MOL    C9542801   5.715   6.059   5.545 -0.5189 -0.1199  0.2980
  164MOL    C9642802   5.790   5.919   5.523 -0.1995  0.1108  0.1203
  164MOL    C9742803   5.682   6.143   5.419 -0.1491  0.1668 -0.1733
  164MOL    H9842804   5.628   6.040   5.862  0.0900  1.6183  0.2921
  164MOL    H9942805   5.752   5.944   5.778  0.6405 -0.0966  1.4832
  164MOL   H10042806   5.647   6.210   5.672  1.1757 -0.1413  1.6391
  164MOL   H10142807   5.897   5.926   5.543  0.1321 -0.3372 -1.4331
  164MOL   H10242808   5.775   5.869   5.428 -0.5164 -2.1618  1.3306
  164MOL   H10342809   5.764   5.834   5.586  0.0222  0.0447  0.1230
  164MOL   H10442810   5.769   6.139   5.352  0.2910 -2.3257  0.5026
  164MOL   H10542811   5.659   6.248   5.439  1.2932  0.3967  0.3667
  164MOL   C10642812   5.575   6.072   5.341  0.1770 -0.0311 -0.2666
  164MOL   C10742813   5.567   6.118   5.197  0.1964  0.3318 -0.2528
  164MOL   C10842814   5.534   6.043   5.088  1.0455  0.6542  0.6998
  164MOL   C10942815   5.494   5.896   5.078  0.2172  0.5712  0.7150
  164MOL   C11042816   5.514   6.109   4.952 -0.3362  0.3461  0.0758
  164MOL   H11142817   5.475   6.082   5.385  1.5411  1.6226  2.5612
  164MOL   H11242818   5.593   5.965   5.333  0.2926 -0.1171  1.1335
  164MOL   H11342819   5.577   6.226   5.194  2.1469  0.1393 -2.1108
  164MOL   H11442820   5.388   5.870   5.088 -0.1363 -0.0705 -3.6689
  164MOL   H11542821   5.552   5.843   5.154 -0.1854  1.7612  1.8714
  164MOL   H11642822   5.525   5.862   4.979 -0.4354 -2.3874  1.4722
  164MOL   H11742823   5.467   6.207   4.957  0.7071  0.7897  1.7267
  164MOL   H11842824   5.436   6.058   4.896  0.8635 -0.2742 -1.0395
  164MOL   C11942825   5.642   6.121   4.872 -0.3967  0.1881 -0.0988
  164MOL   C12042826   5.630   6.196   4.745  1.0350 -0.3354 -0.2290
  164MOL   C12142827   5.651   6.331   4.725 -0.4793  0.0705 -0.6913
  164MOL   C12242828   5.732   6.420   4.818  0.3879  0.2085 -0.1733
  164MOL   C12342829   5.626   6.392   4.587 -0.4800  0.4007 -0.6598
  164MOL   H12442830   5.691   6.025   4.855 -1.2153 -0.5270  1.4734
  164MOL   H12542831   5.707   6.175   4.940 -0.9608  0.2447  0.4082
  164MOL   H12642832   5.577   6.149   4.664  1.5831 -1.1569 -0.1109
  164MOL   H12742833   5.703   6.524   4.802  0.3259  0.2311  0.0904
  164MOL   H12842834   5.839   6.403   4.807  0.6566  0.0255  2.5195
  164MOL   H12942835   5.707   6.394   4.921 -0.1103 -1.2354 -0.6347
  164MOL   H13042836   5.580   6.491   4.600 -0.7359  0.3312 -1.0405
  164MOL   H13142837   5.555   6.326   4.537 -0.7490  0.4969 -0.4097
  164MOL   C13242838   5.747   6.400   4.498  1.0145  0.7085 -0.1253
  164MOL   C13342839   5.715   6.476   4.369  0.2811 -0.5952 -0.4892
  164MOL   C13442840   5.812   6.528   4.286  0.8868 -0.1073  0.5033
  164MOL   C13542841   5.961   6.521   4.310  0.3303 -0.1753  0.2360
  164MOL   C13642842   5.765   6.597   4.155  0.5687  0.6310  0.4279
  164MOL   H13742843   5.783   6.298   4.483 -2.6687 -0.7120  0.2228
  164MOL   H13842844   5.828   6.456   4.545  2.2370 -0.8560 -0.3247
  164MOL   H13942845   5.612   6.492   4.343  0.5558 -0.4072 -1.4809
  164MOL   H14042846   5.988   6.420   4.343 -0.8581 -1.3120 -2.1373
  164MOL   H14142847   6.009   6.601   4.367  1.8336  0.6938 -2.1923
  164MOL   H14242848   6.007   6.514   4.212 -1.0418  2.0901 -0.6090
  164MOL   H14342849   5.657   6.597   4.168  0.4957  1.5916 -0.1631
  164MOL   H14442850   5.779   6.542   4.062  0.5416 -1.3318  1.5626
  164MOL   C14542851   5.815   6.743   4.143  0.3872  0.1962 -0.7532
  164MOL   C14642852   5.756   6.799   4.019 -0.0685  0.0566  0.1920
  164MOL   C14742853   5.816   6.881   3.929 -0.1149 -0.4225 -0.1391
  164MOL   C14842854   5.960   6.931   3.944 -0.5279 -0.2072  0.5031
  164MOL   C14942855   5.736   6.936   3.812  0.5137  0.2833  0.1662
  164MOL   H15042856   5.923   6.739   4.134  0.3940 -0.7994 -0.3093
  164MOL   H15142857   5.797   6.804   4.231 -0.3466  1.3893 -1.7198
  164MOL   H15242858   5.652   6.775   3.998 -0.0919  0.1833  0.1673
  164MOL   H15342859   5.962   7.034   3.980  0.7238  0.0712 -0.3215
  164MOL   H15442860   6.004   6.934   3.844  2.5124  0.9459  1.8092
  164MOL   H15542861   6.030   6.867   3.999 -0.7437 -0.4265  0.5210
  164MOL   H15642862   5.638   6.890   3.804  1.0660 -0.8682 -0.0291
  164MOL   H15742863   5.780   6.888   3.725  0.6487 -0.1620  0.4771
  164MOL   C15842864   5.747   7.092   3.792 -0.4922 -0.0423  0.6378
  164MOL   C15942865   5.713   7.132   3.651  0.0290 -0.4663 -0.2385
  164MOL   C16042866   5.616   7.228   3.637 -0.1889 -0.1831 -0.1243
  164MOL   C16142867   5.539   7.297   3.749 -0.4011 -0.2813  0.2702
  164MOL   C16242868   5.567   7.268   3.500  0.3755  0.2655  0.3644
  164MOL   H16342869   5.846   7.135   3.803  0.7021 -2.3823 -0.5472
  164MOL   H16442870   5.691   7.147   3.867 -0.4051  0.5756  0.2542
  164MOL   H16542871   5.756   7.082   3.566 -0.3030  1.8855 -1.8354
  164MOL   H16642872   5.596   7.315   3.841 -2.2640 -0.0911  1.4114
  164MOL   H16742873   5.450   7.240   3.776 -0.2508  0.4815  2.5063
  164MOL   H16842874   5.513   7.394   3.706  3.4444 -0.0246 -1.6814
  164MOL   H16942875   5.459   7.260   3.495  0.2911  2.1154 -1.4120
  164MOL   H17042876   5.605   7.206   3.418 -0.5654  1.5241 -1.0469
  164MOL   C17142877   5.601   7.404   3.452  0.2156 -0.1963 -0.5153
  164MOL   C17242878   5.576   7.434   3.303 -0.9817  0.2816 -0.1143
  164MOL   C17342879   5.497   7.530   3.256  0.4796  0.4385 -0.1293
  164MOL   C17442880   5.417   7.621   3.341  0.6420  0.4455  0.1886
  164MOL   C17542881   5.479   7.567   3.104  0.0385  0.4054 -0.2689
  164MOL   H17642882   5.708   7.405   3.477 -0.4714 -2.0960  2.7364
  164MOL   H17742883   5.563   7.493   3.503  1.0720 -0.5397  0.7438
  164MOL   H17842884   5.632   7.368   3.238  0.1328  0.5352  0.5607
  164MOL   H17942885   5.330   7.656   3.285  0.3776 -0.9623 -0.3176
  164MOL   H18042886   5.474   7.700   3.389  0.3995  0.2616  0.7878
  164MOL   H18142887   5.362   7.559   3.413  0.6829  0.5123  0.2771
  164MOL   H18242888   5.539   7.657   3.096  0.2845  0.2394 -0.2843
  164MOL   H18342889   5.376   7.585   3.073 -0.6434  0.1820  1.7790
  164MOL   C18442890   5.542   7.471   3.002  0.3122  0.2604  0.0203
  164MOL   C18542891   5.530   7.512   2.853  0.9959  0.4285 -1.3560
  164MOL   C18642892   5.628   7.496   2.764 -0.1914 -0.1617 -0.4144
  164MOL   C18742893   5.773   7.447   2.787  0.6810 -0.3148 -0.4515
  164MOL   C18842894   5.617   7.544   2.623  0.6688  0.2839 -0.0327
  164MOL   H18942895   5.491   7.374   3.004  0.5385  0.1498  0.3951
  164MOL   H19042896   5.647   7.461   3.027  0.7438  2.3274 -0.8945
  164MOL   H19142897   5.437   7.561   2.829 -0.0368 -0.7614  0.1011
  164MOL   H19242898   5.804   7.424   2.889  1.0137  1.0283 -0.2375
  164MOL   H19342899   5.827   7.538   2.760 -0.2233  0.2560 -0.3463
  164MOL   H19442900   5.805   7.369   2.718  1.1165 -0.1968 -0.3856
  164MOL   H19542901   5.692   7.622   2.609  1.1910 -0.2809 -0.4068
  164MOL   H19642902   5.520   7.593   2.614  1.7273  2.3068 -0.8958
  164MOL   C19742903   5.626   7.435   2.513  0.8275 -0.4142 -0.0261
  164MOL   C19842904   5.605   7.490   2.375 -0.3296  0.3330 -0.0761
  164MOL   C19942905   5.578   7.419   2.268 -0.6333 -0.1185  0.0790
  164MOL   C20042906   5.563   7.272   2.271  0.4420  0.0763 -0.5728
  164MOL   C20142907   5.567   7.490   2.131  0.4709 -0.2160 -0.7687
  164MOL   H20242908   5.559   7.355   2.546 -0.4288  1.0627  1.0924
  164MOL   H20342909   5.728   7.397   2.510  0.5498 -1.2887  1.1188
  164MOL   H20442910   5.617   7.596   2.360 -0.0312  0.5008  1.3526
  164MOL   H20542911   5.475   7.243   2.214  0.9728  0.8492 -1.7946
  164MOL   H20642912   5.543   7.233   2.371  0.1981 -1.2154 -1.1096
  164MOL   H20742913   5.654   7.226   2.232  1.3067  0.6256  0.7742
  164MOL   H20842914   5.640   7.444   2.065 -0.2990 -2.6660  0.0506
  164MOL   H20942915   5.594   7.596   2.140  0.4753 -0.3556  1.1210
  164MOL   C21042916   5.426   7.483   2.070  0.4966  0.4662  0.1642
  164MOL   C21142917   5.411   7.359   1.979  0.5418 -0.0275 -0.5615
  164MOL   C21242918   5.304   7.276   1.982 -0.0809  0.7903 -0.1130
  164MOL   C21342919   5.193   7.283   2.078  0.5581  0.3114 -0.3144
  164MOL   C21442920   5.305   7.159   1.890  0.6891  0.2644  0.0446
  164MOL   H21542921   5.422   7.573   2.009  3.2388  0.2919 -0.3275
  164MOL   H21642922   5.344   7.488   2.142 -0.1593 -2.1457 -0.3541
  164MOL   H21742923   5.491   7.342   1.909  1.2214  0.8790 -0.0143
  164MOL   H21842924   5.108   7.233   2.029 -0.2325  0.2356  1.1026
  164MOL   H21942925   5.169   7.389   2.086  3.0744  1.2408 -3.8057
  164MOL   H22042926   5.222   7.240   2.174 -0.1480 -1.0673 -0.7015
  164MOL   H22142927   5.390   7.181   1.826  1.3871  1.9278  1.5274
  164MOL   H22242928   5.212   7.152   1.832  0.4155 -0.1851  0.5317
  164MOL   C22342929   5.330   7.028   1.969  0.4037  0.2476  0.2802
  164MOL   C22442930   5.370   6.923   1.877  0.5463  0.4986  0.0509
  164MOL   C22542931   5.282   6.829   1.831 -0.1393 -0.3690 -0.5061
  164MOL   C22642932   5.136   6.830   1.880 -0.8794  0.2689  0.4504
  164MOL   C22742933   5.321   6.735   1.721  0.2233  0.1207 -0.2351
  164MOL   H22842934   5.236   6.994   2.011 -0.5420 -1.4365 -3.0034
  164MOL   H22942935   5.406   7.024   2.047 -0.8404  2.0466  1.6359
  164MOL   H23042936   5.460   6.937   1.819 -0.2032  2.7641 -0.6275
  164MOL   H23142937   5.130   6.778   1.976 -2.1338  0.2390  0.3643
  164MOL   H23242938   5.074   6.765   1.817  1.3794 -0.5149 -1.0200
  164MOL   H23342939   5.092   6.929   1.891 -1.7752  0.3219 -2.9772
  164MOL   H23442940   5.409   6.777   1.671  0.5204  1.8230  1.6302
  164MOL   H23542941   5.245   6.736   1.642 -0.2485  0.8622  0.2197
  164MOL   C23642942   5.343   6.592   1.767 -0.2758 -0.1342  0.3486
  164MOL   C23742943   5.390   6.507   1.650 -0.3564 -0.2155  0.2248
  164MOL   C23842944   5.339   6.392   1.595 -0.5423 -0.0346  0.1878
  164MOL   C23942945   5.203   6.334   1.628  0.3188  0.1196 -0.2219
  164MOL   C24042946   5.396   6.305   1.485 -0.4468  0.4401  0.0939
  164MOL   H24142947   5.244   6.557   1.799 -0.0878 -0.4307  0.6082
  164MOL   H24242948   5.416   6.586   1.847 -0.8150  1.4429  0.9845
  164MOL   H24342949   5.484   6.534   1.603 -0.3693 -1.6022 -0.6177
  164MOL   H24442950   5.145   6.396   1.696 -0.9633  0.4265 -1.5726
  164MOL   H24542951   5.221   6.237   1.674  2.5001 -0.2920 -1.8258
  164MOL   H24642952   5.142   6.312   1.540 -0.7443  0.6834  0.3684
  164MOL   H24742953   5.486   6.354   1.448 -0.7150  0.1595 -0.9622
  164MOL   H24842954   5.334   6.308   1.395  2.8833  0.4773 -2.3068
  164MOL   C24942955   5.436   6.160   1.528 -0.0582 -0.3860 -0.3220
  164MOL   C25042956   5.507   6.100   1.407 -0.7489 -0.9517 -0.2423
  164MOL   C25142957   5.461   6.013   1.316 -0.2440  0.0396 -0.3047
  164MOL   C25242958   5.323   5.945   1.326  0.1073 -0.3758 -0.1440
  164MOL   C25342959   5.540   5.980   1.190  0.2241 -0.7823 -0.2586
  164MOL   H25442960   5.350   6.105   1.565  1.0633 -0.7339  1.8285
  164MOL   H25542961   5.493   6.161   1.621  1.2908  0.1956 -1.1376
  164MOL   H25642962   5.602   6.151   1.397 -0.6522 -0.7903  1.4003
  164MOL   H25742963   5.311   5.837   1.315 -1.5057 -0.1289 -0.8982
  164MOL   H25842964   5.255   5.989   1.253 -1.9278  0.6463  2.3061
  164MOL   H25942965   5.274   5.971   1.419 -2.0516 -0.8189 -1.1239
  164MOL   H26042966   5.619   6.053   1.173 -0.8710  0.1712 -1.3456
  164MOL   H26142967   5.474   5.981   1.103 -1.2707 -0.7080  0.8613
  164MOL   H26242968   5.585   5.881   1.199 -0.2806 -0.9676  0.2491
  165MOL     C142969   6.771   6.436   7.628 -0.3258  0.7228 -0.2260
  165MOL     C242970   6.797   6.321   7.534 -0.3113 -0.8591 -0.4501
  165MOL     C342971   6.903   6.241   7.525 -0.1755 -1.3647  0.2568
  165MOL     C442972   7.027   6.254   7.614 -0.1969  0.1645  0.3638
  165MOL     C542973   6.908   6.125   7.432  0.9365  0.7173 -0.1182
  165MOL     H642974   6.701   6.399   7.703  1.2012 -1.7181  0.0808
  165MOL     H742975   6.862   6.470   7.677 -1.3306  0.7022  1.6768
  165MOL     H842976   6.715   6.309   7.465 -0.7211  2.0673 -0.5093
  165MOL     H942977   7.120   6.269   7.560 -0.0825  0.1206  0.5466
  165MOL    H1042978   7.045   6.158   7.663 -0.9537  0.0055  0.3298
  165MOL    H1142979   7.026   6.330   7.692 -1.3757 -0.0789  0.6060
  165MOL    H1242980   7.007   6.121   7.386  0.8763  1.7907 -0.3533
  165MOL    H1342981   6.832   6.125   7.354  2.3976 -0.0332 -1.5801
  165MOL    H1442982   6.727   6.513   7.565 -0.5569 -0.3609 -1.4201
  165MOL    C1542983   6.887   5.988   7.502  0.3421  0.3572 -0.4827
  165MOL    C1642984   6.871   5.875   7.399 -0.1396 -0.2795  0.3086
  165MOL    C1742985   6.756   5.844   7.341  0.3967  0.9587 -0.2917
  165MOL    C1842986   6.632   5.924   7.363  0.3858  0.9973 -0.7521
  165MOL    C1942987   6.756   5.732   7.244  0.3795  0.1038 -0.3651
  165MOL    H2042988   6.811   5.999   7.579 -0.9052 -1.2330 -1.4404
  165MOL    H2142989   6.978   5.964   7.558  0.9997  2.4683 -0.6141
  165MOL    H2242990   6.962   5.819   7.383  0.5785  0.5185  1.4517
  165MOL    H2342991   6.554   5.857   7.398 -1.2272  2.2728 -1.8289
  165MOL    H2442992   6.599   5.974   7.272 -1.1211 -1.9712 -1.9085
  165MOL    H2542993   6.645   6.007   7.434 -0.9415 -0.2459  0.9871
  165MOL    H2642994   6.676   5.661   7.265  1.0197 -0.5967 -0.3041
  165MOL    H2742995   6.849   5.678   7.260  0.3905  0.1775 -0.1752
  165MOL    C2842996   6.751   5.784   7.106  0.4964 -0.5883 -0.6782
  165MOL    C2942997   6.889   5.791   7.042 -0.0354  0.5133  0.1401
  165MOL    C3042998   6.927   5.895   6.965  0.0618  0.3736  0.2394
  165MOL    C3142999   6.848   6.022   6.935  0.4202 -0.0136  0.5975
  165MOL    C3243000   7.063   5.899   6.897 -0.1975  0.3313 -0.0421
  165MOL    H3343001   6.701   5.880   7.098  0.8302 -0.2783  0.7793
  165MOL    H3443002   6.695   5.719   7.038 -0.2608  1.3331 -1.9292
  165MOL    H3543003   6.954   5.706   7.054 -0.3512  0.3797  0.9215
  165MOL    H3643004   6.740   6.004   6.938  0.2117  0.8887 -0.6036
  165MOL    H3743005   6.863   6.055   6.832 -0.0703 -2.8351 -0.4174
  165MOL    H3843006   6.874   6.102   7.004  0.2294  0.0040  0.6498
  165MOL    H3943007   7.050   5.909   6.790 -1.1198  0.6207  0.0940
  165MOL    H4043008   7.117   5.804   6.898  1.8665  1.4475 -1.5145
  165MOL    C4143009   7.148   6.010   6.949  0.5020  0.6562  0.1471
  165MOL    C4243010   7.281   6.015   6.883 -0.6537  0.0143 -0.0634
  165MOL    C4343011   7.325   6.105   6.789  0.1990  0.1391 -0.1604
  165MOL    C4443012   7.243   6.226   6.756 -0.0101  0.4710 -0.3298
  165MOL    C4543013   7.468   6.097   6.736 -0.8171  0.1413  0.1755
  165MOL    H4643014   7.159   5.989   7.056  1.1211  1.2514  0.2048
  165MOL    H4743015   7.089   6.101   6.935 -0.2924  0.0807 -0.2420
  165MOL    H4843016   7.347   5.933   6.906 -1.8416 -1.3619 -1.5310
  165MOL    H4943017   7.179   6.187   6.676  2.0486 -1.6438 -1.0050
  165MOL    H5043018   7.299   6.310   6.716  0.2859  1.1825  1.5429
  165MOL    H5143019   7.176   6.260   6.835 -0.1546 -0.7038  0.0677
  165MOL    H5243020   7.524   6.014   6.778 -2.0188 -0.5447  0.4347
  165MOL    H5343021   7.520   6.191   6.756  1.0417 -0.6296 -0.8747
  165MOL    C5443022   7.460   6.086   6.577 -0.0102  0.1823 -1.1957
  165MOL    C5543023   7.594   6.083   6.516  0.2441 -0.3041  0.4236
  165MOL    C5643024   7.617   6.113   6.389  0.0246  0.0431  0.0376
  165MOL    C5743025   7.510   6.159   6.286 -0.1790 -0.3572  0.0810
  165MOL    C5843026   7.760   6.116   6.338 -0.1092  0.5970  0.1646
  165MOL    H5943027   7.414   6.180   6.544  1.3749  0.9783 -0.8916
  165MOL    H6043028   7.397   6.007   6.536 -0.4883 -1.2057  2.1213
  165MOL    H6143029   7.673   6.043   6.578  1.9821 -1.4590 -2.4648
  165MOL    H6243030   7.486   6.080   6.214 -1.0568  0.6048 -0.7028
  165MOL    H6343031   7.547   6.248   6.235 -0.1922  0.9524  2.3192
  165MOL    H6443032   7.418   6.188   6.336  1.4190  1.7258  1.9319
  165MOL    H6543033   7.828   6.094   6.420  1.4087 -0.7411 -1.4295
  165MOL    H6643034   7.792   6.218   6.316  0.1755  1.3041  3.5410
  165MOL    C6743035   7.783   6.023   6.225 -0.3357  0.6771 -0.2218
  165MOL    C6843036   0.040   6.039   6.161 -0.1106  1.3854  0.2477
  165MOL    C6943037   0.067   6.035   6.029 -0.8424 -0.4140 -0.1832
  165MOL    C7043038   7.846   6.034   5.921 -0.5213  0.4164  0.1296
  165MOL    C7143039   0.213   6.059   5.990 -0.1812 -0.2116 -0.5265
  165MOL    H7243040   7.701   6.030   6.154 -1.7279  0.2611  1.3347
  165MOL    H7343041   7.764   5.922   6.259 -2.7621  1.1810 -0.0328
  165MOL    H7443042   0.118   6.052   6.235  0.5777 -2.4608  0.3319
  165MOL    H7543043   0.009   5.997   5.829 -0.8373 -2.2347  1.0023
  165MOL    H7643044   7.802   6.133   5.906 -0.0969  0.4634 -0.7858
  165MOL    H7743045   7.773   5.961   5.956  1.0043 -1.1298  0.1793
  165MOL    H7843046   0.234   5.991   5.908 -0.1258 -0.0022 -0.6862
  165MOL    H7943047   0.279   6.052   6.076  0.4288  2.7738 -0.6985
  165MOL    C8043048   0.227   6.202   5.939  0.8631 -0.5433 -0.0775
  165MOL    C8143049   0.372   6.223   5.908 -0.1017 -0.3520 -0.7690
  165MOL    C8243050   0.448   6.319   5.959  0.8152 -0.8088 -0.0516
  165MOL    C8343051   0.397   6.418   6.068 -0.6891  0.3052 -0.2447
  165MOL    C8443052   0.596   6.337   5.920  0.2005 -0.1886  0.1064
  165MOL    H8543053   0.180   6.275   6.005 -2.9185 -3.0627  0.1713
  165MOL    H8643054   0.175   6.213   5.844 -1.5379  0.7354  1.3478
  165MOL    H8743055   0.421   6.153   5.842 -0.9737 -0.5703 -1.1810
  165MOL    H8843056   0.364   6.364   6.156  2.6067 -3.3437 -1.1559
  165MOL    H8943057   0.309   6.465   6.022 -1.6314  0.5101  1.7058
  165MOL    H9043058   0.478   6.482   6.103  0.6737 -1.8092  0.5070
  165MOL    H9143059   0.639   6.246   5.878  0.4602  0.8185 -1.8391
  165MOL    H9243060   0.655   6.357   6.010 -0.0157  2.2775 -0.2533
  165MOL    C9343061   0.625   6.456   5.827  0.0765 -0.1283  0.0251
  165MOL    C9443062   0.767   6.499   5.823 -0.3990 -0.5836  0.4915
  165MOL    C9543063   0.858   6.489   5.727  0.7736  0.0082 -0.0276
  165MOL    C9643064   0.824   6.440   5.586  0.1127 -0.0148 -0.2166
  165MOL    C9743065   1.001   6.533   5.763  0.9631  0.2599 -0.8268
  165MOL    H9843066   0.576   6.552   5.842 -1.1919 -0.4728 -1.7114
  165MOL    H9943067   0.582   6.427   5.731  1.0510 -2.6402  0.3178
  165MOL   H10043068   0.799   6.541   5.918  0.0647  3.1154 -1.2137
  165MOL   H10143069   0.912   6.391   5.544 -0.3534  0.7011 -2.0908
  165MOL   H10243070   0.793   6.517   5.515  0.5943  1.6441  1.3492
  165MOL   H10343071   0.747   6.363   5.597  1.2299 -1.2383 -0.7709
  165MOL   H10443072   1.064   6.443   5.766 -0.5730 -0.8175 -0.0748
  165MOL   H10543073   1.005   6.577   5.863  1.9939  1.2168 -1.2833
  165MOL   C10643074   1.065   6.629   5.663  0.3973 -1.2233 -0.8323
  165MOL   C10743075   1.211   6.673   5.699  0.3097  0.0014 -1.2337
  165MOL   C10843076   1.327   6.648   5.629 -0.3222  0.4311  0.2522
  165MOL   C10943077   1.328   6.572   5.500 -0.6497 -0.0119 -0.2876
  165MOL   C11043078   1.454   6.703   5.689 -0.4323  0.7417  0.0282
  165MOL   H11143079   1.001   6.717   5.658 -1.1118 -2.3780 -2.3919
  165MOL   H11243080   1.048   6.586   5.564 -2.1208 -0.9455 -0.5642
  165MOL   H11343081   1.219   6.727   5.792  2.0325 -0.8906 -0.8327
  165MOL   H11443082   1.232   6.542   5.457 -0.3115 -1.6451  0.0299
  165MOL   H11543083   1.396   6.487   5.490 -2.0618 -0.9939 -1.8637
  165MOL   H11643084   1.365   6.629   5.415  1.0259 -0.9301 -0.1910
  165MOL   H11743085   1.440   6.778   5.767 -0.7543  2.1943 -1.3995
  165MOL   H11843086   1.511   6.735   5.602  2.0245 -1.0309  0.9327
  165MOL   C11943087   1.546   6.599   5.753  0.0952  0.1200 -0.3018
  165MOL   C12043088   1.685   6.644   5.781  0.8782  0.1105  0.1570
  165MOL   C12143089   1.729   6.677   5.901 -1.6038 -0.0221 -0.8530
  165MOL   C12243090   1.659   6.668   6.038 -0.0924 -0.4647  0.1496
  165MOL   C12343091   1.875   6.724   5.910  0.0713  0.9040 -0.5763
  165MOL   H12443092   1.563   6.508   5.696 -0.8356  0.1665 -0.6598
  165MOL   H12543093   1.505   6.578   5.852 -1.0609  1.7212 -0.4241
  165MOL   H12643094   1.758   6.649   5.701  0.1460  0.8462 -0.4790
  165MOL   H12743095   1.710   6.590   6.095 -0.6846 -0.0568  1.2395
  165MOL   H12843096   1.550   6.661   6.040 -0.2391  0.3051 -2.4709
  165MOL   H12943097   1.671   6.762   6.090 -1.2948 -0.4966  0.4885
  165MOL   H13043098   1.936   6.687   5.828  0.0402 -2.4830  0.8455
  165MOL   H13143099   1.921   6.691   6.003  1.2687 -1.1658 -1.8627
  165MOL   C13243100   1.882   6.872   5.909  0.7842 -0.1439  0.3103
  165MOL   C13343101   2.031   6.904   5.900 -0.7875 -0.5669  0.0963
  165MOL   C13443102   2.102   6.974   5.987 -0.1012  0.3920  0.4259
  165MOL   C13543103   2.035   7.036   6.107 -0.4404 -0.0374 -0.4914
  165MOL   C13643104   2.252   7.015   5.955  0.1425  0.4896  0.5668
  165MOL   H13743105   1.825   6.910   5.994  2.8224  0.0960  1.6116
  165MOL   H13843106   1.834   6.916   5.822  1.0284  2.5187  1.4567
  165MOL   H13943107   2.075   6.867   5.809  0.4856 -0.2459  0.5767
  165MOL   H14043108   2.079   7.127   6.148 -2.0948  0.8432 -0.6149
  165MOL   H14143109   2.015   6.969   6.191  0.5820  0.8984  0.5274
  165MOL   H14243110   1.938   7.075   6.077  0.0471  2.1934  0.6894
  165MOL   H14343111   2.308   7.023   6.048  0.1590 -0.0826  0.6078
  165MOL   H14443112   2.261   7.119   5.927 -1.7008 -0.3329 -3.3512
  165MOL   C14543113   2.345   6.907   5.887  0.8191 -0.0354  0.2681
  165MOL   C14643114   2.487   6.948   5.889  0.0148 -0.2155 -0.3103
  165MOL   C14743115   2.593   6.887   5.836 -0.1655 -0.4319 -0.1085
  165MOL   C14843116   2.585   6.749   5.770 -0.3129 -0.0037 -1.0524
  165MOL   C14943117   2.729   6.954   5.827 -0.0648  0.0075 -0.2478
  165MOL   H15043118   2.319   6.901   5.781 -1.5746 -1.9912  0.9171
  165MOL   H15143119   2.344   6.806   5.930 -0.5765 -0.1978 -0.1380
  165MOL   H15243120   2.523   7.037   5.937 -0.9858 -1.0627  2.1113
  165MOL   H15343121   2.483   6.711   5.759 -0.1818 -0.3871 -0.9307
  165MOL   H15443122   2.644   6.678   5.827 -1.8686  0.0723  0.7106
  165MOL   H15543123   2.618   6.752   5.667  0.5040 -0.2265 -0.7962
  165MOL   H15643124   2.717   7.059   5.799 -0.0855  0.2367  0.5929
  165MOL   H15743125   2.786   6.908   5.747 -1.3754  1.1147 -1.8555
  165MOL   C15843126   2.812   6.939   5.954 -0.4880  0.5057  0.0251
  165MOL   C15943127   2.939   7.016   5.938  0.1219 -0.0779  0.6700
  165MOL   C16043128   3.066   6.978   5.951 -0.6773  0.2996  0.3376
  165MOL   C16143129   3.110   6.832   5.986 -0.1947  0.0157 -0.1372
  165MOL   C16243130   3.182   7.081   5.952 -0.5765  0.1335 -0.3788
  165MOL   H16343131   2.825   6.831   5.964  1.7814  0.7034 -0.5479
  165MOL   H16443132   2.756   6.979   6.039 -2.4545 -0.7830 -0.6131
  165MOL   H16543133   2.923   7.121   5.918 -0.9163 -0.8223 -2.6372
  165MOL   H16643134   3.035   6.768   6.031 -2.5716 -0.5529 -4.6528
  165MOL   H16743135   3.201   6.820   6.046  0.2117 -3.4610 -1.3642
  165MOL   H16843136   3.152   6.785   5.898  2.3077  0.8071  0.5730
  165MOL   H16943137   3.238   7.079   6.045 -1.5313  2.7302  0.3120
  165MOL   H17043138   3.131   7.177   5.957 -1.2877 -0.1718 -1.4351
  165MOL   C17143139   3.285   7.075   5.830  0.4961 -0.0613 -0.4915
  165MOL   C17243140   3.407   6.989   5.841 -0.2478  0.1299 -0.7759
  165MOL   C17343141   3.533   7.037   5.839  1.0642  0.2761 -0.6068
  165MOL   C17443142   3.567   7.179   5.821  0.2025 -0.7095 -0.0913
  165MOL   C17543143   3.648   6.935   5.866 -0.2584 -0.2012 -0.0028
  165MOL   H17643144   3.311   7.179   5.810  1.3076 -0.5873 -2.2366
  165MOL   H17743145   3.236   7.047   5.736  0.4648 -0.8779 -0.2313
  165MOL   H17843146   3.395   6.883   5.858 -2.1218  0.6602  1.4871
  165MOL   H17943147   3.523   7.228   5.733 -0.6127  1.1871  1.3329
  165MOL   H18043148   3.675   7.179   5.814  0.1438 -0.3305 -1.1641
  165MOL   H18143149   3.528   7.244   5.899  0.2453 -1.8866  0.9228
  165MOL   H18243150   3.707   6.911   5.777  0.6867 -0.3475  0.6531
  165MOL   H18343151   3.602   6.840   5.894  2.4411 -1.3171  0.8076
  165MOL   C18443152   3.733   6.970   5.986  0.1816 -0.3714 -0.1698
  165MOL   C18543153   3.813   6.859   6.046  0.0724  0.1832 -0.1363
  165MOL   C18643154   3.945   6.869   6.090 -0.1269 -0.0976 -0.6135
  165MOL   C18743155   4.033   6.991   6.072  0.0654 -0.4228 -0.4684
  165MOL   C18843156   4.013   6.742   6.125  0.3579 -0.2866 -0.1347
  165MOL   H18943157   3.671   7.014   6.065  0.1159  1.2242 -1.0974
  165MOL   H19043158   3.798   7.052   5.957  0.1308 -1.1633 -2.5782
  165MOL   H19143159   3.753   6.769   6.054 -0.5016  0.8290  3.6107
  165MOL   H19243160   4.099   6.986   5.986  1.7558  2.0990  0.5894
  165MOL   H19343161   4.091   7.002   6.164  1.4629  0.7872 -1.4677
  165MOL   H19443162   3.974   7.083   6.066 -0.6154 -0.7566  0.7969
  165MOL   H19543163   3.945   6.661   6.151  1.1171 -0.5203  1.2024
  165MOL   H19643164   4.069   6.755   6.218  0.5828 -1.9307 -0.0234
  165MOL   C19743165   4.104   6.695   6.015 -0.3453  0.3711  0.5575
  165MOL   C19843166   4.171   6.560   6.047  0.2066 -0.0247 -0.4138
  165MOL   C19943167   4.176   6.445   5.984  0.2810  0.5904  0.1986
  165MOL   C20043168   4.098   6.406   5.860 -0.0531 -0.2005 -0.8650
  165MOL   C20143169   4.254   6.324   6.049 -0.4255  0.0176 -0.2127
  165MOL   H20243170   4.183   6.767   5.991 -1.5756  1.5791  0.1203
  165MOL   H20343171   4.048   6.685   5.922  0.6656  1.3428 -0.1682
  165MOL   H20443172   4.228   6.562   6.138 -0.9698 -0.7457  0.3433
  165MOL   H20543173   4.036   6.488   5.824  1.3255  1.4421  0.4084
  165MOL   H20643174   4.039   6.320   5.890  0.9974 -0.0842  1.6550
  165MOL   H20743175   4.180   6.376   5.795  2.0116  1.3167  0.9434
  165MOL   H20843176   4.186   6.239   6.055  0.9522 -1.2046 -1.3465
  165MOL   H20943177   4.281   6.339   6.153  0.4266 -2.0106 -0.1240
  165MOL   C21043178   4.388   6.281   5.971 -0.0118 -0.3237 -0.1024
  165MOL   C21143179   4.465   6.175   6.052  0.6543  0.0725  0.8522
  165MOL   C21243180   4.592   6.159   6.081  0.1379 -0.4156  0.9962
  165MOL   C21343181   4.711   6.249   6.040 -0.8068 -0.2503  0.3918
  165MOL   C21443182   4.635   6.038   6.167  0.1901  0.7266 -0.1520
  165MOL   H21543183   4.452   6.368   5.956  1.5640 -1.6380 -1.1839
  165MOL   H21643184   4.360   6.246   5.872 -0.4482  0.7285 -0.3630
  165MOL   H21743185   4.394   6.104   6.093 -0.6649 -0.2599 -1.9394
  165MOL   H21843186   4.744   6.205   5.945 -1.1001  2.6513 -1.1217
  165MOL   H21943187   4.785   6.263   6.118 -0.5901  1.7708 -0.1508
  165MOL   H22043188   4.665   6.344   6.013  0.8632  0.4729  0.0454
  165MOL   H22143189   4.543   5.982   6.181  1.4167 -0.7378  2.4140
  165MOL   H22243190   4.668   6.078   6.263  1.9508  2.5287 -1.4756
  165MOL   C22343191   4.726   5.936   6.093  0.5503 -0.6057 -0.1030
  165MOL   C22443192   4.682   5.904   5.954 -0.0964 -0.2251 -0.5621
  165MOL   C22543193   4.621   5.796   5.913  0.1752 -0.0237 -0.2535
  165MOL   C22643194   4.580   5.676   6.003 -0.0372  0.0266 -0.1039
  165MOL   C22743195   4.588   5.790   5.761 -0.3150  0.0372 -0.2118
  165MOL   H22843196   4.728   5.846   6.155  0.7775  0.6049  1.6794
  165MOL   H22943197   4.824   5.982   6.091 -1.1237  3.1583  0.3752
  165MOL   H23043198   4.700   5.982   5.881  1.9634 -0.1022  0.0508
  165MOL   H23143199   4.655   5.598   5.996 -1.9077 -1.7479 -0.8138
  165MOL   H23243200   4.485   5.631   5.974  0.3059  0.3047 -1.7303
  165MOL   H23343201   4.570   5.705   6.107 -0.0826  0.0923 -0.1269
  165MOL   H23443202   4.648   5.710   5.717 -0.9673 -1.0556  0.8387
  165MOL   H23543203   4.618   5.886   5.720  1.8933 -0.1692  0.8255
  165MOL   C23643204   4.438   5.769   5.740  0.3670 -0.3300 -0.4242
  165MOL   C23743205   4.344   5.858   5.820 -0.3748  0.4809 -0.6400
  165MOL   C23843206   4.241   5.827   5.891 -0.9413  0.1695 -0.1597
  165MOL   C23943207   4.186   5.687   5.877  0.4647  0.0518 -0.1101
  165MOL   C24043208   4.162   5.931   5.960  0.9512 -0.2275  0.1143
  165MOL   H24143209   4.429   5.668   5.780  1.5684 -0.5156 -0.6099
  165MOL   H24243210   4.418   5.763   5.633  1.0628 -1.4735 -0.4965
  165MOL   H24343211   4.366   5.964   5.818  0.5978  0.2739 -2.6823
  165MOL   H24443212   4.192   5.625   5.966  1.2950  0.5141  0.1572
  165MOL   H24543213   4.222   5.616   5.802  0.4151  1.0963 -1.1264
  165MOL   H24643214   4.079   5.700   5.863 -0.3434 -2.8853  2.6697
  165MOL   H24743215   4.061   5.940   5.920  1.1853 -1.7722 -0.8661
  165MOL   H24843216   4.200   6.029   5.930  0.6468  0.1151  0.8268
  165MOL   C24943217   4.157   5.917   6.119 -0.4053 -0.0146  0.3244
  165MOL   C25043218   4.092   6.033   6.190 -0.0768 -0.6558  0.2217
  165MOL   C25143219   4.144   6.089   6.303  0.3764 -0.4402 -0.6703
  165MOL   C25243220   4.261   6.029   6.380  0.4713 -0.3847 -0.8623
  165MOL   C25343221   4.079   6.217   6.363 -0.1602 -0.0608  0.0036
  165MOL   H25443222   4.262   5.912   6.148 -0.8207 -1.3964  1.6454
  165MOL   H25543223   4.101   5.830   6.153  0.2262  0.3235  2.2756
  165MOL   H25643224   4.000   6.072   6.150 -0.6123 -1.2943  0.8340
  165MOL   H25743225   4.356   6.073   6.348  0.1749  1.6844  0.9627
  165MOL   H25843226   4.276   5.922   6.371  0.4573 -0.5067  0.4636
  165MOL   H25943227   4.234   6.064   6.480 -3.7895 -0.9680 -1.7252
  165MOL   H26043228   4.067   6.208   6.471  4.1418  1.5234  0.7090
  165MOL   H26143229   3.981   6.245   6.323 -0.6154 -0.2459  0.9591
  165MOL   H26243230   4.143   6.305   6.350  1.5216 -0.9993  1.7586
  166MOL     C143231   5.515   7.409   0.519 -0.2558 -0.1034 -0.6376
  166MOL     C243232   5.586   7.427   0.386  0.0132 -0.1456  0.4398
  166MOL     C343233   5.549   7.379   0.269  0.4163  0.0523 -0.5682
  166MOL     C443234   5.435   7.283   0.256  0.1852  0.8936 -0.5177
  166MOL     C543235   5.620   7.415   0.141  0.5337  0.8182  0.0120
  166MOL     H643236   5.568   7.337   0.580 -0.3144  0.8128  0.5145
  166MOL     H743237   5.513   7.499   0.581  1.1874  0.7000 -1.7331
  166MOL     H843238   5.666   7.499   0.382  1.1148 -1.3752 -0.6599
  166MOL     H943239   5.408   7.221   0.342  0.4639  0.4731 -0.7303
  166MOL    H1043240   5.432   7.219   0.168  1.6181  0.1588 -0.0528
  166MOL    H1143241   5.353   7.355   0.250 -0.2733  0.5200  1.0267
  166MOL    H1243242   5.676   7.506   0.163  1.9349  0.1445 -0.6413
  166MOL    H1343243   5.537   7.440   0.075  1.5079  1.7584 -0.8903
  166MOL    H1443244   5.410   7.384   0.499 -0.8367  2.4485 -0.9995
  166MOL    C1543245   5.694   7.301   0.079 -0.4195 -0.1531 -0.5486
  166MOL    C1643246   5.761   7.327   7.831 -0.4158 -0.3600  0.7631
  166MOL    C1743247   5.742   7.277   7.707  0.2052  0.3926 -0.0592
  166MOL    C1843248   5.654   7.161   7.674  0.2654  0.7438  0.5077
  166MOL    C1943249   5.822   7.325   7.584  0.2107  0.0512 -0.7582
  166MOL    H2043250   5.630   7.213   0.072  0.3743 -1.2264  4.1277
  166MOL    H2143251   5.770   7.261   0.147  0.3130  0.4408 -1.0064
  166MOL    H2243252   5.831   7.407   7.850  1.2053 -1.1122 -1.8067
  166MOL    H2343253   5.718   7.073   7.665 -0.5865  0.0489  1.1221
  166MOL    H2443254   5.609   7.174   7.575  2.2349  0.4801 -0.4440
  166MOL    H2543255   5.584   7.133   7.753  2.0715 -1.7593  1.2986
  166MOL    H2643256   5.860   7.234   7.537  1.4162  1.2853 -2.2583
  166MOL    H2743257   5.906   7.382   7.626  0.5250 -0.3475 -0.8436
  166MOL    C2843258   5.747   7.409   7.494  0.9091  0.4894 -0.0013
  166MOL    C2943259   5.846   7.479   7.409 -0.2392  0.5246 -0.7726
  166MOL    C3043260   5.907   7.599   7.426 -0.0403  0.2648  0.2971
  166MOL    C3143261   5.893   7.692   7.551 -0.7078 -0.3042  0.2924
  166MOL    C3243262   6.002   7.661   7.321  0.5152 -0.1348 -0.3372
  166MOL    H3343263   5.702   7.488   7.554  3.3580 -0.1117  2.7436
  166MOL    H3443264   5.672   7.361   7.431 -0.3429  1.6159  0.6108
  166MOL    H3543265   5.869   7.415   7.325  0.6326 -0.3908  0.1428
  166MOL    H3643266   5.827   7.775   7.530 -0.2733  0.2021  0.9302
  166MOL    H3743267   5.995   7.712   7.585 -0.5054  0.0981 -0.5280
  166MOL    H3843268   5.838   7.646   7.633  1.0499  1.9384  2.7831
  166MOL    H3943269   6.029   7.580   7.253 -1.1775  0.1644 -1.4189
  166MOL    H4043270   6.089   7.690   7.379 -1.0672 -0.8068  2.4506
  166MOL    C4143271   5.937   7.775   7.244  0.2293  0.5210  0.9035
  166MOL    C4243272   6.041   7.842   7.160  0.4603  0.3793  0.8893
  166MOL    C4343273   6.100   0.073   7.200 -0.0729 -0.3455 -0.4373
  166MOL    C4443274   6.073   0.151   7.327 -0.0541 -0.5235 -0.0711
  166MOL    C4543275   6.221   0.131   7.125 -0.1872 -0.7462 -0.2368
  166MOL    H4643276   5.889   7.843   7.314 -0.4367  0.7170  0.2697
  166MOL    H4743277   5.858   7.731   7.183  0.2628 -1.0807  1.9971
  166MOL    H4843278   6.074   7.791   7.071  0.0435  1.6495 -0.0069
  166MOL    H4943279   6.006   0.106   7.399 -3.1236  3.1868 -0.4257
  166MOL    H5043280   6.020   0.241   7.297  2.3629  0.5458 -1.2934
  166MOL    H5143281   6.168   0.163   7.379 -0.0149 -3.2723  0.5144
  166MOL    H5243282   6.309   0.083   7.167  1.6559  2.0646 -0.7951
  166MOL    H5343283   6.250   0.235   7.134  0.8008 -1.1173  0.9797
  166MOL    C5443284   6.213   0.104   6.971 -0.3885  0.0059 -0.2758
  166MOL    C5543285   6.331   0.176   6.905 -0.4582  0.7315 -0.6993
  166MOL    C5643286   6.317   0.283   6.826 -0.1561 -0.6160 -0.0955
  166MOL    C5743287   6.178   0.339   6.788 -0.1648 -0.3062  0.4918
  166MOL    C5843288   6.439   0.354   6.767 -0.5971 -0.2856 -0.9600
  166MOL    H5943289   6.118   0.146   6.940  0.0996  0.3999 -1.2276
  166MOL    H6043290   6.207   7.879   6.953  2.1533 -0.5452  1.8565
  166MOL    H6143291   6.428   0.144   6.940  0.6658  3.6651 -1.0327
  166MOL    H6243292   6.204   0.427   6.731  1.1453  0.6779  2.5495
  166MOL    H6343293   6.126   0.359   6.882  2.9425 -0.6113  2.3656
  166MOL    H6443294   6.127   0.274   6.716  2.5276 -1.2598 -0.6286
  166MOL    H6543295   6.528   0.322   6.822  0.7498  3.0451 -1.0938
  166MOL    H6643296   6.433   0.460   6.789 -0.8728 -0.5557  0.3617
  166MOL    C6743297   6.458   0.345   6.617  0.4971 -0.3414 -0.6020
  166MOL    C6843298   6.474   0.205   6.563 -0.0860  0.7427 -0.1710
  166MOL    C6943299   6.519   0.163   6.442 -0.1648  0.7436 -0.0810
  166MOL    C7043300   6.562   0.260   6.331 -0.3593 -0.6422  0.1418
  166MOL    C7143301   6.518   0.016   6.401 -0.2508 -0.1060  0.1627
  166MOL    H7243302   6.542   0.412   6.597  1.0720 -0.3690  1.5904
  166MOL    H7343303   6.375   0.383   6.557  0.0569 -0.4106 -0.0305
  166MOL    H7443304   6.456   0.123   6.632 -1.0356 -1.8024 -3.3153
  166MOL    H7543305   6.589   0.356   6.374 -1.7639 -0.8793  1.5982
  166MOL    H7643306   6.499   0.261   6.242 -0.0883 -0.5751 -0.0482
  166MOL    H7743307   6.658   0.225   6.293 -0.5672  0.3421 -1.3093
  166MOL    H7843308   6.439   7.875   6.329 -0.9217  0.7669  0.6023
  166MOL    H7943309   6.502   7.837   6.489 -1.7878 -0.2988 -0.2278
  166MOL    C8043310   6.651   7.838   6.341  0.7268 -0.4515  0.9414
  166MOL    C8143311   6.632   7.688   6.322  0.0622  0.0787 -0.0477
  166MOL    C8243312   6.560   7.638   6.223  0.0337  0.1240 -0.3345
  166MOL    C8343313   6.506   7.712   6.102  0.5672 -0.0690 -0.1777
  166MOL    C8443314   6.544   7.492   6.215  0.0309  0.3059 -0.6305
  166MOL    H8543315   6.740   7.858   6.401  1.0349 -2.3565  1.1532
  166MOL    H8643316   6.679   0.006   6.249 -0.4371  0.7991  1.2644
  166MOL    H8743317   6.673   7.618   6.393  3.1210  0.1827 -1.6356
  166MOL    H8843318   6.575   7.714   6.018 -2.2211  1.8723 -2.5349
  166MOL    H8943319   6.500   7.819   6.127  1.3220 -0.5020  1.9833
  166MOL    H9043320   6.408   7.671   6.079  1.0142 -0.4303 -1.4415
  166MOL    H9143321   6.437   7.475   6.227  0.1787 -1.5684 -1.7560
  166MOL    H9243322   6.592   7.441   6.298 -0.8801  1.1053  0.4014
  166MOL    C9343323   6.602   7.420   6.088 -0.3595  0.7529  0.3335
  166MOL    C9443324   6.536   7.300   6.048  0.2075 -0.5226  0.2547
  166MOL    C9543325   6.583   7.173   6.035  0.2305 -0.2796  0.1710
  166MOL    C9643326   6.731   7.140   6.045 -0.5048 -0.1638 -0.3501
  166MOL    C9743327   6.500   7.060   6.003  0.1445  0.4687 -0.0536
  166MOL    H9843328   6.707   7.407   6.111 -0.2869  0.1197 -0.3781
  166MOL    H9943329   6.603   7.487   6.002  0.1893  0.1460 -0.1280
  166MOL   H10043330   6.429   7.309   6.037  0.2922  0.6713  0.3425
  166MOL   H10143331   6.775   7.084   5.962  1.4637  2.4011 -1.0935
  166MOL   H10243332   6.755   7.091   6.139  1.0933  0.1739 -0.5747
  166MOL   H10343333   6.798   7.224   6.033 -3.6564  2.1970 -2.4158
  166MOL   H10443334   6.397   7.094   5.996 -0.8435 -2.1329  1.2075
  166MOL   H10543335   6.493   6.993   6.088  1.4659  1.1961  0.6383
  166MOL   C10643336   6.536   6.997   5.865 -0.5403 -0.7808  0.5987
  166MOL   C10743337   6.422   6.905   5.814 -0.5736  0.9021  0.4273
  166MOL   C10843338   6.369   6.889   5.689 -0.1221 -0.7793  0.3199
  166MOL   C10943339   6.401   6.983   5.579 -0.1626 -0.7861  1.0860
  166MOL   C11043340   6.256   6.790   5.666  0.1202 -0.7629  0.2715
  166MOL   H11143341   6.629   6.941   5.873  0.3885  0.6448  0.0981
  166MOL   H11243342   6.549   7.078   5.793 -1.3826 -1.1121  0.0717
  166MOL   H11343343   6.377   6.838   5.886  0.0329 -0.8476 -0.7666
  166MOL   H11443344   6.493   7.040   5.589 -0.0086 -0.4673 -1.5634
  166MOL   H11543345   6.318   7.035   5.531  1.1470 -2.7244 -3.6499
  166MOL   H11643346   6.429   6.912   5.501  1.1388  0.8751  0.0055
  166MOL   H11743347   6.228   6.743   5.760  0.5318 -1.0212  0.2658
  166MOL   H11843348   6.294   6.711   5.601 -0.0609 -0.1488 -0.5897
  166MOL   C11943349   6.132   6.865   5.605  0.8435 -0.0926  0.5004
  166MOL   C12043350   6.012   6.766   5.599 -0.2184  0.9100 -0.0777
  166MOL   C12143351   5.897   6.775   5.670  0.2571  0.3469  0.0857
  166MOL   C12243352   5.873   6.893   5.761 -0.4929 -0.1251  0.4914
  166MOL   C12343353   5.769   6.697   5.655  0.7203  0.1755  0.0327
  166MOL   H12443354   6.148   6.908   5.506 -0.5235 -0.9640 -0.1308
  166MOL   H12543355   6.114   6.950   5.670 -1.5202 -2.1323  2.6301
  166MOL   H12643356   6.016   6.683   5.531  1.5549  2.0645 -1.4153
  166MOL   H12743357   5.793   6.878   5.834 -0.3727  3.6957  1.5086
  166MOL   H12843358   5.848   6.984   5.708 -2.8658 -1.1847 -0.2924
  166MOL   H12943359   5.965   6.902   5.818 -0.9101  0.1171  1.1313
  166MOL   H13043360   5.763   6.655   5.555 -0.8307 -1.4402  0.7768
  166MOL   H13143361   5.687   6.767   5.675  0.3004 -0.2164 -0.3094
  166MOL   C13243362   5.760   6.568   5.742  0.0836  0.4294 -0.8653
  166MOL   C13343363   5.702   6.604   5.873  0.8225 -0.3612  0.5993
  166MOL   C13443364   5.762   6.591   5.996 -0.1563  0.2676 -0.4618
  166MOL   C13543365   5.900   6.527   6.015 -0.0700  0.3099 -0.5536
  166MOL   C13643366   5.684   6.632   6.128  0.8162 -0.0715  0.3117
  166MOL   H13743367   5.850   6.508   5.749  0.3967  1.0501  0.5069
  166MOL   H13843368   5.689   6.500   5.693 -0.7187 -0.6265  1.6692
  166MOL   H13943369   5.603   6.649   5.876  0.6102 -0.9100  1.8359
  166MOL   H14043370   5.963   6.522   5.927  1.0033  4.6487 -0.1915
  166MOL   H14143371   5.887   6.427   6.056  1.9490  1.0562  2.0493
  166MOL   H14243372   5.957   6.584   6.089 -0.7212  0.3628 -0.0819
  166MOL   H14343373   5.585   6.670   6.100  1.7226  0.7740 -1.8061
  166MOL   H14443374   5.737   6.719   6.168  1.4386 -1.5164  2.7046
  166MOL   C14543375   5.658   6.522   6.231  0.2489 -0.0311 -0.8673
  166MOL   C14643376   5.670   6.580   6.371  0.0305 -0.1583  0.1820
  166MOL   C14743377   5.783   6.598   6.439 -0.4230  0.7112  0.2326
  166MOL   C14843378   5.918   6.577   6.372  0.3311 -0.5268  0.3977
  166MOL   C14943379   5.785   6.664   6.571  0.1914 -0.2152 -0.2041
  166MOL   H15043380   5.720   6.434   6.216  1.6090  0.6810  0.4371
  166MOL   H15143381   5.556   6.486   6.228  0.1394  0.1335  0.6472
  166MOL   H15243382   5.577   6.595   6.424  0.2677  1.4231  0.1496
  166MOL   H15343383   5.967   6.544   6.464 -1.2542  0.2869  1.5638
  166MOL   H15443384   5.964   6.668   6.336  0.4371  0.0988  2.0544
  166MOL   H15543385   5.925   6.491   6.305  1.5788 -0.7927  0.8660
  166MOL   H15643386   5.694   6.722   6.587 -0.6276 -2.1207  2.4680
  166MOL   H15743387   5.871   6.731   6.572 -0.2107  0.3109 -0.8959
  166MOL   C15843388   5.794   6.560   6.683 -0.0108  0.5522  0.7224
  166MOL   C15943389   5.798   6.629   6.817  0.6300 -0.0249  0.5751
  166MOL   C16043390   5.903   6.630   6.908  0.2625  0.5135  0.5056
  166MOL   C16143391   6.028   6.550   6.901 -0.0575 -0.0596  0.1372
  166MOL   C16243392   5.881   6.711   7.034 -0.5635 -0.7522 -0.2491
  166MOL   H16343393   5.885   6.502   6.668 -1.0113 -0.9431  0.3244
  166MOL   H16443394   5.712   6.488   6.689  0.1505  0.2806 -0.3537
  166MOL   H16543395   5.705   6.682   6.835  1.9863  1.6227  3.1002
  166MOL   H16643396   6.072   6.542   6.801 -0.5624 -0.5842 -0.0491
  166MOL   H16743397   6.029   6.449   6.943 -1.3121 -0.3304 -0.4581
  166MOL   H16843398   6.109   6.599   6.954 -0.2775 -1.2133  1.5711
  166MOL   H16943399   5.792   6.774   7.028 -0.2282 -0.0998  1.2983
  166MOL   H17043400   5.956   6.790   7.032 -0.0656 -1.1302  1.8340
  166MOL   C17143401   5.863   6.635   7.165 -0.7998 -0.4600 -0.1320
  166MOL   C17243402   5.860   6.742   7.278 -0.0968  0.2508  0.6237
  166MOL   C17343403   5.955   6.762   7.372  0.6720 -0.0446 -0.7527
  166MOL   C17443404   6.093   6.698   7.391  0.5732 -0.2284  0.0905
  166MOL   C17543405   5.917   6.856   7.480 -0.1337 -0.2012 -0.1453
  166MOL   H17643406   5.958   6.583   7.173 -1.1033 -1.3325 -1.8789
  166MOL   H17743407   5.783   6.563   7.181 -1.2350  0.0072 -0.2163
  166MOL   H17843408   5.766   6.796   7.281  0.9108  2.0408  0.5023
  166MOL   H17943409   6.082   6.623   7.469  0.7632 -0.7243 -0.3590
  166MOL   H18043410   6.182   6.757   7.412  0.6131 -1.1274  2.5258
  166MOL   H18143411   6.116   6.646   7.298 -2.4157  0.6683 -1.2200
  166MOL   H18243412   5.844   6.927   7.441  0.4447  1.8529  2.3828
  166MOL   H18343413   6.005   6.919   7.495  0.0823 -0.7393  0.9057
  166MOL   C18443414   5.873   6.767   7.604 -0.1112 -0.5271  0.0085
  166MOL   C18543415   5.845   6.852   7.721  0.3006 -0.3311  0.4516
  166MOL   C18643416   5.747   6.836   7.810  0.5098 -0.6679 -0.2289
  166MOL   C18743417   5.632   6.734   7.798  0.0530 -0.8367  0.0953
  166MOL   C18843418   5.739   6.932   0.047 -1.0085  0.1092  0.1762
  166MOL   H18943419   5.946   6.703   7.653 -0.0027  0.0140  0.5684
  166MOL   H19043420   5.796   6.694   7.576  0.0062 -0.4427 -0.5388
  166MOL   H19143421   5.913   6.936   7.727 -2.0731  1.6639  0.6373
  166MOL   H19243422   5.630   6.661   7.879 -0.2907  1.0518  1.8513
  166MOL   H19343423   5.619   6.680   7.705 -1.1216 -1.3650  0.5522
  166MOL   H19443424   5.539   6.788   7.818  0.3905  0.0122 -0.5981
  166MOL   H19543425   5.649   6.993   0.041 -0.4394  0.8862 -0.7486
  166MOL   H19643426   5.815   7.010   0.042 -0.0239 -0.6032  3.2024
  166MOL   C19743427   5.747   6.856   0.177 -0.4677  0.3511  0.0647
  166MOL   C19843428   5.784   6.943   0.296 -0.0927  0.0805  0.9061
  166MOL   C19943429   5.877   6.919   0.391 -0.5484  0.1653  0.5683
  166MOL   C20043430   5.963   6.795   0.394  0.4301  0.5234  0.5853
  166MOL   C20143431   5.910   7.016   0.509  0.8029 -0.4254 -0.2474
  166MOL   H20243432   5.825   6.781   0.165 -0.6526  0.1898 -0.1350
  166MOL   H20343433   5.658   6.794   0.193 -0.6795  0.9153  1.1357
  166MOL   H20443434   5.737   7.041   0.291  0.2288  0.2008  0.0852
  166MOL   H20543435   5.978   6.754   0.294 -0.6333 -0.3682  0.7892
  166MOL   H20643436   5.913   6.722   0.457  1.3118  0.0873  0.7919
  166MOL   H20743437   6.058   6.808   0.446  0.4955  1.4234  0.2599
  166MOL   H20843438   6.014   6.998   0.538  0.0456  1.1789  3.8861
  166MOL   H20943439   5.847   6.995   0.596  0.4378 -0.9105 -0.6314
  166MOL   C21043440   5.908   7.172   0.476 -0.5994  0.0903  0.8209
  166MOL   C21143441   5.945   7.243   0.605 -0.1103  0.5042  0.4458
  166MOL   C21243442   6.016   7.360   0.622  0.0005  0.9377 -0.0900
  166MOL   C21343443   6.078   7.439   0.508  0.4342 -0.2642 -0.9752
  166MOL   C21443444   6.023   7.419   0.761 -0.0437 -0.5327 -0.7469
  166MOL   H21543445   5.804   7.192   0.452  0.2842  2.2624 -1.4059
  166MOL   H21643446   5.975   7.209   0.398 -1.4801 -0.1063 -0.0303
  166MOL   H21743447   5.905   7.199   0.695 -3.3744 -1.3776 -1.8060
  166MOL   H21843448   6.003   7.505   0.465 -0.9213 -1.7215 -0.9029
  166MOL   H21943449   6.111   7.372   0.428 -0.5657 -0.8311 -0.9141
  166MOL   H22043450   6.169   7.490   0.539  1.7972 -3.3642  0.3078
  166MOL   H22143451   6.126   7.437   0.792 -0.0147  0.4002 -1.3574
  166MOL   H22243452   5.983   7.347   0.832  0.6202 -0.1356  0.0320
  166MOL   C22343453   5.951   7.554   0.781 -0.6444  0.5938 -0.3322
  166MOL   C22443454   5.802   7.542   0.801 -0.1856  0.1415 -0.3301
  166MOL   C22543455   5.752   7.513   0.920  0.4127  0.1162 -0.5304
  166MOL   C22643456   5.839   7.496   1.050  0.3167  0.5538 -0.3534
  166MOL   C22743457   5.604   7.503   0.939  0.4036 -0.1716 -0.5961
  166MOL   H22843458   5.970   7.616   0.693 -0.2597  0.7271 -0.1562
  166MOL   H22943459   5.981   7.617   0.864  0.2034  0.1717 -0.3127
  166MOL   H23043460   5.736   7.548   0.716  1.2667  2.9943 -1.3211
  166MOL   H23143461   5.836   7.390   1.078 -2.0232  0.5645 -0.4605
  166MOL   H23243462   5.793   7.544   1.137  0.9964  2.0476 -0.8078
  166MOL   H23343463   5.945   7.521   1.040  0.7669 -1.1398 -0.0672
  166MOL   H23443464   5.553   7.525   0.845 -1.6374 -0.5242  0.3984
  166MOL   H23543465   5.572   7.586   1.002 -1.9884 -0.8087 -0.9520
  166MOL   C23643466   5.549   7.372   0.998 -0.8281 -0.9658 -0.2462
  166MOL   C23743467   5.596   7.250   0.921  0.2357  0.4483 -0.3069
  166MOL   C23843468   5.666   7.136   0.968  0.0449  0.4492  0.2956
  166MOL   C23943469   5.699   7.101   1.112  0.2898  0.2495  0.4797
  166MOL   C24043470   5.704   7.025   0.862  0.0610  0.1542  0.3209
  166MOL   H24143471   5.440   7.376   1.002 -0.7787  0.1649  0.2623
  166MOL   H24243472   5.571   7.363   1.105 -0.4200  3.2651  0.1008
  166MOL   H24343473   5.581   7.256   0.814  0.2237 -1.5886 -0.4386
  166MOL   H24443474   5.805   7.082   1.128  0.2639 -1.2660 -0.9529
  166MOL   H24543475   5.647   7.008   1.137  0.8259 -0.2600 -0.2883
  166MOL   H24643476   5.669   7.183   1.177 -0.1187  1.8482 -1.6615
  166MOL   H24743477   5.812   7.013   0.858  0.3796  1.6918  3.1712
  166MOL   H24843478   5.674   7.042   0.759  1.0020  1.2507  0.2264
  166MOL   C24943479   5.655   6.883   0.900  0.5312 -0.3362 -0.0443
  166MOL   C25043480   5.687   6.781   0.800  0.1432  0.3031  0.8363
  166MOL   C25143481   5.718   6.655   0.820 -0.2343  0.2016  0.2791
  166MOL   C25243482   5.721   6.586   0.955 -0.2254 -0.7269  0.2602
  166MOL   C25343483   5.745   6.572   0.691 -0.5519  0.1786 -0.0640
  166MOL   H25443484   5.549   6.901   0.914  0.4263 -0.3663 -0.7546
  166MOL   H25543485   5.707   6.852   0.991  1.8255 -0.8383 -0.9444
  166MOL   H25643486   5.680   6.811   0.696 -0.3062  1.0377  1.0711
  166MOL   H25743487   5.730   6.657   1.037  1.0953 -1.3458  0.6514
  166MOL   H25843488   5.805   6.517   0.955 -0.6824 -1.2875 -0.3260
  166MOL   H25943489   5.633   6.522   0.955  0.1734 -1.2933 -0.6134
  166MOL   H26043490   5.706   6.473   0.712 -0.2582 -0.1072 -0.8343
  166MOL   H26143491   5.853   6.560   0.684  0.0029  4.7793 -1.1602
  166MOL   H26243492   5.693   6.605   0.601 -1.2047 -3.1433 -0.9946
  167MOL     C143493   2.079   7.740   0.891 -0.0468  1.2066  0.7750
  167MOL     C243494   2.151   7.809   0.773  0.0064 -0.2330  0.0841
  167MOL     C343495   2.235   7.751   0.687 -0.2621  0.1490 -0.2453
  167MOL     C443496   2.296   7.610   0.711 -0.1089  0.3063  0.0742
  167MOL     C543497   2.298   7.825   0.570 -0.4288  0.4366 -0.6182
  167MOL     H643498   1.992   7.684   0.857  0.7618  1.0593 -1.0783
  167MOL     H743499   2.140   7.668   0.945 -0.8896  0.1801  0.3752
  167MOL     H843500   2.116   0.026   0.751 -0.9015 -0.5235  0.1529
  167MOL     H943501   2.247   7.566   0.798  1.1748 -1.5001 -0.0862
  167MOL    H1043502   2.403   7.610   0.734  0.1409  0.2344 -1.0694
  167MOL    H1143503   2.271   7.543   0.628 -0.5184 -3.4673  3.0984
  167MOL    H1243504   2.235   0.026   0.538 -2.8264 -1.3139 -0.6131
  167MOL    H1343505   2.289   7.747   0.494 -1.0531 -1.2359  1.1245
  167MOL    H1443506   2.045   7.815   0.963 -0.9794  2.3402 -0.8216
  167MOL    C1543507   2.450   7.862   0.587 -0.3077 -0.1940  0.3790
  167MOL    C1643508   2.510   0.021   0.453 -0.2104  0.5175  0.5111
  167MOL    C1743509   2.607   0.111   0.426  0.2232  0.0543  0.1382
  167MOL    C1843510   2.696   0.177   0.525  0.4709 -0.0695 -0.2838
  167MOL    C1943511   2.644   0.151   0.282  0.4321 -0.6908 -0.5926
  167MOL    H2043512   2.504   7.772   0.618 -0.1994  0.3650  1.8734
  167MOL    H2143513   2.464   0.057   0.662 -3.5534  1.2977 -0.4553
  167MOL    H2243514   2.461   7.858   0.368 -0.5048  0.5141  0.6832
  167MOL    H2343515   2.704   0.281   0.492  0.1210  0.1982  0.4682
  167MOL    H2443516   2.792   0.131   0.550 -0.4952 -1.6210  0.6629
  167MOL    H2543517   2.641   0.171   0.619 -0.0436 -1.9862 -0.6917
  167MOL    H2643518   2.645   0.260   0.277 -0.2226 -0.7936 -3.9465
  167MOL    H2743519   2.564   0.115   0.217  0.3409 -0.7228 -0.4624
  167MOL    C2843520   2.784   0.098   0.242 -0.2491 -0.3461 -0.3399
  167MOL    C2943521   2.806   0.125   0.096  0.5817  0.2934  0.7479
  167MOL    C3043522   2.807   0.027   0.005 -0.1107 -0.5206 -0.0976
  167MOL    C3143523   2.797   7.760   0.021  0.4936 -0.1170 -1.2994
  167MOL    C3243524   2.834   0.066   7.741 -0.2638  0.4982 -0.2210
  167MOL    H3343525   2.795   7.877   0.274  0.9786  0.8858  3.5723
  167MOL    H3443526   2.867   0.155   0.284 -2.3125  1.3679  1.5818
  167MOL    H3543527   2.818   0.230   0.071  0.3209  0.4869  1.4127
  167MOL    H3643528   2.706   7.711   7.870  0.7194 -0.4936 -1.3629
  167MOL    H3743529   2.820   7.728   0.123 -1.1351 -0.0844 -0.9014
  167MOL    H3843530   2.879   7.719   7.844  1.1572  2.7864 -2.4385
  167MOL    H3943531   2.912   0.003   7.698 -0.4637  1.8613 -2.7434
  167MOL    H4043532   2.859   0.171   7.726 -0.9757  0.9670  1.8464
  167MOL    C4143533   2.707   0.060   7.656  0.0639 -0.0571  0.0709
  167MOL    C4243534   2.742   0.094   7.513 -0.8618 -0.3408 -0.1854
  167MOL    C4343535   2.739   0.010   7.405 -0.0816  0.1092  1.0151
  167MOL    C4443536   2.705   7.751   7.412  0.5024  0.5007  0.2071
  167MOL    C4543537   2.791   0.057   7.269  0.1864  0.4267  0.6641
  167MOL    H4643538   2.629   0.123   7.699 -0.1208 -0.0682 -0.2455
  167MOL    H4743539   2.656   7.846   7.661  0.1880 -0.2825 -2.5585
  167MOL    H4843540   2.774   0.196   7.499 -0.1469 -0.6757 -1.0528
  167MOL    H4943541   2.644   7.718   7.328  0.5504  1.5297 -0.2375
  167MOL    H5043542   2.655   7.719   7.503  1.1134  0.2053  0.4363
  167MOL    H5143543   2.801   7.700   7.408  0.8881  1.2027  0.5668
  167MOL    H5243544   2.798   0.166   7.269  0.2608  0.4244 -0.4517
  167MOL    H5343545   2.725   0.027   7.188  0.7436  1.5760 -0.2374
  167MOL    C5443546   2.934   7.882   7.222  0.4063  0.3261 -0.4588
  167MOL    C5543547   2.962   0.031   7.074  0.3385 -0.6672  0.6708
  167MOL    C5643548   3.007   7.832   6.979  0.7111 -0.1244 -0.5129
  167MOL    C5743549   3.030   7.678   7.003  0.2526  0.6757 -0.2267
  167MOL    C5843550   3.013   7.880   6.833 -0.9259 -0.0978 -0.1675
  167MOL    H5943551   2.933   7.773   7.234 -1.1568  0.3219 -0.4784
  167MOL    H6043552   2.997   0.047   7.297  1.5574 -0.3189 -1.0002
  167MOL    H6143553   2.935   0.131   7.041 -1.7456 -1.5842 -0.5126
  167MOL    H6243554   3.128   7.642   6.971  0.6491  2.0435 -0.6033
  167MOL    H6343555   2.962   7.621   6.939 -0.3883 -1.6709  2.4703
  167MOL    H6443556   3.011   7.635   7.101  0.3907 -0.7385 -0.8061
  167MOL    H6543557   2.953   0.086   6.818  0.2070  0.6293 -0.5198
  167MOL    H6643558   2.962   7.805   6.772 -2.7917  1.9285 -1.1288
  167MOL    C6743559   3.160   7.882   6.781 -0.5064 -0.3280 -0.3323
  167MOL    C6843560   3.155   0.065   6.642 -0.4534  0.4446 -0.2519
  167MOL    C6943561   3.241   0.163   6.597  0.0859 -0.0977  0.5820
  167MOL    C7043562   3.344   0.237   6.675  0.7076  0.3937  0.5247
  167MOL    C7143563   3.231   0.207   6.454  0.1641 -0.0091 -0.0661
  167MOL    H7243564   3.197   7.780   6.775  0.1311 -0.1573  0.6094
  167MOL    H7343565   3.221   0.047   6.858 -0.8964  0.4748 -0.5049
  167MOL    H7443566   3.079   0.026   6.576  0.4634  0.2943 -1.2446
  167MOL    H7543567   3.445   0.205   6.648  0.3260  0.0871 -0.5428
  167MOL    H7643568   3.339   0.216   6.782  1.4150  0.7988  0.6439
  167MOL    H7743569   3.338   0.346   6.672 -2.3157  0.2347 -1.4167
  167MOL    H7843570   3.217   0.313   6.435  3.2597  0.1584 -1.8217
  167MOL    H7943571   3.144   0.160   6.408 -0.0646 -0.5570  0.9129
  167MOL    C8043572   3.349   0.147   6.376  0.7234 -0.3427 -0.6437
  167MOL    C8143573   3.332   0.177   6.233 -0.6950 -0.6274  0.1845
  167MOL    C8243574   3.402   0.138   6.130  0.1202  0.6805 -0.1110
  167MOL    C8343575   3.525   0.051   6.136  0.0907  0.3167 -0.1540
  167MOL    C8443576   3.364   0.190   5.991  0.3964  0.3137 -0.4146
  167MOL    H8543577   3.358   0.039   6.378  1.3503 -0.3655 -3.4206
  167MOL    H8643578   3.439   0.195   6.417  0.7108 -3.6296  3.5372
  167MOL    H8743579   3.262   0.257   6.209  0.0094 -0.5272 -1.5746
  167MOL    H8843580   3.615   0.100   6.101 -0.4168  0.8267 -0.7788
  167MOL    H8943581   3.506   7.852   6.066  0.6545 -0.8627  1.0566
  167MOL    H9043582   3.533   0.007   6.235  0.8481 -1.3501 -0.9326
  167MOL    H9143583   3.268   0.243   5.986  0.8145  1.1862  0.6035
  167MOL    H9243584   3.358   0.114   5.913 -0.0461  0.5664 -0.6319
  167MOL    C9343585   3.468   0.294   5.941 -0.0583 -0.5203 -0.7850
  167MOL    C9443586   3.440   0.352   5.804  0.2257 -0.0833  0.2973
  167MOL    C9543587   3.374   0.468   5.785  0.1006  0.0966 -0.9061
  167MOL    C9643588   3.321   0.565   5.890  0.2988  0.0141  0.1728
  167MOL    C9743589   3.364   0.522   5.635  0.1967  0.1789  0.1150
  167MOL    H9843590   3.567   0.250   5.933  0.6046  1.0084 -1.0520
  167MOL    H9943591   3.483   0.377   6.011 -1.4567 -0.2705 -0.7586
  167MOL   H10043592   3.482   0.304   5.717 -0.9655 -1.0730  0.2620
  167MOL   H10143593   3.391   0.649   5.894  0.5039 -0.1769  0.5547
  167MOL   H10243594   3.313   0.527   5.991 -0.5029 -1.5124 -0.4454
  167MOL   H10343595   3.230   0.609   5.850  0.2396  0.1549  0.4660
  167MOL   H10443596   3.261   0.540   5.603  0.2305  2.1426  1.0701
  167MOL   H10543597   3.403   0.453   5.560  0.6111  1.4939 -0.8901
  167MOL   C10643598   3.445   0.643   5.634 -0.5595  0.4631  0.4765
  167MOL   C10743599   3.443   0.703   5.487 -0.1120  0.6506  0.4213
  167MOL   C10843600   3.552   0.711   5.402  0.4687 -0.2150 -0.8733
  167MOL   C10943601   3.689   0.649   5.418  0.1009  0.5975  0.4435
  167MOL   C11043602   3.536   0.787   5.267  0.1929 -0.3697  0.2377
  167MOL   H11143603   3.550   0.637   5.663  0.8164  1.7540 -3.8985
  167MOL   H11243604   3.396   0.721   5.691  0.5214  0.7871  0.9776
  167MOL   H11343605   3.352   0.756   5.465 -2.0733 -3.2231 -1.3584
  167MOL   H11443606   3.702   0.591   5.509  0.6479  2.6915  1.7347
  167MOL   H11543607   3.773   0.719   5.411 -1.5171  2.2933 -2.9607
  167MOL   H11643608   3.721   0.577   5.342  1.3773 -0.2490  1.7626
  167MOL   H11743609   3.615   0.860   5.251 -0.5627  0.4602  0.1844
  167MOL   H11843610   3.447   0.850   5.272  1.4124  1.3751  0.5262
  167MOL   C11943611   3.535   0.692   5.143 -1.1573 -0.6037 -0.7527
  167MOL   C12043612   3.487   0.770   5.020 -0.6481 -0.0201  0.5318
  167MOL   C12143613   3.570   0.832   4.934  0.3062  0.2459  0.5184
  167MOL   C12243614   3.724   0.818   4.965 -1.0909 -0.4621  0.1892
  167MOL   C12343615   3.529   0.890   4.805 -0.3851 -0.2759  0.0872
  167MOL   H12443616   3.470   0.606   5.155 -0.2218 -0.9299  2.5454
  167MOL   H12543617   3.638   0.662   5.126 -0.7980 -1.9983  3.2914
  167MOL   H12643618   3.381   0.774   5.003 -0.3415 -0.2959 -1.6648
  167MOL   H12743619   3.734   0.838   5.071  0.2615  0.0089 -0.0242
  167MOL   H12843620   3.785   0.895   4.919 -0.4803 -0.0397  1.7008
  167MOL   H12943621   3.767   0.723   4.935 -1.2808 -0.5010  0.0362
  167MOL   H13043622   3.588   0.981   4.795 -0.6180 -0.2719 -1.3250
  167MOL   H13143623   3.421   0.907   4.802 -0.4618 -0.7734  0.0461
  167MOL   C13243624   3.555   0.789   4.693  0.2859  0.6715  0.4238
  167MOL   C13343625   3.521   0.838   4.552 -0.5249 -0.4627 -0.7039
  167MOL   C13443626   3.609   0.903   4.471  0.7035  0.2274  0.0679
  167MOL   C13543627   3.741   0.950   4.512 -0.0090  0.4681  0.0980
  167MOL   C13643628   3.547   0.940   4.330  0.4005 -0.4383 -0.3534
  167MOL   H13743629   3.505   0.695   4.715 -0.0712  0.6131 -0.6247
  167MOL   H13843630   3.660   0.761   4.696  0.0228 -0.2324  1.6523
  167MOL   H13943631   3.429   0.801   4.511 -1.7329  3.5496 -1.8348
  167MOL   H14043632   3.777   0.935   4.614 -0.3003 -2.3015 -0.1607
  167MOL   H14143633   3.751   1.054   4.480  2.3355  1.2177  2.9928
  167MOL   H14243634   3.817   0.909   4.445  0.5824  0.6085  0.6734
  167MOL   H14343635   3.480   0.865   4.287  0.8016 -0.0365 -1.7090
  167MOL   H14443636   3.631   0.943   4.261  2.7549  3.2811  2.5326
  167MOL   C14543637   3.486   1.084   4.329 -0.0704  0.3294 -0.2393
  167MOL   C14643638   3.429   1.131   4.197 -0.2147 -0.0024 -0.1925
  167MOL   C14743639   3.301   1.170   4.167 -0.9236  0.3872  0.0716
  167MOL   C14843640   3.189   1.177   4.270 -0.3479 -0.0069  1.2346
  167MOL   C14943641   3.263   1.218   4.026 -0.3742  0.0978 -0.1634
  167MOL   H15043642   3.569   1.151   4.351 -0.8053  0.5690  1.8929
  167MOL   H15143643   3.415   1.096   4.411  0.9941  0.8965  0.6114
  167MOL   H15243644   3.500   1.120   4.116 -1.2197 -3.6869 -0.7011
  167MOL   H15343645   3.099   1.149   4.215  1.0958  1.4836 -2.0240
  167MOL   H15443646   3.199   1.271   4.324  0.6700 -1.5448  3.7793
  167MOL   H15543647   3.201   1.107   4.353 -0.3996  0.5982  1.7574
  167MOL   H15643648   3.177   1.158   3.997 -0.2206 -0.8963  1.3989
  167MOL   H15743649   3.337   1.195   3.949 -1.1143  0.0609 -0.8687
  167MOL   C15843650   3.229   1.364   4.016  0.0039  1.0348  0.4869
  167MOL   C15943651   3.216   1.410   3.872  0.4307  0.7150 -0.3736
  167MOL   C16043652   3.321   1.441   3.790  0.1078  0.6229  0.7673
  167MOL   C16143653   3.466   1.446   3.841  0.5551  0.5614 -0.0701
  167MOL   C16243654   3.287   1.509   3.657  0.0280 -0.7655 -0.5416
  167MOL   H16343655   3.311   1.417   4.066  1.1798 -0.8037  0.5451
  167MOL   H16443656   3.140   1.385   4.076  0.5477  2.4785  0.8125
  167MOL   H16543657   3.115   1.420   3.836  1.3564  1.7052 -2.7930
  167MOL   H16643658   3.485   1.408   3.941  1.1712 -0.4863 -0.5811
  167MOL   H16743659   3.498   1.550   3.832 -0.1463  0.7720 -0.2117
  167MOL   H16843660   3.532   1.389   3.776 -1.1016 -1.7700  0.1973
  167MOL   H16943661   3.356   1.588   3.629 -0.9240 -0.3201 -1.6655
  167MOL   H17043662   3.188   1.552   3.674  0.3109 -1.2565  2.8447
  167MOL   C17143663   3.293   1.412   3.543 -0.5596 -0.1002  0.1761
  167MOL   C17243664   3.194   1.295   3.565  0.5219 -0.6215  0.6973
  167MOL   C17343665   3.075   1.275   3.501  0.1917 -0.3515 -0.0142
  167MOL   C17443666   3.016   1.375   3.398  0.0481 -0.0601  0.3593
  167MOL   C17543667   2.981   1.158   3.531  0.5040  0.1964 -0.1411
  167MOL   H17643668   3.395   1.375   3.536 -0.2297  0.2936  2.3502
  167MOL   H17743669   3.269   1.468   3.453  0.3269  3.6214  2.1458
  167MOL   H17843670   3.233   1.220   3.633  2.8132  1.7799  2.1646
  167MOL   H17943671   2.993   1.473   3.439  0.2146 -0.1288  0.6162
  167MOL   H18043672   2.924   1.345   3.347  1.6485 -1.6568 -1.7196
  167MOL   H18143673   3.093   1.400   3.325  0.0549  0.1038  0.4242
  167MOL   H18243674   3.039   1.098   3.601  2.8176  0.4596 -1.7740
  167MOL   H18343675   2.953   1.111   3.437 -0.1857 -0.1008  0.2100
  167MOL   C18443676   2.839   1.194   3.591 -0.5997 -0.2563  0.6767
  167MOL   C18543677   2.840   1.242   3.739  0.9346  0.7217  0.0072
  167MOL   C18643678   2.739   1.247   3.831 -0.0242 -0.0145  0.0547
  167MOL   C18743679   2.601   1.202   3.804 -0.2511 -0.1856 -0.0709
  167MOL   C18843680   2.772   1.304   3.962  0.4980  0.0119 -0.4791
  167MOL   H18943681   2.779   1.103   3.583 -0.3222 -0.3822  0.0379
  167MOL   H19043682   2.790   1.266   3.525 -0.2276 -0.5929  0.0268
  167MOL   H19143683   2.935   1.283   3.770  1.4677  1.1865 -2.1888
  167MOL   H19243684   2.534   1.268   3.859  1.5566  0.5248  1.3444
  167MOL   H19343685   2.589   1.101   3.843 -0.9095 -0.2809 -0.5070
  167MOL   H19443686   2.584   1.198   3.696 -0.3482  2.3146 -0.1937
  167MOL   H19543687   2.698   1.381   3.984 -0.3960 -0.4415 -1.8168
  167MOL   H19643688   2.867   1.356   3.964  0.7721 -0.4077 -1.9442
  167MOL   C19743689   2.792   1.196   4.072 -0.5659  0.6700  0.0622
  167MOL   C19843690   2.833   1.262   4.203 -0.2602 -0.4050  0.0525
  167MOL   C19943691   2.824   1.203   4.327 -0.9569 -0.3280  0.3193
  167MOL   C20043692   2.799   1.049   4.345  0.1619 -0.9893 -0.0743
  167MOL   C20143693   2.866   1.286   4.449 -0.3755  0.7051  1.1134
  167MOL   H20243694   2.874   1.126   4.057 -1.9176 -0.7493 -0.8473
  167MOL   H20343695   2.697   1.144   4.083  0.8028 -1.2134  3.5470
  167MOL   H20443696   2.865   1.364   4.190  0.9806 -0.7304  0.4334
  167MOL   H20543697   2.799   1.022   4.451  1.7822  1.0173  0.4587
  167MOL   H20643698   2.880   0.990   4.303  0.7490  0.2456 -0.6627
  167MOL   H20743699   2.703   1.020   4.301 -0.5980  1.5668 -0.1988
  167MOL   H20843700   2.933   1.368   4.422 -2.2548  1.7572 -0.4405
  167MOL   H20943701   2.927   1.217   4.508  0.9070 -0.7573 -1.8179
  167MOL   C21043702   2.746   1.327   4.529 -0.5250  0.6407  0.1456
  167MOL   C21143703   2.791   1.387   4.662 -0.2326  0.3288  0.4582
  167MOL   C21243704   2.733   1.489   4.724 -0.0708 -0.0829 -0.5030
  167MOL   C21343705   2.597   1.549   4.680 -0.4656 -0.1260  0.0135
  167MOL   C21443706   2.797   1.550   4.855  0.5939  0.6189  0.5486
  167MOL   H21543707   2.696   1.232   4.542 -2.1052  1.1719 -1.8063
  167MOL   H21643708   2.677   1.393   4.475 -0.7099  0.9159  0.7167
  167MOL   H21743709   2.881   1.345   4.705  0.0080  0.4491  0.0845
  167MOL   H21843710   2.540   1.479   4.619  0.8758 -1.7610  0.5957
  167MOL   H21943711   2.607   1.643   4.625  1.6554  0.3515  1.1744
  167MOL   H22043712   2.548   1.561   4.777  1.4744 -0.6225  1.0977
  167MOL   H22143713   2.870   1.480   4.894 -0.9178 -1.3327 -0.0482
  167MOL   H22243714   2.717   1.566   4.927  0.2989 -1.4726  0.6956
  167MOL   C22343715   2.846   1.690   4.828  0.0286 -0.7617 -0.5791
  167MOL   C22443716   2.964   1.690   4.724 -0.1531  1.6235  0.6646
  167MOL   C22543717   3.009   1.791   4.657  0.1438  0.6866  0.0218
  167MOL   C22643718   2.969   1.939   4.678  0.5982  0.4625 -0.1054
  167MOL   C22743719   3.125   1.765   4.560 -0.0782 -0.3696  0.2472
  167MOL   H22843720   2.887   1.734   4.919 -0.3789 -1.2191 -0.1657
  167MOL   H22943721   2.770   1.762   4.797  0.7407  0.4896  0.5338
  167MOL   H23043722   3.011   1.593   4.730  0.7084  2.0398  0.7487
  167MOL   H23143723   2.941   1.976   4.579 -0.0641  1.3901  0.4203
  167MOL   H23243724   3.062   1.986   4.710  1.1903 -0.6594 -0.1462
  167MOL   H23343725   2.886   1.947   4.749  1.2902  1.5020  0.5884
  167MOL   H23443726   3.149   1.659   4.573 -0.6688 -0.4182  1.0086
  167MOL   H23543727   3.212   1.829   4.570  1.1861 -1.9882 -0.2365
  167MOL   C23643728   3.072   1.779   4.408  0.2377 -0.0362 -0.2055
  167MOL   C23743729   3.187   1.755   4.312  0.3109  0.2382  0.4649
  167MOL   C23843730   3.268   1.840   4.249  0.0563 -0.0575 -0.3479
  167MOL   C23943731   3.254   1.992   4.268  0.2997 -0.1595 -0.3921
  167MOL   C24043732   3.399   1.791   4.188  0.3820  0.4047 -0.6296
  167MOL   H24143733   3.014   1.868   4.389  1.0648 -0.0574 -3.0877
  167MOL   H24243734   3.003   1.701   4.376 -2.9465  2.4705  0.4348
  167MOL   H24343735   3.222   1.653   4.308  1.3400  0.5318  1.7482
  167MOL   H24443736   3.231   2.041   4.173 -0.7956  0.9592  0.4286
  167MOL   H24543737   3.347   2.032   4.308 -0.6430 -0.7161  2.4466
  167MOL   H24643738   3.172   2.014   4.336 -0.1281 -2.7774 -0.0204
  167MOL   H24743739   3.417   1.689   4.219  2.4524  1.3932  1.5813
  167MOL   H24843740   3.484   1.840   4.236  0.9783  1.3459 -2.5578
  167MOL   C24943741   3.413   1.815   4.038 -0.0632 -0.0288 -0.1524
  167MOL   C25043742   3.545   1.781   3.973  1.0314 -0.5122 -0.0318
  167MOL   C25143743   3.578   1.819   3.851  0.1421  0.0086  0.1912
  167MOL   C25243744   3.479   1.887   3.757  0.6987 -0.8140  0.1122
  167MOL   C25343745   3.717   1.797   3.799 -0.1297  0.2905 -0.3881
  167MOL   H25443746   3.377   1.916   4.017  0.7482  0.6852  1.7621
  167MOL   H25543747   3.335   1.752   3.994  0.8434  0.6117 -2.7441
  167MOL   H25643748   3.607   1.713   4.030  0.2134 -3.7080 -2.7915
  167MOL   H25743749   3.497   1.991   3.732  4.1645 -1.4199 -0.0954
  167MOL   H25843750   3.378   1.878   3.797 -0.0407 -2.6807 -2.0420
  167MOL   H25943751   3.483   1.830   3.663  0.7199 -0.5447 -0.0513
  167MOL   H26043752   3.769   1.891   3.781 -0.8221  0.3117 -2.4146
  167MOL   H26143753   3.717   1.737   3.708  1.8623  0.5861 -0.6135
  167MOL   H26243754   3.779   1.735   3.864 -0.4537  0.5508  0.1645
  168MOL     C143755   3.670   4.620   1.398  0.6710  0.6221 -0.4183
  168MOL     C243756   3.788   4.615   1.306 -0.2463  0.5970  0.8498
  168MOL     C343757   3.885   4.707   1.306  0.0387  0.0991 -0.5581
  168MOL     C443758   3.897   4.824   1.402 -0.1884 -0.3069 -0.2843
  168MOL     C543759   4.018   4.668   1.237  0.0515 -0.1804  0.5928
  168MOL     H643760   3.579   4.598   1.343  0.4061  0.4730  0.0702
  168MOL     H743761   3.691   4.559   1.486  0.7020 -0.1510 -0.9565
  168MOL     H843762   3.796   4.527   1.244 -1.9079  1.1766 -0.2109
  168MOL     H943763   3.807   4.867   1.447  0.3870  1.0916 -0.4397
  168MOL    H1043764   3.955   4.903   1.353  1.3735 -0.2453  1.6151
  168MOL    H1143765   3.962   4.799   1.486  0.2209 -0.5463 -0.6682
  168MOL    H1243766   4.038   4.763   1.189  2.8663 -1.3893 -0.7725
  168MOL    H1343767   4.004   4.590   1.161  1.3968  0.4737 -0.3547
  168MOL    H1443768   3.664   4.723   1.433  0.4150  0.9273 -1.3626
  168MOL    C1543769   4.129   4.635   1.334 -0.1407 -0.8249  0.2898
  168MOL    C1643770   4.265   4.598   1.271  0.3989  0.5301 -0.1058
  168MOL    C1743771   4.306   4.476   1.232  0.4993 -0.0733 -0.2336
  168MOL    C1843772   4.205   4.352   1.228  0.7856  0.4824 -0.1464
  168MOL    C1943773   4.443   4.457   1.174  0.1665  0.6501  0.0138
  168MOL    H2043774   4.106   4.548   1.396  2.2410 -2.1240 -0.5560
  168MOL    H2143775   4.137   4.704   1.418  1.2998 -0.5727 -0.0351
  168MOL    H2243776   4.339   4.676   1.260  0.9195  0.1133  0.4462
  168MOL    H2343777   4.240   4.260   1.274  1.8800  1.2979  0.7014
  168MOL    H2443778   4.184   4.325   1.125  1.5399  0.4524 -0.2991
  168MOL    H2543779   4.104   4.374   1.263 -0.1261  1.2241 -3.0781
  168MOL    H2643780   4.497   4.378   1.227 -0.3483  1.2493  1.4612
  168MOL    H2743781   4.496   4.550   1.197 -0.3208  0.9035  0.1170
  168MOL    C2843782   4.435   4.437   1.029 -0.4211  0.7028  0.5714
  168MOL    C2943783   4.560   4.373   0.985 -0.3440  0.7075 -0.2595
  168MOL    C3043784   4.654   4.424   0.906  0.3728  0.3000 -0.1229
  168MOL    C3143785   4.666   4.570   0.867  0.7250 -0.1935  0.4044
  168MOL    C3243786   4.784   4.342   0.893  0.2181 -0.3652  0.8276
  168MOL    H3343787   4.419   4.529   0.972  0.5497  0.5995  0.1350
  168MOL    H3443788   4.349   4.377   0.997  0.2432  0.0502 -0.0129
  168MOL    H3543789   4.570   4.271   1.020 -1.3379  0.6626 -0.1168
  168MOL    H3643790   4.754   4.599   0.809  0.9715  1.6114  1.6273
  168MOL    H3743791   4.687   4.628   0.957  3.3306  0.1770 -0.3920
  168MOL    H3843792   4.582   4.607   0.809  1.5310  0.5880 -0.2886
  168MOL    H3943793   4.806   4.285   0.983 -0.1350  0.7910  1.6661
  168MOL    H4043794   4.865   4.414   0.881  0.1297 -0.4861 -0.5792
  168MOL    C4143795   4.780   4.267   0.756 -0.2541 -0.1714 -0.7803
  168MOL    C4243796   4.900   4.172   0.750 -0.1695  0.5765 -0.0515
  168MOL    C4343797   4.899   4.034   0.740 -0.3849  0.0795 -0.2899
  168MOL    C4443798   4.775   3.956   0.726  0.9366 -0.3134 -0.2394
  168MOL    C4543799   5.030   3.951   0.733 -0.0070 -0.4212  1.1138
  168MOL    H4643800   4.794   4.334   0.671  0.6018  1.0435  0.2948
  168MOL    H4743801   4.689   4.206   0.755 -0.4317  0.0782 -0.0577
  168MOL    H4843802   4.992   4.224   0.772  1.9686 -2.5506 -1.2126
  168MOL    H4943803   4.688   3.990   0.783  0.7822  1.4360 -1.4828
  168MOL    H5043804   4.792   3.853   0.756  0.5392 -0.6767 -1.2409
  168MOL    H5143805   4.755   3.935   0.621 -1.3547  0.9837 -0.0953
  168MOL    H5243806   5.109   4.026   0.722  0.0634 -0.5511  0.7291
  168MOL    H5343807   5.032   3.899   0.638  1.0189  0.9098  0.3825
  168MOL    C5443808   5.049   3.856   0.857  1.0569 -0.6559 -0.0662
  168MOL    C5543809   5.171   3.770   0.838  0.1032 -0.3893 -0.2341
  168MOL    C5643810   5.270   3.752   0.925  0.3167 -0.6653 -0.0527
  168MOL    C5743811   5.283   3.825   1.052 -0.0633  0.1452  1.0264
  168MOL    C5843812   5.374   3.642   0.904  0.0183  0.5250  0.6210
  168MOL    H5943813   4.962   3.794   0.878 -0.8854  1.4557 -1.6046
  168MOL    H6043814   5.058   3.929   0.938 -1.5502  0.3976 -0.6669
  168MOL    H6143815   5.158   3.698   0.758 -1.2263 -0.3966 -0.0222
  168MOL    H6243816   5.389   3.847   1.068  0.0056  0.5642 -0.0148
  168MOL    H6343817   5.241   3.772   1.137 -0.7805  0.8577  1.1249
  168MOL    H6443818   5.241   3.925   1.038  2.5836  0.9672 -1.3977
  168MOL    H6543819   5.343   3.568   0.830 -0.7342  0.4435  1.0080
  168MOL    H6643820   5.394   3.583   0.993 -0.5913 -0.3497  0.1939
  168MOL    C6743821   5.509   3.709   0.856 -0.3294 -0.0505  0.5369
  168MOL    C6843822   5.611   3.598   0.826  0.0890  0.5298  0.2233
  168MOL    C6943823   5.732   3.578   0.883 -0.0619 -0.5484 -0.2312
  168MOL    C7043824   5.796   3.669   0.987 -0.4046 -0.0837 -0.4394
  168MOL    C7143825   5.798   3.449   0.851 -0.6708  0.5463 -0.2572
  168MOL    H7243826   5.557   3.780   0.924  1.0318 -0.6954  0.2595
  168MOL    H7343827   5.499   3.763   0.762  0.8304 -1.9411 -0.6957
  168MOL    H7443828   5.567   3.529   0.756  2.9792 -0.7921 -0.3687
  168MOL    H7543829   5.865   3.732   0.932 -1.7263  1.0559 -0.8331
  168MOL    H7643830   5.861   3.616   1.055  0.1105 -0.0777 -0.9230
  168MOL    H7743831   5.724   3.722   1.050 -0.8847  0.5911 -1.5290
  168MOL    H7843832   5.906   3.458   0.845 -0.6470 -0.3158 -1.0937
  168MOL    H7943833   5.769   3.427   0.749 -0.2039 -1.9136  0.1306
  168MOL    C8043834   5.752   3.328   0.941 -0.4607  0.1671  0.2014
  168MOL    C8143835   5.608   3.285   0.917  0.2643 -0.2323 -0.9969
  168MOL    C8243836   5.562   3.219   0.815 -0.4474 -0.0362 -0.0298
  168MOL    C8343837   5.644   3.174   0.700  0.4030 -0.0767  0.0299
  168MOL    C8443838   5.414   3.192   0.808 -0.2808 -0.0771  0.2597
  168MOL    H8543839   5.758   3.371   1.041  1.9703 -0.0558  0.1708
  168MOL    H8643840   5.821   3.246   0.921  0.3596  0.7496  0.5934
  168MOL    H8743841   5.540   3.335   0.985 -1.0945 -0.1789 -2.3619
  168MOL    H8843842   5.644   3.066   0.695  2.2962 -0.2099  2.0534
  168MOL    H8943843   5.747   3.209   0.695  0.4768 -0.5196 -1.7028
  168MOL    H9043844   5.616   3.212   0.602  1.2115 -3.6315 -1.6354
  168MOL    H9143845   5.374   3.223   0.904 -0.4375  0.4771  0.0181
  168MOL    H9243846   5.403   3.087   0.781  2.2034  0.1014 -1.6735
  168MOL    C9343847   5.343   3.270   0.694  0.2801  0.4211  0.6608
  168MOL    C9443848   5.198   3.233   0.680 -0.2696 -0.4153  0.1252
  168MOL    C9543849   5.105   3.300   0.613  0.1059 -0.5954 -0.7100
  168MOL    C9643850   5.131   3.431   0.543 -0.1791 -0.2268 -0.0379
  168MOL    C9743851   4.960   3.250   0.594  0.5264 -0.1978  0.7114
  168MOL    H9843852   5.394   3.252   0.599 -0.0090 -1.1636  0.7904
  168MOL    H9943853   5.345   3.379   0.698 -1.7628  0.4229  1.8273
  168MOL   H10043854   5.163   3.147   0.735  1.4517 -0.2945  1.4290
  168MOL   H10143855   5.128   3.501   0.626 -1.2458  0.0956 -0.3347
  168MOL   H10243856   5.048   3.461   0.478 -0.4172 -1.6934 -0.4181
  168MOL   H10343857   5.227   3.446   0.494  0.2932  0.0762  0.9762
  168MOL   H10443858   4.914   3.308   0.513  0.7955 -1.5570 -0.4433
  168MOL   H10543859   4.895   3.263   0.680 -0.2660 -0.2638  0.1281
  168MOL   C10643860   4.963   3.104   0.548  0.4627  0.0118 -0.1093
  168MOL   C10743861   4.824   3.064   0.512  0.4827 -0.3246 -0.0752
  168MOL   C10843862   4.781   2.938   0.519  0.0597 -0.4007  0.1415
  168MOL   C10943863   4.859   2.824   0.583  0.2316  0.8446  0.2324
  168MOL   C11043864   4.642   2.899   0.451 -1.3971  0.6820 -0.3031
  168MOL   H11143865   4.997   3.039   0.628  0.6661 -0.5662 -0.6581
  168MOL   H11243866   5.039   3.101   0.470  0.7806  0.5905  0.1768
  168MOL   H11343867   4.762   3.138   0.463  0.9928  1.0491  1.3249
  168MOL   H11443868   4.950   2.837   0.640  0.5367  0.9583 -0.2755
  168MOL   H11543869   4.891   2.768   0.495 -0.4571 -0.1137  0.5808
  168MOL   H11643870   4.789   2.762   0.640 -1.1446  1.9844 -0.1810
  168MOL   H11743871   4.662   2.810   0.390  0.4386  0.8264  0.0573
  168MOL   H11843872   4.608   2.969   0.374 -1.2391 -1.7191 -2.6627
  168MOL   C11943873   4.530   2.863   0.550  0.5047 -0.8822  0.2273
  168MOL   C12043874   4.462   2.989   0.604  0.0647  0.2702  0.0287
  168MOL   C12143875   4.329   3.010   0.618  0.1077  0.2985 -0.3009
  168MOL   C12243876   4.228   2.916   0.560 -0.6461  0.3877  0.1256
  168MOL   C12343877   4.281   3.143   0.675  1.0019 -0.3234 -0.3392
  168MOL   H12443878   4.577   2.811   0.633  0.0591  0.0052  1.0472
  168MOL   H12543879   4.462   2.784   0.515 -0.8165  1.1325 -1.8923
  168MOL   H12643880   4.518   3.059   0.665 -0.2384 -0.3611  1.0264
  168MOL   H12743881   4.142   2.969   0.518 -1.4974 -0.1371  1.1709
  168MOL   H12843882   4.182   2.859   0.641 -1.7286  1.4512  0.2727
  168MOL   H12943883   4.269   2.857   0.478 -0.4015 -0.5271  0.8879
  168MOL   H13043884   4.292   3.224   0.602  1.0354 -1.8578 -2.0702
  168MOL   H13143885   4.347   3.185   0.751 -1.3919  3.7722 -0.3571
  168MOL   C13243886   4.149   3.140   0.751  0.1035  0.0426  0.0757
  168MOL   C13343887   4.105   3.281   0.797 -0.2650  0.3312 -0.4128
  168MOL   C13443888   4.127   3.330   0.925 -0.0254 -0.2488 -0.0129
  168MOL   C13543889   4.196   3.248   1.036  0.4241  0.0572  0.2022
  168MOL   C13643890   4.075   3.462   0.980  0.2247 -0.0027 -0.3802
  168MOL   H13743891   4.149   3.073   0.837  1.4237 -1.8999 -1.4149
  168MOL   H13843892   4.073   3.101   0.682  1.0026  2.3285 -2.2868
  168MOL   H13943893   4.070   3.349   0.720 -2.5458  1.1589  1.3021
  168MOL   H14043894   4.122   3.187   1.088 -0.0645  0.4735  0.0020
  168MOL   H14143895   4.238   3.310   1.116  0.4589 -1.5836  1.4819
  168MOL   H14243896   4.280   3.201   0.986  0.4209 -0.5753  0.7918
  168MOL   H14343897   4.149   3.517   1.038 -1.3633  0.8848  0.8503
  168MOL   H14443898   4.004   3.424   1.055  1.3753 -1.3276  0.0651
  168MOL   C14543899   4.006   3.553   0.883 -0.2534  0.3196 -0.1708
  168MOL   C14643900   4.102   3.609   0.784  0.3990 -0.6500  0.5266
  168MOL   C14743901   4.074   3.718   0.705 -0.4751 -0.1517  0.1182
  168MOL   C14843902   3.950   3.803   0.715 -0.2164 -0.2440 -0.0792
  168MOL   C14943903   4.186   3.774   0.613 -0.7398  0.1786  0.8454
  168MOL   H15043904   3.974   3.638   0.943 -2.2084  0.7354 -1.7726
  168MOL   H15143905   3.920   3.499   0.845 -1.4621  0.9452  1.6297
  168MOL   H15243906   4.199   3.562   0.782 -0.2356 -2.1367  2.9792
  168MOL   H15343907   3.968   3.887   0.782 -1.2549  2.1992 -2.7273
  168MOL   H15443908   3.860   3.751   0.748  0.1347  0.5198  2.1644
  168MOL   H15543909   3.922   3.848   0.619 -1.2297 -1.3755 -0.3177
  168MOL   H15643910   4.140   3.833   0.534 -0.9296  0.5698  1.2420
  168MOL   H15743911   4.240   3.686   0.580  3.0331  2.1659  1.4475
  168MOL   C15843912   4.272   3.866   0.702  0.0793  0.5772  0.6747
  168MOL   C15943913   4.361   3.956   0.617 -0.1789  0.1036 -0.2743
  168MOL   C16043914   4.411   4.072   0.658 -0.4599 -0.1442  0.5836
  168MOL   C16143915   4.387   4.136   0.794  0.0132 -0.5325 -0.3654
  168MOL   C16243916   4.499   4.140   0.558  0.3432 -0.1506 -1.1896
  168MOL   H16343917   4.347   3.801   0.747 -0.0349  0.4425  0.6711
  168MOL   H16443918   4.218   3.917   0.781  1.3285  1.1159  1.1936
  168MOL   H16543919   4.393   3.904   0.527  2.3979 -1.7624  1.6561
  168MOL   H16643920   4.480   4.140   0.850  0.0297 -0.2346 -0.4093
  168MOL   H16743921   4.306   4.093   0.852 -0.0510 -1.8210 -1.3912
  168MOL   H16843922   4.342   4.235   0.787  0.7163 -0.1429  0.5800
  168MOL   H16943923   4.476   4.105   0.458 -1.8987 -1.0509 -0.3955
  168MOL   H17043924   4.605   4.118   0.566 -0.2874 -2.9243  0.1906
  168MOL   C17143925   4.482   4.299   0.559 -0.1014  0.2595  0.0343
  168MOL   C17243926   4.566   4.361   0.445 -0.2671  0.0958  0.1374
  168MOL   C17343927   4.528   4.456   0.360 -0.3385  0.2270 -0.2426
  168MOL   C17443928   4.389   4.515   0.350 -0.1377 -0.5060  0.3456
  168MOL   C17543929   4.628   4.502   0.256 -0.6658  1.0377  0.2602
  168MOL   H17643930   4.515   4.331   0.658  1.0109 -2.3017  0.5027
  168MOL   H17743931   4.379   4.335   0.559  0.3384  1.6358 -2.5202
  168MOL   H17843932   4.663   4.314   0.435 -1.8279 -3.2095 -0.1590
  168MOL   H17943933   4.364   4.599   0.285 -1.5678 -2.1465 -1.2808
  168MOL   H18043934   4.363   4.544   0.452 -1.0809  2.2336 -0.6271
  168MOL   H18143935   4.322   4.437   0.315 -0.9530 -0.2873  1.3937
  168MOL   H18243936   4.590   4.481   0.156  1.7773  1.1111 -0.7188
  168MOL   H18343937   4.713   4.434   0.249 -2.5000 -1.4118  0.8094
  168MOL   C18443938   4.683   4.644   0.278  0.3674 -0.2006 -0.3940
  168MOL   C18543939   4.575   4.754   0.268 -0.4814 -0.0860  0.1810
  168MOL   C18643940   4.515   4.826   0.363  0.5667 -0.2643  0.4474
  168MOL   C18743941   4.561   4.830   0.511  0.3361  0.3143 -0.3635
  168MOL   C18843942   4.397   4.918   0.331 -0.1746 -0.0639  0.1339
  168MOL   H18943943   4.755   4.672   0.202  0.8098  1.7976  0.7065
  168MOL   H19043944   4.728   4.649   0.378  1.0315 -0.8657 -0.6594
  168MOL   H19143945   4.531   4.762   0.170  1.6395  2.3818 -0.6544
  168MOL   H19243946   4.630   4.752   0.542 -0.4210  0.0559  0.6853
  168MOL   H19343947   4.472   4.827   0.575  0.2018  2.1726 -0.4343
  168MOL   H19443948   4.600   4.932   0.516 -1.9054  1.3431 -2.4344
  168MOL   H19543949   4.425   5.022   0.315  0.5263 -0.5187 -1.6879
  168MOL   H19643950   4.334   4.926   0.419 -1.1615  1.1797 -0.6693
  168MOL   C19743951   4.316   4.887   0.201  0.1581 -0.4341  0.0020
  168MOL   C19843952   4.185   4.967   0.194  0.3682  0.0393 -0.3001
  168MOL   C19943953   4.062   4.933   0.240  0.0503 -0.2796  0.4747
  168MOL   C20043954   4.036   4.794   0.292  0.3451 -0.4020  0.3626
  168MOL   C20143955   3.942   5.026   0.218 -0.9141 -0.3139  0.2416
  168MOL   H20243956   4.299   4.782   0.180  1.7921 -0.7310  0.0801
  168MOL   H20343957   4.385   4.921   0.124 -0.4598 -1.9341 -1.2360
  168MOL   H20443958   4.199   5.062   0.146  0.8392  0.2540  0.2615
  168MOL   H20543959   3.977   4.810   0.382 -0.2681  1.0494 -0.2723
  168MOL   H20643960   4.126   4.746   0.331  1.4069  1.1894 -0.0782
  168MOL   H20743961   3.986   4.732   0.217  0.3392  0.9584 -0.7845
  168MOL   H20843962   3.988   5.117   0.178 -1.2431 -0.3163 -0.1364
  168MOL   H20943963   3.915   5.060   0.319 -0.5957 -1.0916  0.5915
  168MOL   C21043964   3.840   4.964   0.132 -0.4890  0.4798  0.2674
  168MOL   C21143965   3.757   5.078   0.074  0.0393  0.6429 -0.5947
  168MOL   C21243966   3.754   5.126   7.826  0.1597 -0.1025 -0.3368
  168MOL   C21343967   3.824   5.055   7.711  0.0255 -0.1176 -0.6491
  168MOL   C21443968   3.674   5.248   7.781  0.2446  0.2273  0.1353
  168MOL   H21543969   3.777   4.895   0.189  0.0195  0.0149  0.2709
  168MOL   H21643970   3.890   4.904   0.056  1.4253  0.6102  1.4071
  168MOL   H21743971   3.710   5.139   0.150  1.9846  0.8396  0.4845
  168MOL   H21843972   3.852   5.134   7.642  1.0759  0.7434  0.7465
  168MOL   H21943973   3.765   4.984   7.653 -1.3657 -0.2945  0.9385
  168MOL   H22043974   3.913   5.004   7.748  0.2706 -0.3284 -1.5080
  168MOL   H22143975   3.741   5.328   7.751  0.4981  0.7005  1.9032
  168MOL   H22243976   3.638   5.295   7.873  0.8228 -0.6123  0.8022
  168MOL   C22343977   3.563   5.210   7.684 -0.6093  0.0990  0.5437
  168MOL   C22443978   3.482   5.331   7.650 -0.1706  0.4823  0.8618
  168MOL   C22543979   3.450   5.375   7.528  0.2566 -0.2514  0.1699
  168MOL   C22643980   3.479   5.323   7.394 -0.5779  0.6681 -0.2995
  168MOL   C22743981   3.350   5.488   7.537 -0.0358 -0.0320 -0.0694
  168MOL   H22843982   3.507   5.125   7.724  0.5068 -1.0494 -0.3089
  168MOL   H22943983   3.619   5.169   7.601  2.6227 -0.8436  3.0715
  168MOL   H23043984   3.440   5.386   7.733 -1.5327  0.5025  0.1711
  168MOL   H23143985   3.555   5.245   7.401  1.0452  2.2077 -0.2966
  168MOL   H23243986   3.522   5.402   7.332 -1.5683  2.6042  1.4186
  168MOL   H23343987   3.387   5.291   7.346  0.3300 -1.2428 -0.7875
  168MOL   H23443988   3.357   5.558   7.454  0.9965  0.3123  0.3058
  168MOL   H23543989   3.346   5.549   7.627  0.1118 -0.0726 -0.0363
  168MOL   C23643990   3.210   5.431   7.514  0.3793 -0.9062 -0.2818
  168MOL   C23743991   3.094   5.539   7.519 -0.0279 -1.0370  0.3276
  168MOL   C23843992   3.003   5.561   7.423 -0.1049  0.0098  0.3742
  168MOL   C23943993   2.984   5.479   7.298  0.2016 -0.1867 -0.3861
  168MOL   C24043994   2.910   5.686   7.447  0.2944  0.3532 -0.4751
  168MOL   H24143995   3.187   5.360   7.594 -0.1365  2.0782  2.3123
  168MOL   H24243996   3.198   5.373   7.423 -0.5666  2.1752 -2.1758
  168MOL   H24343997   3.102   5.616   7.594  0.3232 -1.1550  0.4121
  168MOL   H24443998   2.890   5.487   7.243 -0.1428 -1.1999  0.0454
  168MOL   H24543999   2.980   5.371   7.315  1.0173 -0.2531 -0.6068
  168MOL   H24644000   3.057   5.493   7.218 -1.2692 -0.6282 -1.8487
  168MOL   H24744001   2.906   5.749   7.358  0.4967  0.8144 -0.1610
  168MOL   H24844002   2.950   5.760   7.516 -1.0434 -0.5636  1.2892
  168MOL   C24944003   2.773   5.644   7.497  0.4698  0.2233 -0.6347
  168MOL   C25044004   2.680   5.763   7.515  0.5183  0.3004 -0.5568
  168MOL   C25144005   2.569   5.799   7.441  0.4267 -0.6807 -0.5634
  168MOL   C25244006   2.501   5.726   7.327  0.2122  0.5305  0.9151
  168MOL   C25344007   2.496   5.922   7.484  0.1753  0.8258 -0.1876
  168MOL   H25444008   2.761   5.593   7.592 -0.1088 -1.5108 -1.6234
  168MOL   H25544009   2.734   5.571   7.426 -0.2044 -0.0651  0.0226
  168MOL   H25644010   2.711   5.831   7.593 -2.1363  1.0123 -0.0775
  168MOL   H25744011   2.458   5.629   7.354  2.0956 -0.8804 -1.0123
  168MOL   H25844012   2.558   5.723   7.235 -0.0088  0.9292  0.7637
  168MOL   H25944013   2.419   5.793   7.300  1.7096 -0.1276 -6.2630
  168MOL   H26044014   2.550   5.979   7.559  0.3654  1.9077 -1.1423
  168MOL   H26144015   2.396   5.889   7.514 -0.1665 -2.0255 -4.0300
  168MOL   H26244016   2.488   6.000   7.408 -1.0780  0.9885  0.1003
  169MOL     C144017   3.880   0.997   5.293  0.0738  0.1749  0.0976
  169MOL     C244018   4.028   1.012   5.325  0.1053  0.1809 -0.1299
  169MOL     C344019   4.096   1.128   5.340  0.4973 -0.7853  0.4253
  169MOL     C444020   4.032   1.270   5.321 -0.4683  0.0380 -0.7169
  169MOL     C544021   4.246   1.119   5.361  0.5169  0.0380 -0.3059
  169MOL     H644022   3.875   0.925   5.212  2.0388 -0.1791  0.2620
  169MOL     H744023   3.822   0.962   5.378 -1.0013 -0.1971 -0.7913
  169MOL     H844024   4.075   0.916   5.334  3.0961  1.7044  1.3051
  169MOL     H944025   4.096   1.335   5.380 -1.6432 -1.0618  1.8218
  169MOL    H1044026   3.927   1.277   5.349 -0.2050  0.2394  0.2365
  169MOL    H1144027   4.048   1.297   5.216  0.2567 -0.5969 -0.7769
  169MOL    H1244028   4.272   1.054   5.444  1.1221 -0.1582 -0.6397
  169MOL    H1344029   4.285   1.210   5.406 -0.5110  0.0699  0.5308
  169MOL    H1444030   3.851   1.091   5.247  0.3210  0.8578  1.3117
  169MOL    C1544031   4.332   1.086   5.247 -0.1501  0.5573 -0.0100
  169MOL    C1644032   4.484   1.118   5.258 -0.0464 -0.0844 -0.0110
  169MOL    C1744033   4.581   1.029   5.226 -0.4053  0.0828 -0.7077
  169MOL    C1844034   4.560   0.885   5.178 -0.1455  0.0197 -0.5811
  169MOL    C1944035   4.725   1.073   5.236 -0.1040 -0.2162 -0.3245
  169MOL    H2044036   4.298   1.143   5.160 -1.6444 -1.0702 -0.5156
  169MOL    H2144037   4.306   0.983   5.224  0.4024  0.3134  0.4516
  169MOL    H2244038   4.514   1.218   5.283  0.4375 -0.0977 -0.5324
  169MOL    H2344039   4.585   0.836   5.272 -1.1352  1.2545  0.3457
  169MOL    H2444040   4.631   0.859   5.100 -1.2666 -2.2941 -0.8723
  169MOL    H2544041   4.459   0.859   5.146 -0.2378  1.7514 -1.7544
  169MOL    H2644042   4.730   1.182   5.229  1.1693 -0.2650 -0.3519
  169MOL    H2744043   4.772   1.038   5.144  1.5414 -2.0982  1.1789
  169MOL    C2844044   4.803   1.030   5.358  0.0093 -0.2699 -0.7048
  169MOL    C2944045   4.948   1.067   5.352  0.8730 -0.2652  0.4569
  169MOL    C3044046   5.059   0.984   5.337  0.4776  0.9128 -0.2196
  169MOL    C3144047   5.059   0.838   5.295 -0.2850  0.4043 -0.2538
  169MOL    C3244048   5.202   1.042   5.344  0.1622 -0.0536  0.2066
  169MOL    H3344049   4.775   0.924   5.354 -2.7940  0.4325 -0.6103
  169MOL    H3444050   4.760   1.073   5.448  1.2161 -0.0897 -0.2112
  169MOL    H3544051   4.967   1.173   5.364  2.5800 -0.3144 -1.4467
  169MOL    H3644052   5.115   0.781   5.370  0.4585  0.7577 -0.5398
  169MOL    H3744053   5.107   0.835   5.198 -0.3642  0.4835 -0.2956
  169MOL    H3844054   4.958   0.797   5.286 -0.6670  0.8239  1.8032
  169MOL    H3944055   5.269   0.959   5.369  0.2120 -0.9594 -2.8126
  169MOL    H4044056   5.195   1.115   5.425 -2.6451  0.0802 -0.1237
  169MOL    C4144057   5.240   1.094   5.203 -0.1229  0.7199 -0.3072
  169MOL    C4244058   5.373   1.162   5.189 -0.0321 -0.0088  0.3889
  169MOL    C4344059   5.395   1.282   5.132 -0.2189  0.3752  0.7746
  169MOL    C4444060   5.293   1.385   5.083  0.4360 -0.9753 -0.1644
  169MOL    C4544061   5.541   1.328   5.120 -0.4218  0.0267 -0.0775
  169MOL    H4644062   5.159   1.157   5.167  1.2002  1.4085 -2.1578
  169MOL    H4744063   5.253   1.014   5.131  0.8544  0.9974 -0.4426
  169MOL    H4844064   5.454   1.105   5.231  1.2218  1.8426  0.5193
  169MOL    H4944065   5.191   1.361   5.114  0.0352  0.6377 -0.2162
  169MOL    H5044066   5.292   1.394   4.975  1.5513 -3.8986 -0.4745
  169MOL    H5144067   5.317   1.484   5.122 -1.2219 -0.9633  0.8731
  169MOL    H5244068   5.618   1.267   5.167 -0.9393 -0.6795 -0.1372
  169MOL    H5344069   5.546   1.415   5.186 -1.5685 -0.5629  0.8080
  169MOL    C5444070   5.599   1.359   4.981  0.0891 -0.0959 -0.3996
  169MOL    C5544071   5.582   1.259   4.866  0.2207 -1.2130 -1.0559
  169MOL    C5644072   5.677   1.177   4.827  0.1919  0.4688  0.1663
  169MOL    C5744073   5.815   1.166   4.894  0.6543 -0.7613  0.0116
  169MOL    C5844074   5.659   1.103   4.695  0.0570 -0.6881  0.3072
  169MOL    H5944075   5.701   1.392   5.001  0.1158 -0.1788 -0.3996
  169MOL    H6044076   5.553   1.450   4.942 -0.5520 -0.8012 -1.3179
  169MOL    H6144077   5.495   1.280   4.805 -0.5159 -0.0340  0.3595
  169MOL    H6244078   5.871   1.255   4.866 -2.1378  0.7952 -0.9090
  169MOL    H6344079   5.874   1.077   4.870  2.2429 -0.4227  2.5623
  169MOL    H6444080   5.814   1.162   5.003 -2.0348 -0.4196  0.0381
  169MOL    H6544081   5.554   1.101   4.668 -1.1830 -3.1732  4.6929
  169MOL    H6644082   5.689   0.999   4.706 -2.5367 -1.5663 -0.5656
  169MOL    C6744083   5.749   1.176   4.587 -0.0732  0.0226 -0.7996
  169MOL    C6844084   5.718   1.132   4.448 -0.0072  0.4856  0.0951
  169MOL    C6944085   5.630   1.190   4.367 -1.0676  0.2128  0.3372
  169MOL    C7044086   5.560   1.315   4.403 -0.0389  0.0855 -0.4297
  169MOL    C7144087   5.587   1.136   4.233 -0.3525 -0.1267 -0.4532
  169MOL    H7244088   5.856   1.169   4.609 -0.0284  0.0476 -1.0104
  169MOL    H7344089   5.725   1.280   4.606  0.6952  0.1173 -0.2978
  169MOL    H7444090   5.775   1.045   4.418 -1.5145 -0.0702 -1.2529
  169MOL    H7544091   5.623   1.396   4.366 -0.5297  1.0575  0.8473
  169MOL    H7644092   5.563   1.335   4.510  0.7189  2.4847 -0.8669
  169MOL    H7744093   5.456   1.314   4.372 -0.3346 -0.0603  0.5684
  169MOL    H7844094   5.677   1.112   4.178  0.9165 -0.4855  1.7329
  169MOL    H7944095   5.530   1.212   4.179 -2.7926 -1.7207 -0.2506
  169MOL    C8044096   5.513   1.003   4.243 -0.5360  0.3372 -0.1814
  169MOL    C8144097   5.442   0.977   4.113  0.4646 -0.0892  0.3149
  169MOL    C8244098   5.406   0.859   4.058  0.3218  0.1348  0.7342
  169MOL    C8344099   5.433   0.722   4.124  0.1746  0.5324 -0.2787
  169MOL    C8444100   5.316   0.847   3.937 -0.5593 -0.5480  0.3883
  169MOL    H8544101   5.443   0.999   4.326 -1.4887 -0.7900 -1.0193
  169MOL    H8644102   5.577   0.918   4.270  1.7687  2.1664  0.2880
  169MOL    H8744103   5.410   1.062   4.054  0.2083 -0.3328  0.1028
  169MOL    H8844104   5.473   0.744   4.223  0.7488 -0.4364 -0.2950
  169MOL    H8944105   5.500   0.661   4.065 -1.1244  0.9847 -2.2612
  169MOL    H9044106   5.346   0.659   4.141  0.3782  0.2667 -0.2345
  169MOL    H9144107   5.286   0.946   3.902 -0.1673 -0.7147 -0.4166
  169MOL    H9244108   5.222   0.796   3.958 -0.3536 -0.2024  2.2240
  169MOL    C9344109   5.392   0.773   3.829 -0.1844 -0.5109  0.3975
  169MOL    C9444110   5.310   0.753   3.701  0.0923  0.3555  0.2449
  169MOL    C9544111   5.245   0.638   3.662  0.2454  1.1044  0.0324
  169MOL    C9644112   5.250   0.511   3.737 -0.1667 -0.0199 -0.1488
  169MOL    C9744113   5.159   0.625   3.534 -0.1029 -0.9325  0.5886
  169MOL    H9844114   5.432   0.676   3.860 -0.5964 -0.2179  1.8685
  169MOL    H9944115   5.489   0.815   3.805  1.4754 -2.9570  2.4854
  169MOL   H10044116   5.309   0.838   3.633 -0.1467 -1.4690 -2.1077
  169MOL   H10144117   5.149   0.493   3.776  0.0613  1.2346  1.0739
  169MOL   H10244118   5.320   0.495   3.818 -1.2754 -2.4406  0.3839
  169MOL   H10344119   5.264   0.430   3.665  0.7195 -1.2261  1.3443
  169MOL   H10444120   5.117   0.724   3.520 -2.3398 -1.9215  0.0621
  169MOL   H10544121   5.068   0.569   3.556  0.2864 -2.1824 -0.9018
  169MOL   C10644122   5.245   0.578   3.415  0.2218  0.0981 -0.6785
  169MOL   C10744123   5.173   0.590   3.285  0.1505 -0.5078  0.3291
  169MOL   C10844124   5.159   0.707   3.215  0.1736  1.0214 -0.6378
  169MOL   C10944125   5.216   0.836   3.266  0.0907  0.5924  0.4888
  169MOL   C11044126   5.106   0.717   3.067 -0.6310 -0.3026  0.5736
  169MOL   H11144127   5.267   0.472   3.433 -1.0677  0.0191  0.5115
  169MOL   H11244128   5.338   0.633   3.408 -0.6048  1.3832 -1.8388
  169MOL   H11344129   5.138   0.499   3.238 -1.4763 -0.3505  1.1728
  169MOL   H11444130   5.239   0.838   3.373  1.2095  1.3820  0.2434
  169MOL   H11544131   5.143   0.915   3.247  0.0759  0.1958 -1.1541
  169MOL   H11644132   5.310   0.858   3.216  0.8129 -0.6567  1.2663
  169MOL   H11744133   5.090   0.615   3.033 -0.9742  0.5842 -1.9616
  169MOL   H11844134   5.172   0.760   2.992 -1.0805  0.9071  0.8569
  169MOL   C11944135   4.967   0.782   3.065 -0.1098  0.5059  0.0079
  169MOL   C12044136   4.903   0.804   2.929  0.0100  0.2278  0.3893
  169MOL   C12144137   4.778   0.761   2.889 -0.1214  0.0862  0.1561
  169MOL   C12244138   4.689   0.672   2.976 -0.7270  0.0305 -0.0251
  169MOL   C12344139   4.721   0.794   2.749 -0.1506 -0.2003 -0.0147
  169MOL   H12444140   4.973   0.881   3.111 -0.7537  0.6534 -0.2190
  169MOL   H12544141   4.909   0.727   3.139  1.9816 -1.6594  0.0767
  169MOL   H12644142   4.961   0.861   2.858  1.5758  0.9923  2.2078
  169MOL   H12744143   4.743   0.641   3.066 -1.3607 -0.0862  0.3164
  169MOL   H12844144   4.663   0.578   2.927  2.6861 -0.0698 -1.8083
  169MOL   H12944145   4.596   0.722   3.002  0.9222  2.4859  1.3849
  169MOL   H13044146   4.732   0.718   2.672  1.0682  0.7749 -0.8209
  169MOL   H13144147   4.775   0.877   2.703 -1.0384  0.0045 -0.6979
  169MOL   C13244148   4.571   0.843   2.751  0.7227 -0.3474 -0.3430
  169MOL   C13344149   4.557   0.973   2.836 -0.2106  0.2602  0.1163
  169MOL   C13444150   4.504   1.088   2.796 -0.3814 -0.1992 -0.6628
  169MOL   C13544151   4.446   1.118   2.662 -0.7585 -0.4188  0.2239
  169MOL   C13644152   4.515   1.209   2.889 -0.1425  0.0587 -0.7403
  169MOL   H13744153   4.509   0.762   2.790 -0.1485  1.2761  1.7258
  169MOL   H13844154   4.539   0.860   2.648 -0.0114 -1.6958 -0.3536
  169MOL   H13944155   4.585   0.971   2.940 -1.2676 -1.3332  0.3931
  169MOL   H14044156   4.440   1.025   2.605  1.4997 -0.5324  0.1439
  169MOL   H14144157   4.510   1.189   2.611 -0.5985  0.3781  1.5033
  169MOL   H14244158   4.347   1.164   2.660  0.6118  2.6245 -0.9221
  169MOL   H14344159   4.576   1.279   2.831  0.0936  1.0209  0.6552
  169MOL   H14444160   4.567   1.185   2.982 -0.8889  0.2791 -0.2696
  169MOL   C14544161   4.377   1.260   2.921 -0.6630  0.2497 -0.1082
  169MOL   C14644162   4.373   1.358   3.035 -0.3402 -0.2067  0.8150
  169MOL   C14744163   4.285   1.371   3.133 -0.0329 -0.2561 -0.9832
  169MOL   C14844164   4.157   1.285   3.133 -0.0166 -0.2456 -0.4001
  169MOL   C14944165   4.296   1.482   3.229  0.4927  0.0472  0.3269
  169MOL   H15044166   4.310   1.176   2.936  1.1509 -1.1351  0.3619
  169MOL   H15144167   4.353   1.326   2.837 -2.8659 -1.4340 -0.8654
  169MOL   H15244168   4.451   1.433   3.042 -0.8423  0.9814 -4.3958
  169MOL   H15344169   4.095   1.335   3.059 -1.8450 -2.3348 -0.3258
  169MOL   H15444170   4.124   1.285   3.237 -0.7755 -0.8783 -0.6379
  169MOL   H15544171   4.156   1.178   3.110 -2.9742 -0.4381  0.3635
  169MOL   H15644172   4.394   1.529   3.213  0.8463 -0.5293  0.7534
  169MOL   H15744173   4.302   1.445   3.332 -1.8219 -2.6791 -0.4863
  169MOL   C15844174   4.175   1.572   3.201 -0.1168 -0.1916 -0.2061
  169MOL   C15944175   4.192   1.694   3.298 -0.3379 -0.4653  0.2398
  169MOL   C16044176   4.115   1.735   3.397 -0.7426 -0.5978  0.2090
  169MOL   C16144177   3.997   1.651   3.451  0.2497  0.2854 -0.3380
  169MOL   C16244178   4.143   1.863   3.470  1.0252  0.0582  0.5085
  169MOL   H16344179   4.077   1.526   3.215 -0.1503 -0.7159 -2.0360
  169MOL   H16444180   4.176   1.603   3.097 -2.0691 -3.3333 -1.2198
  169MOL   H16544181   4.277   1.752   3.267 -1.1126  0.1319 -0.8205
  169MOL   H16644182   4.026   1.564   3.510  0.1060  0.1013 -0.5369
  169MOL   H16744183   3.924   1.629   3.373  0.3708 -0.5590 -0.2151
  169MOL   H16844184   3.933   1.705   3.521 -0.5128 -0.1395 -0.6915
  169MOL   H16944185   4.040   1.899   3.475  0.6981 -1.0409  1.8875
  169MOL   H17044186   4.210   1.927   3.412  0.0656  0.1071 -0.5875
  169MOL   C17144187   4.203   1.830   3.610 -0.7259 -0.3566  0.0853
  169MOL   C17244188   4.317   1.731   3.609  0.5890  0.1664 -0.2498
  169MOL   C17344189   4.445   1.754   3.587 -0.5680  0.3070  0.1162
  169MOL   C17444190   4.497   1.892   3.558  0.9632 -0.0103  0.2417
  169MOL   C17544191   4.547   1.644   3.602 -1.0226  0.0389  0.0752
  169MOL   H17644192   4.123   1.803   3.678 -0.2058 -1.6095  0.2067
  169MOL   H17744193   4.246   1.915   3.664  0.1481 -1.5588  1.3069
  169MOL   H17844194   4.270   1.633   3.616 -0.3058  0.3986 -2.5192
  169MOL   H17944195   4.530   1.907   3.455  1.7332 -0.4492  0.4240
  169MOL   H18044196   4.585   1.912   3.619  1.1767 -0.4693  0.0889
  169MOL   H18144197   4.426   1.973   3.575 -0.0998 -0.6702 -0.9837
  169MOL   H18244198   4.497   1.567   3.660  0.5511 -1.3673 -0.3921
  169MOL   H18344199   4.620   1.687   3.671 -0.5817  0.2578 -0.5205
  169MOL   C18444200   4.628   1.611   3.468  0.2780 -0.1190  0.1002
  169MOL   C18544201   4.710   1.488   3.473  0.2391 -0.1057  0.1229
  169MOL   C18644202   4.743   1.410   3.371 -0.1279 -0.5051 -0.5613
  169MOL   C18744203   4.717   1.449   3.221  0.1028 -0.1043 -0.3714
  169MOL   C18844204   4.832   1.291   3.393  0.1664 -0.4710 -0.1470
  169MOL   H18944205   4.702   1.689   3.453  0.8351 -0.1805  2.3937
  169MOL   H19044206   4.553   1.608   3.390 -1.6940  4.3762  1.6635
  169MOL   H19144207   4.741   1.469   3.574 -1.8752  1.4273  1.1020
  169MOL   H19244208   4.668   1.371   3.162  1.4487 -0.9556 -0.3699
  169MOL   H19344209   4.806   1.482   3.169  1.1536 -1.7760  0.3269
  169MOL   H19444210   4.646   1.533   3.220 -1.1051 -1.0756  1.3025
  169MOL   H19544211   4.834   1.271   3.500 -0.1495 -0.2321 -0.0974
  169MOL   H19644212   4.935   1.318   3.372  0.4668  0.0757  1.9192
  169MOL   C19744213   4.795   1.162   3.320  0.4565 -0.0506  0.1417
  169MOL   C19844214   4.830   1.041   3.397 -0.2788  0.0866 -0.1387
  169MOL   C19944215   4.781   0.915   3.372  0.6661 -0.0475  0.5094
  169MOL   C20044216   4.682   0.888   3.263  0.1051 -0.6083 -0.0502
  169MOL   C20144217   4.822   0.791   3.452 -0.5051  0.7943 -0.2416
  169MOL   H20244218   4.844   1.170   3.223 -0.9218  1.6495 -0.4373
  169MOL   H20344219   4.687   1.166   3.309  0.2498 -0.2720  1.9659
  169MOL   H20444220   4.907   1.064   3.470  0.6112 -0.6190 -0.8388
  169MOL   H20544221   4.674   0.786   3.225 -0.5976 -0.0569 -1.4252
  169MOL   H20644222   4.715   0.937   3.172 -0.9110 -0.4628 -0.3449
  169MOL   H20744223   4.582   0.918   3.293 -0.6345 -1.9219 -1.1450
  169MOL   H20844224   4.900   0.819   3.522 -1.3949  1.5139  0.4706
  169MOL   H20944225   4.854   0.711   3.386 -0.3152  0.5015  0.2047
  169MOL   C21044226   4.700   0.740   3.533 -0.6282 -0.1895  0.8778
  169MOL   C21144227   4.732   0.615   3.610  0.0865  0.3907 -0.1799
  169MOL   C21244228   4.692   0.491   3.580  0.0704  0.5659 -0.0083
  169MOL   C21344229   4.615   0.448   3.452  0.2087  0.1652 -0.2860
  169MOL   C21444230   4.741   0.365   3.652 -0.1172  0.7047  0.0296
  169MOL   H21544231   4.610   0.715   3.477  0.2501 -0.9532 -0.1936
  169MOL   H21644232   4.669   0.817   3.604 -2.4085  0.7054 -0.8429
  169MOL   H21744233   4.805   0.612   3.689 -0.8260  1.9676  0.7679
  169MOL   H21844234   4.652   0.368   3.389  0.1037  1.0626 -1.4979
  169MOL   H21944235   4.593   0.534   3.388 -2.1356 -1.8136 -2.2576
  169MOL   H22044236   4.514   0.411   3.472  1.2135 -1.6731  1.5953
  169MOL   H22144237   4.821   0.383   3.725 -0.2970  1.8852 -0.0516
  169MOL   H22244238   4.794   0.318   3.570  0.2539 -0.4723  0.9340
  169MOL   C22344239   4.637   0.283   3.726 -0.0414  0.4915 -0.3690
  169MOL   C22444240   4.583   0.353   3.855 -0.0348 -0.4635  0.0675
  169MOL   C22544241   4.551   0.294   3.969  0.1172 -0.7672  0.0933
  169MOL   C22644242   4.576   0.147   3.998 -0.2440 -0.6033 -0.8889
  169MOL   C22744243   4.490   0.372   4.084  0.0684  0.3660 -0.1158
  169MOL   H22844244   4.684   0.189   3.755 -0.0185  0.1086 -1.6490
  169MOL   H22944245   4.555   0.260   3.658  1.0102 -0.1672 -1.4231
  169MOL   H23044246   4.558   0.456   3.833  0.5515 -0.0327  1.3993
  169MOL   H23144247   4.619   0.086   3.919  2.0859  1.0315 -0.9355
  169MOL   H23244248   4.480   0.094   3.999 -1.3183  1.3257  0.0691
  169MOL   H23344249   4.618   0.135   4.098 -1.0579  1.8261 -0.2111
  169MOL   H23444250   4.459   0.470   4.048  0.3751 -0.2777 -2.2550
  169MOL   H23544251   4.557   0.395   4.167 -1.7686  0.0739  1.4706
  169MOL   C23644252   4.358   0.307   4.132  0.3998 -0.0282  0.0779
  169MOL   C23744253   4.310   0.379   4.260 -0.3617 -0.2156  0.3072
  169MOL   C23844254   4.207   0.345   4.340  0.7194 -0.2667 -0.0186
  169MOL   C23944255   4.106   0.234   4.300  0.3773 -0.1597 -0.3709
  169MOL   C24044256   4.177   0.409   4.478 -0.4756 -0.9457  0.1594
  169MOL   H24144257   4.373   0.203   4.159 -0.2277 -0.2906 -0.5771
  169MOL   H24244258   4.274   0.314   4.063 -0.0514 -0.3262  0.6011
  169MOL   H24344259   4.380   0.450   4.302  0.6941  0.1197 -1.9477
  169MOL   H24444260   4.158   0.148   4.342 -0.0146 -0.3303 -0.2292
  169MOL   H24544261   4.096   0.199   4.198  1.6407  1.2491 -0.9958
  169MOL   H24644262   4.007   0.239   4.346  0.1115 -2.7355 -0.6147
  169MOL   H24744263   4.072   0.432   4.493 -0.6766 -2.6476  1.3877
  169MOL   H24844264   4.232   0.503   4.481  0.1910 -1.3415  0.6652
  169MOL   C24944265   4.207   0.309   4.591  0.1849  0.2313 -0.0678
  169MOL   C25044266   4.349   0.307   4.636 -0.9451  0.5350 -0.0363
  169MOL   C25144267   4.450   0.224   4.597  0.1512 -0.6336  0.2939
  169MOL   C25244268   4.425   0.102   4.510 -0.7101 -0.1210  0.1150
  169MOL   C25344269   4.593   0.246   4.640 -0.1671 -0.2683 -0.1199
  169MOL   H25444270   4.169   0.209   4.572  0.4477  0.3043 -0.9898
  169MOL   H25544271   4.151   0.346   4.677 -0.9967 -3.2229  0.7303
  169MOL   H25644272   4.385   0.387   4.699 -2.1832  0.9340  0.1877
  169MOL   H25744273   4.460   0.010   4.558 -1.5625 -0.1996  0.6019
  169MOL   H25844274   4.483   0.098   4.417  1.4868 -0.2735  1.4468
  169MOL   H25944275   4.321   0.085   4.481 -0.5169  0.7428 -1.1401
  169MOL   H26044276   4.644   0.300   4.560 -1.6371  0.8659 -0.2985
  169MOL   H26144277   4.651   0.155   4.656  1.0969  0.2535 -1.5915
  169MOL   H26244278   4.590   0.314   4.725 -1.2557 -0.5007  0.0315
  170MOL     C144279   4.934   7.110   0.458 -0.6744 -0.1421 -0.7947
  170MOL     C244280   4.874   7.168   0.335  0.1972  0.1679  0.1132
  170MOL     C344281   4.926   7.269   0.262 -0.2235 -0.2733 -0.3164
  170MOL     C444282   5.059   7.329   0.279 -0.3278 -0.1441  0.2984
  170MOL     C544283   4.855   7.321   0.140  0.6815 -0.0676 -0.4081
  170MOL     H644284   5.023   7.165   0.490 -0.7587 -1.4846  1.8548
  170MOL     H744285   4.871   7.097   0.546  0.6101 -1.5785 -0.0603
  170MOL     H844286   4.776   7.131   0.309 -0.0715  1.1677 -0.3627
  170MOL     H944287   5.142   7.258   0.278 -0.7671 -0.6366 -1.8615
  170MOL    H1044288   5.043   7.380   0.374 -3.3119 -2.1449  0.9354
  170MOL    H1144289   5.099   7.401   0.207 -1.4216  0.3311  0.1650
  170MOL    H1244290   4.766   7.261   0.120 -1.8212  3.2715  0.1776
  170MOL    H1344291   4.926   7.295   0.062  0.4450  0.0702 -0.6741
  170MOL    H1444292   4.978   7.015   0.429  1.1902  0.2444  0.6671
  170MOL    C1544293   4.826   7.468   0.145  0.4760 -0.8491 -0.3159
  170MOL    C1644294   4.735   7.515   0.037 -0.4452  0.2940  1.0537
  170MOL    C1744295   4.617   7.573   0.053  0.1791 -0.1757  0.0653
  170MOL    C1844296   4.556   7.626   0.185 -0.2710 -0.2960 -0.3717
  170MOL    C1944297   4.545   7.626   7.815  0.5740  0.2367  0.5115
  170MOL    H2044298   4.918   7.526   0.135  0.0402  0.1861  1.5615
  170MOL    H2144299   4.773   7.495   0.236 -1.1670  0.1623 -1.5561
  170MOL    H2244300   4.768   7.487   7.821  1.7212  1.2544  1.4621
  170MOL    H2344301   4.594   7.727   0.199  0.5403 -0.2788 -2.5438
  170MOL    H2444302   4.569   7.566   0.276  0.2824  0.9405  0.3853
  170MOL    H2544303   4.448   7.639   0.177 -0.3702  0.8680  2.3290
  170MOL    H2644304   4.442   7.592   7.822 -0.0318  1.9988  0.6357
  170MOL    H2744305   4.588   7.576   7.728  1.2525  0.2837  0.8154
  170MOL    C2844306   4.554   7.782   7.799 -0.0890  0.0767 -0.5574
  170MOL    C2944307   4.501   7.820   7.665 -0.6961  0.4791  0.0944
  170MOL    C3044308   4.490   0.058   7.610 -0.2635 -0.0340 -0.3725
  170MOL    C3144309   4.523   0.186   7.684  0.0583 -0.3348 -0.1611
  170MOL    C3244310   4.472   0.079   7.464  0.0781 -0.4102  0.2138
  170MOL    H3344311   4.658   7.814   7.795 -0.4894  1.7410  1.5044
  170MOL    H3444312   4.495   7.842   7.869 -0.9630 -1.3919 -0.0094
  170MOL    H3544313   4.491   7.737   7.597  0.5387 -1.3052  2.0531
  170MOL    H3644314   4.430   0.241   7.697  0.8355  0.9817 -0.0544
  170MOL    H3744315   4.593   0.259   7.642  0.9027 -1.1852 -0.2342
  170MOL    H3844316   4.555   0.164   7.785  1.1035  0.0940 -0.3931
  170MOL    H3944317   4.435   7.876   7.408 -2.7253  0.8733  0.0369
  170MOL    H4044318   4.571   0.096   7.421 -0.5819  0.7230 -0.8911
  170MOL    C4144319   4.380   0.194   7.424 -0.2150 -0.2261  0.1613
  170MOL    C4244320   4.352   0.209   7.276 -0.6443  0.8764 -0.0198
  170MOL    C4344321   4.243   0.244   7.214 -0.0678 -0.3220  0.0844
  170MOL    C4444322   4.111   0.279   7.281 -0.0284 -0.3090 -0.0174
  170MOL    C4544323   4.243   0.249   7.061 -0.1293 -0.0946  0.0075
  170MOL    H4644324   4.420   0.286   7.467 -0.5367 -0.0205  0.0208
  170MOL    H4744325   4.290   0.169   7.480  2.1508 -3.0951  2.8843
  170MOL    H4844326   4.441   0.184   7.220 -0.1518 -0.5044  1.3357
  170MOL    H4944327   4.073   0.379   7.261 -2.7850 -1.4210 -0.6671
  170MOL    H5044328   4.129   0.277   7.389 -0.4440 -1.1370  0.0377
  170MOL    H5144329   4.036   0.205   7.253 -1.5825  1.2724 -0.1790
  170MOL    H5244330   4.156   0.198   7.020  0.0172 -0.0872 -0.3221
  170MOL    H5344331   4.325   0.185   7.026  1.9039  1.3131  2.0508
  170MOL    C5444332   4.267   0.389   6.996  0.0682 -0.4855  0.0333
  170MOL    C5544333   4.233   0.383   6.848  0.1079 -0.3319 -0.9255
  170MOL    C5644334   4.150   0.470   6.791 -0.4223 -0.2354  0.3460
  170MOL    C5744335   4.092   0.589   6.864 -0.4539  0.3138 -0.1353
  170MOL    C5844336   4.116   0.464   6.641 -0.0702  0.1582 -0.5716
  170MOL    H5944337   4.374   0.397   7.019  0.0005 -1.3007  0.6430
  170MOL    H6044338   4.217   0.469   7.050 -1.8532 -1.2991 -0.5022
  170MOL    H6144339   4.280   0.310   6.784  0.9639  0.0269 -0.7120
  170MOL    H6244340   4.182   0.647   6.882  2.0756 -3.7143  0.6233
  170MOL    H6344341   4.048   0.571   6.962 -1.7022 -1.6549 -1.0126
  170MOL    H6444342   4.025   0.655   6.808  0.2297 -0.8277 -2.3741
  170MOL    H6544343   4.168   0.390   6.581 -0.6632 -0.7707  0.0430
  170MOL    H6644344   4.149   0.557   6.595  1.4935 -1.1126 -2.0662
  170MOL    C6744345   3.964   0.451   6.608  0.4895 -0.1526  0.8360
  170MOL    C6844346   3.934   0.484   6.463 -0.3918 -0.8721 -0.7453
  170MOL    C6944347   3.851   0.424   6.374 -0.2224  0.1389 -1.0795
  170MOL    C7044348   3.753   0.313   6.398 -0.9034 -0.2209 -0.0042
  170MOL    C7144349   3.841   0.476   6.232  0.6151  0.1410 -0.0114
  170MOL    H7244350   3.903   0.529   6.654  0.2467 -0.1644  0.5294
  170MOL    H7344351   3.933   0.357   6.653 -0.1012  1.2286  3.4377
  170MOL    H7444352   3.985   0.572   6.426 -0.5791  0.4069  1.9496
  170MOL    H7544353   3.676   0.307   6.321  1.0892  0.0219 -2.0714
  170MOL    H7644354   3.713   0.309   6.500  1.0194  0.2553  0.7942
  170MOL    H7744355   3.811   0.221   6.389  0.3999  0.4231  1.4463
  170MOL    H7844356   3.843   0.396   6.158  7.3979 -0.1694  0.1275
  170MOL    H7944357   3.936   0.527   6.213 -0.2789  1.1425 -1.8394
  170MOL    C8044358   3.713   0.564   6.219 -0.1185 -0.1512 -0.5411
  170MOL    C8144359   3.709   0.631   6.085 -0.6028  1.1462 -0.1469
  170MOL    C8244360   3.723   0.754   6.055 -0.7965 -1.0166  1.2942
  170MOL    C8344361   3.760   0.858   6.165 -0.7021  0.6296  0.0074
  170MOL    C8444362   3.700   0.805   5.915 -0.3672 -1.1191 -0.3278
  170MOL    H8544363   3.704   0.640   6.297 -3.0876 -0.9068 -0.0940
  170MOL    H8644364   3.621   0.508   6.236 -1.3920  2.2094  0.5605
  170MOL    H8744365   3.668   0.568   6.007 -0.6853  1.6663 -0.5243
  170MOL    H8844366   3.825   0.812   6.239  1.2401  2.6963 -0.3316
  170MOL    H8944367   3.672   0.899   6.215 -1.5053 -1.1647  0.0816
  170MOL    H9044368   3.819   0.941   6.125 -0.6597  0.0424 -1.1677
  170MOL    H9144369   3.659   0.722   5.856  1.7570 -1.2756 -1.6166
  170MOL    H9244370   3.790   0.827   5.858 -1.8986  1.9996 -1.6615
  170MOL    C9344371   3.600   0.919   5.900 -0.1873  0.1502  0.3486
  170MOL    C9444372   3.566   0.962   5.758 -0.1320  0.0587 -0.0072
  170MOL    C9544373   3.561   1.089   5.697 -0.2127  0.4778 -0.3668
  170MOL    C9644374   3.600   1.209   5.779 -0.1072 -0.6137 -0.2886
  170MOL    C9744375   3.544   1.104   5.549  0.1108  0.1601  0.3106
  170MOL    H9844376   3.622   1.007   5.961  1.0634  0.4702 -0.5540
  170MOL    H9944377   3.513   0.872   5.946 -0.7150  1.1287  0.3556
  170MOL   H10044378   3.550   0.876   5.695 -2.6582 -0.1178  0.7990
  170MOL   H10144379   3.706   1.231   5.769 -0.6233  0.9370 -2.8226
  170MOL   H10244380   3.552   1.202   5.877  0.0254 -0.1783 -0.1922
  170MOL   H10344381   3.559   1.304   5.742 -1.6319 -0.4740  1.6856
  170MOL   H10444382   3.441   1.135   5.528 -1.3927 -5.2885 -1.3456
  170MOL   H10544383   3.541   1.004   5.506  0.1999 -0.1833  1.0843
  170MOL   C10644384   3.635   1.199   5.471 -0.0597 -0.0619 -0.9611
  170MOL   C10744385   3.610   1.191   5.319 -0.3036 -0.7077 -0.0008
  170MOL   C10844386   3.595   1.288   5.230  0.6624  0.2495  0.2574
  170MOL   C10944387   3.604   1.440   5.267 -0.0556 -0.0612  0.2838
  170MOL   C11044388   3.562   1.260   5.083  0.0042 -0.6545  0.3012
  170MOL   H11144389   3.737   1.165   5.486 -0.5888 -1.4255 -0.3044
  170MOL   H11244390   3.637   1.295   5.522 -0.4328 -0.1876 -0.7013
  170MOL   H11344391   3.597   1.092   5.276 -1.0795  0.0639 -1.5958
  170MOL   H11444392   3.560   1.513   5.199  0.8154  2.1762  2.0120
  170MOL   H11544393   3.710   1.466   5.267 -0.2675  0.8635 -1.1445
  170MOL   H11644394   3.561   1.459   5.366 -0.5415  1.4300 -0.1938
  170MOL   H11744395   3.471   1.317   5.067  0.3433 -0.1553  0.1275
  170MOL   H11844396   3.547   1.155   5.057 -0.3858 -1.4492  3.5579
  170MOL   C11944397   3.662   1.330   4.976  1.1871  0.8813  0.1719
  170MOL   C12044398   3.799   1.268   4.987  0.1973  0.0140  0.1664
  170MOL   C12144399   3.887   1.226   4.893 -0.2520  0.1245  1.4247
  170MOL   C12244400   3.851   1.234   4.741  0.0591 -0.5136 -0.3848
  170MOL   C12344401   4.016   1.151   4.921  0.2764 -0.5209 -0.0077
  170MOL   H12444402   3.664   1.439   4.986  1.9029  0.8351  0.5465
  170MOL   H12544403   3.622   1.315   4.876 -0.1287  0.3914  0.7506
  170MOL   H12644404   3.822   1.249   5.091 -0.2889 -2.2875 -0.1259
  170MOL   H12744405   3.919   1.304   4.693 -1.8788  1.4376 -0.3538
  170MOL   H12844406   3.746   1.257   4.721 -0.3839 -0.7534  1.5255
  170MOL   H12944407   3.871   1.131   4.710  1.8724 -0.1718 -0.3852
  170MOL   H13044408   4.000   1.044   4.932  0.5082 -0.8546 -2.6144
  170MOL   H13144409   4.060   1.197   5.010  1.2466 -3.5098  1.1082
  170MOL   C13244410   4.120   1.178   4.811  0.2731 -0.4055  0.1311
  170MOL   C13344411   4.263   1.147   4.855  0.7342  0.5004 -0.1474
  170MOL   C13444412   4.376   1.212   4.828 -0.4784  0.4125 -0.2360
  170MOL   C13544413   4.386   1.356   4.788  0.0824  0.6319  0.1519
  170MOL   C13644414   4.504   1.157   4.879  0.8101  0.2722  0.2099
  170MOL   H13744415   4.117   1.284   4.788  0.9659 -0.4289 -0.0940
  170MOL   H13844416   4.098   1.119   4.722 -1.8851 -0.7597  0.8706
  170MOL   H13944417   4.261   1.051   4.903 -2.2219  0.5861  0.0095
  170MOL   H14044418   4.313   1.372   4.708  0.9297  0.1474 -0.7300
  170MOL   H14144419   4.479   1.399   4.751  0.7940 -0.4014  0.7493
  170MOL   H14244420   4.360   1.423   4.870  1.5776  1.0526  0.2869
  170MOL   H14344421   4.469   1.069   4.933 -2.1893  0.0668 -1.9437
  170MOL   H14444422   4.550   1.228   4.948  0.1785  0.5069  0.3910
  170MOL   C14544423   4.602   1.120   4.764 -0.4015  0.1436  0.2890
  170MOL   C14644424   4.725   1.042   4.810  0.2922  0.2405 -1.1238
  170MOL   C14744425   4.833   1.095   4.874 -0.1707 -0.2928 -0.5625
  170MOL   C14844426   4.858   1.243   4.900 -0.2876  0.1019 -0.5059
  170MOL   C14944427   4.933   0.993   4.931  0.2638  0.3681  0.6185
  170MOL   H15044428   4.631   1.208   4.706  0.2907  1.6431  2.8320
  170MOL   H15144429   4.546   1.050   4.702  0.5720 -0.0606 -0.3790
  170MOL   H15244430   4.709   0.935   4.815 -0.9094  0.4893  1.7190
  170MOL   H15344431   4.937   1.284   4.837  0.4449  1.3331  1.1660
  170MOL   H15444432   4.873   1.254   5.008 -0.7671 -0.9806 -0.3168
  170MOL   H15544433   4.776   1.308   4.868  1.2543  2.2106 -0.2746
  170MOL   H15644434   4.874   0.905   4.956 -1.8351  2.1326  2.0669
  170MOL   H15744435   4.961   1.041   5.025  1.2266  1.7655 -0.3534
  170MOL   C15844436   5.048   0.961   4.841  0.0368 -0.0483  0.1130
  170MOL   C15944437   5.133   0.844   4.901 -0.3241 -0.3582 -0.4548
  170MOL   C16044438   5.265   0.841   4.916  0.3797  0.1841  0.1810
  170MOL   C16144439   5.355   0.948   4.851 -0.3642 -0.2219 -0.3959
  170MOL   C16244440   5.331   0.734   4.996  0.1046  0.6022  0.6699
  170MOL   H16344441   5.104   1.047   4.805 -1.0033  0.5224 -0.1399
  170MOL   H16444442   5.003   0.916   4.752 -0.6529 -0.0745  0.4702
  170MOL   H16544443   5.075   0.761   4.938 -0.3169 -0.2243 -0.1475
  170MOL   H16644444   5.428   0.974   4.928 -1.9750  2.6901  0.2124
  170MOL   H16744445   5.302   1.036   4.815  1.2738  1.2376  0.6488
  170MOL   H16844446   5.408   0.908   4.764 -0.0308 -0.8087  0.0720
  170MOL   H16944447   5.261   0.689   5.067 -1.1675  1.2177 -0.1819
  170MOL   H17044448   5.402   0.781   5.064  0.6764  1.3490 -0.4302
  170MOL   C17144449   5.400   0.627   4.919 -0.4142  0.8509  0.3693
  170MOL   C17244450   5.455   0.506   4.995 -0.2618 -0.0055 -0.0899
  170MOL   C17344451   5.576   0.453   4.990 -0.3959  0.1114 -0.0913
  170MOL   C17444452   5.690   0.517   4.908  0.0906  0.4692 -0.1431
  170MOL   C17544453   5.619   0.314   5.046  0.3017 -0.0701 -0.2463
  170MOL   H17644454   5.475   0.671   4.853  0.2551 -1.8923 -0.7774
  170MOL   H17744455   5.339   0.583   4.840  0.2556  0.5925 -0.0140
  170MOL   H17844456   5.379   0.455   5.052 -1.0795  1.0149 -0.2401
  170MOL   H17944457   5.692   0.623   4.935  1.0665  0.4236 -0.0183
  170MOL   H18044458   5.689   0.508   4.799 -2.3457  0.1401 -0.1206
  170MOL   H18144459   5.788   0.482   4.940  0.0004  0.3999  0.0532
  170MOL   H18244460   5.727   0.299   5.049  0.5665  0.6314 -3.9967
  170MOL   H18344461   5.590   0.233   4.980 -1.2725 -1.2070  1.8058
  170MOL   C18444462   5.569   0.270   5.184  0.5529 -0.1004  0.6270
  170MOL   C18544463   5.627   0.330   5.302 -0.1463 -0.5579  0.7454
  170MOL   C18644464   5.649   0.268   5.418 -1.1467  0.2921 -0.4456
  170MOL   C18744465   5.645   0.116   5.444  0.2601 -0.8433 -0.4652
  170MOL   C18844466   5.697   0.350   5.535 -0.0014 -0.1983 -0.6779
  170MOL   H18944467   5.579   0.161   5.189  2.0529 -0.0658 -1.2649
  170MOL   H19044468   5.461   0.284   5.192 -0.1552 -3.1645 -2.2851
  170MOL   H19144469   5.626   0.438   5.297 -2.1398 -0.4407  2.6858
  170MOL   H19244470   5.718   0.065   5.381 -1.2177 -2.7636 -0.6975
  170MOL   H19344471   5.543   0.077   5.439 -1.0195  2.4445 -0.7981
  170MOL   H19444472   5.670   0.101   5.549 -1.8633  1.5714  0.4127
  170MOL   H19544473   5.623   0.357   5.614 -1.8872 -2.1870 -2.2223
  170MOL   H19644474   5.715   0.451   5.497  1.5392 -0.6858 -1.2850
  170MOL   C19744475   5.835   0.297   5.578 -0.2531 -1.0180  0.1762
  170MOL   C19844476   5.897   0.371   5.700 -0.5564  0.8982  1.3388
  170MOL   C19944477   5.999   0.460   5.696 -0.1534 -0.3412  0.2000
  170MOL   C20044478   6.063   0.506   5.564  0.9143 -0.4927 -0.0814
  170MOL   C20144479   6.055   0.517   5.827  0.5827  0.4326 -0.0418
  170MOL   H20244480   5.909   0.317   5.501 -0.0076  0.6525  0.8157
  170MOL   H20344481   5.834   0.190   5.600  1.3531 -0.7264  1.8742
  170MOL   H20444482   5.868   0.335   5.798 -0.6482 -0.1929  0.9198
  170MOL   H20544483   6.132   0.589   5.580  0.3681 -0.3375  1.4975
  170MOL   H20644484   5.992   0.526   5.483 -0.1897  1.9624  1.4133
  170MOL   H20744485   6.122   0.423   5.526 -0.2950 -0.8179 -1.2834
  170MOL   H20844486   5.995   0.480   5.910 -0.0320  0.0154 -0.6601
  170MOL   H20944487   6.031   0.623   5.824 -3.1308 -0.3376  0.3599
  170MOL   C21044488   6.197   0.467   5.844 -0.0437  0.0249 -0.0778
  170MOL   C21144489   6.267   0.495   5.973 -1.3707 -0.1438 -0.3128
  170MOL   C21244490   6.344   0.605   5.992  0.5871 -0.6434 -0.1469
  170MOL   C21344491   6.338   0.728   5.899  0.3431  0.4319  0.1834
  170MOL   C21444492   6.437   0.622   6.101 -1.2395 -0.4505 -1.6006
  170MOL   H21544493   6.260   0.525   5.775  0.8279 -1.8020 -0.8443
  170MOL   H21644494   6.201   0.360   5.825 -1.8085  0.3857 -2.7819
  170MOL   H21744495   6.264   0.414   6.045  0.3561 -1.2968 -1.4904
  170MOL   H21844496   6.231   0.740   5.880 -0.2391 -2.8029  1.1264
  170MOL   H21944497   6.396   0.711   5.808  0.4506  0.0972  0.3113
  170MOL   H22044498   6.376   0.812   5.956  0.4120 -0.8439  2.0527
  170MOL   H22144499   6.450   0.530   6.158  1.7522 -0.7446 -2.7061
  170MOL   H22244500   6.404   0.699   6.171  2.4266 -1.5721  1.5727
  170MOL   C22344501   6.587   0.649   6.058  0.4339 -0.3018 -0.4987
  170MOL   C22444502   6.674   0.672   6.180 -0.0021  0.1247  0.6399
  170MOL   C22544503   6.663   0.776   6.267  0.4198  0.5800  0.4088
  170MOL   C22644504   6.581   0.904   6.241  0.5651  0.4842 -0.0213
  170MOL   C22744505   6.762   0.784   6.387 -0.2171 -0.5462 -0.3650
  170MOL   H22844506   6.595   0.731   5.987  0.7597 -0.0662 -0.1927
  170MOL   H22944507   6.621   0.559   6.008 -2.1568 -0.8778 -1.2776
  170MOL   H23044508   6.746   0.594   6.203 -1.4291 -1.3800  0.0609
  170MOL   H23144509   6.505   0.893   6.164 -2.7173 -1.0812  3.2753
  170MOL   H23244510   6.646   0.986   6.214  0.3973  0.7569  0.3939
  170MOL   H23344511   6.544   0.925   6.341 -0.6906 -1.2117 -0.0946
  170MOL   H23444512   6.778   0.882   6.430 -1.1904  0.1364 -1.5514
  170MOL   H23544513   6.862   0.758   6.351 -0.4967 -0.7991 -0.9738
  170MOL   C23644514   6.718   0.685   6.499 -0.4796 -0.1851 -0.2993
  170MOL   C23744515   6.814   0.690   6.618  0.6030 -0.1194  1.2223
  170MOL   C23844516   6.792   0.753   6.735 -0.8969 -0.0129  0.1686
  170MOL   C23944517   6.671   0.836   6.768  0.4085 -0.2386  0.1805
  170MOL   C24044518   6.889   0.725   6.848  0.2786 -0.7801  0.0832
  170MOL   H24144519   6.710   0.582   6.465 -0.6784 -0.2511 -0.0612
  170MOL   H24244520   6.622   0.708   6.546  0.4727  0.4258  1.3793
  170MOL   H24344521   6.907   0.638   6.600 -0.4901 -1.6559 -0.1682
  170MOL   H24444522   6.594   0.783   6.824  1.3608 -2.0765 -0.2099
  170MOL   H24544523   6.631   0.887   6.681  0.4575 -2.9634 -1.4895
  170MOL   H24644524   6.715   0.912   6.833  1.1461 -0.7078  0.2425
  170MOL   H24744525   6.926   0.624   6.831  3.3259  0.2584  0.3344
  170MOL   H24844526   6.830   0.723   6.940  2.5750 -1.3244  1.5641
  170MOL   C24944527   7.009   0.820   6.851 -0.1823  0.0728 -0.0279
  170MOL   C25044528   7.111   0.798   6.965  0.1409 -0.2258 -0.1053
  170MOL   C25144529   7.113   0.856   7.089  0.6610  0.0860  0.9103
  170MOL   C25244530   7.013   0.961   7.135  0.2993  0.7077  0.0525
  170MOL   C25344531   7.222   0.832   7.192  0.4671  0.4405 -0.4758
  170MOL   H25444532   6.982   0.925   6.857  0.9306  0.4452 -1.2263
  170MOL   H25544533   7.066   0.810   6.758 -0.7664 -1.5900 -0.2275
  170MOL   H25644534   7.189   0.725   6.954  0.1999 -0.5288  2.0973
  170MOL   H25744535   7.058   1.057   7.157 -0.3980  0.6425  1.8753
  170MOL   H25844536   6.945   0.916   7.208 -0.7163 -0.1054 -1.3864
  170MOL   H25944537   6.945   0.998   7.059  1.4107 -0.2056 -1.3939
  170MOL   H26044538   7.179   0.769   7.269 -0.8183  1.5454 -0.2659
  170MOL   H26144539   7.257   0.926   7.234  4.1643 -0.5048 -1.2689
  170MOL   H26244540   7.306   0.781   7.144 -0.9390  0.0203 -2.5864
  171MOL     C144541   0.904   7.242   3.535 -0.4027 -0.1494 -0.5605
  171MOL     C244542   0.769   7.193   3.589 -0.4360  0.7480  0.0043
  171MOL     C344543   0.733   7.179   3.716 -0.0886 -0.8098  0.2402
  171MOL     C444544   0.804   7.234   3.838  0.2157 -0.0305 -0.4551
  171MOL     C544545   0.599   7.130   3.744  0.0716 -0.5657 -0.2622
  171MOL     H644546   0.967   7.290   3.609  0.6614 -3.8471  1.0630
  171MOL     H744547   0.955   7.155   3.493  0.6874  0.5589 -0.7314
  171MOL     H844548   0.705   7.154   3.511 -2.8564  1.8325  1.4234
  171MOL     H944549   0.879   7.161   3.869  0.1806  0.4184  0.7010
  171MOL    H1044550   0.737   7.249   3.922  1.2966  2.2392  0.0454
  171MOL    H1144551   0.868   7.321   3.826  0.7709 -0.3071  0.3997
  171MOL    H1244552   0.535   7.124   3.656 -1.5878 -0.6557  0.9281
  171MOL    H1344553   0.554   7.187   3.825  0.8801  1.0748 -0.9546
  171MOL    H1444554   0.894   7.314   3.453  1.9300 -0.3277 -1.0393
  171MOL    C1544555   0.622   6.987   3.790  0.0726 -0.1867 -0.2055
  171MOL    C1644556   0.488   6.922   3.847 -0.3952 -0.1739 -0.5424
  171MOL    C1744557   0.419   6.824   3.787 -0.3151  0.5369 -0.4883
  171MOL    C1844558   0.451   6.755   3.655 -0.4186  0.0415  0.1778
  171MOL    C1944559   0.302   6.756   3.855 -0.4993  0.1894  0.2033
  171MOL    H2044560   0.699   6.970   3.866  0.5136  0.9376 -0.3864
  171MOL    H2144561   0.649   6.931   3.700  0.6785 -1.7969  0.9571
  171MOL    H2244562   0.452   6.964   3.940  0.4530 -1.2823  0.3060
  171MOL    H2344563   0.368   6.707   3.604  0.2573 -1.4018  0.4178
  171MOL    H2444564   0.539   6.693   3.669 -0.1409 -0.2487 -2.6528
  171MOL    H2544565   0.495   6.826   3.585  1.0266  1.2286  2.2051
  171MOL    H2644566   0.325   6.650   3.855 -0.3223  0.1918 -2.5677
  171MOL    H2744567   0.220   6.760   3.783  0.5724 -0.1000 -1.0555
  171MOL    C2844568   0.255   6.806   3.996  0.1186  0.5801  0.0796
  171MOL    C2944569   0.145   6.709   4.041 -1.1393 -0.6405  0.3002
  171MOL    C3044570   0.017   6.732   4.078 -0.2849  0.1035  0.9075
  171MOL    C3144571   7.844   6.874   4.086 -0.5488 -0.0855 -0.3660
  171MOL    C3244572   7.813   6.618   4.117 -0.0529  0.0254 -0.2505
  171MOL    H3344573   0.220   6.908   3.983 -0.9590  0.0183 -1.5678
  171MOL    H3444574   0.340   6.800   4.065 -1.7367  0.8200  2.4169
  171MOL    H3544575   0.188   6.610   4.048 -1.6937 -1.2251 -3.5745
  171MOL    H3644576   0.034   6.950   4.058  0.0632 -1.7827 -3.5728
  171MOL    H3744577   7.815   6.902   4.187  0.9493  0.2567 -0.0151
  171MOL    H3844578   7.765   6.888   4.012 -0.5038 -1.4631 -0.6922
  171MOL    H3944579   7.818   6.524   4.061  1.5529 -1.8686  2.9286
  171MOL    H4044580   7.712   6.658   4.111 -0.4127 -0.7818  0.2672
  171MOL    C4144581   7.845   6.586   4.263 -1.1673 -0.1604 -0.1276
  171MOL    C4244582   7.754   6.477   4.323 -0.2233 -0.5425  0.3756
  171MOL    C4344583   7.711   6.474   4.448 -0.2074  0.4096  0.3621
  171MOL    C4444584   7.765   6.561   4.564  0.2695  0.7244  0.3092
  171MOL    C4544585   7.612   6.360   4.484  0.0623  0.0391 -0.2058
  171MOL    H4644586   7.827   6.671   4.329 -0.2223 -0.0209 -0.0392
  171MOL    H4744587   0.070   6.570   4.270 -1.1161  0.4116  0.4453
  171MOL    H4844588   7.714   6.412   4.247 -0.4644  0.0711 -0.0312
  171MOL    H4944589   7.691   6.610   4.627  0.7732  0.3554  1.1876
  171MOL    H5044590   7.839   6.637   4.538  0.7454 -0.0093 -0.4832
  171MOL    H5144591   7.824   6.488   4.620  0.3186 -0.4964 -1.2906
  171MOL    H5244592   7.589   6.303   4.394  1.2147  0.2787 -0.6516
  171MOL    H5344593   7.516   6.402   4.517  0.6293  0.0376  1.5017
  171MOL    C5444594   7.674   6.261   4.592 -0.6144  0.6832 -0.3126
  171MOL    C5544595   7.581   6.146   4.620 -0.1821  0.5777 -0.4079
  171MOL    C5644596   7.594   6.016   4.580 -0.0057 -0.1621  0.1124
  171MOL    C5744597   7.699   5.974   4.477  0.6023  0.4359 -0.0735
  171MOL    C5844598   7.494   5.906   4.618  0.4795 -0.5233  0.0891
  171MOL    H5944599   7.695   6.315   4.684  1.4952 -2.1119  0.9133
  171MOL    H6044600   7.774   6.232   4.561  0.5168  0.8924  2.9458
  171MOL    H6144601   7.503   6.170   4.691 -2.2600  0.5450 -2.6066
  171MOL    H6244602   7.729   5.869   4.468 -0.5467  0.0437  0.4836
  171MOL    H6344603   7.792   6.028   4.488  1.7852 -1.2277 -1.5990
  171MOL    H6444604   7.665   6.007   4.379 -2.1314  1.9841  1.3408
  171MOL    H6544605   7.449   5.907   4.717  1.6310  0.0819  0.6242
  171MOL    H6644606   7.542   5.809   4.631 -1.9696 -1.9210 -1.0219
  171MOL    C6744607   7.399   5.880   4.497  0.3331  0.3666  0.2020
  171MOL    C6844608   7.295   5.770   4.511 -0.1966  0.2396  0.2177
  171MOL    C6944609   7.161   5.771   4.472 -0.1065 -0.0993  0.0700
  171MOL    C7044610   7.094   5.888   4.403  0.4452  0.4836  0.0976
  171MOL    C7144611   7.069   5.650   4.497 -0.1022  0.2501 -0.0809
  171MOL    H7244612   7.465   5.843   4.420  2.0155  0.0765  1.7482
  171MOL    H7344613   7.356   5.975   4.463 -0.3301 -0.2271 -0.6268
  171MOL    H7444614   7.329   5.677   4.556 -1.7785 -1.0046 -1.1104
  171MOL    H7544615   7.035   5.869   4.314  0.0307  3.0198 -0.2130
  171MOL    H7644616   7.157   5.975   4.385 -2.0276  2.1530 -0.7428
  171MOL    H7744617   7.022   5.914   4.480 -1.1604  0.3800 -1.3502
  171MOL    H7844618   6.973   5.693   4.525 -1.1209 -2.5705  0.9605
  171MOL    H7944619   7.109   5.599   4.585 -0.9486 -0.9865 -0.4002
  171MOL    C8044620   7.041   5.555   4.380  0.7719 -0.1704 -0.2099
  171MOL    C8144621   7.164   5.477   4.338  0.1748 -0.7017  0.0737
  171MOL    C8244622   7.197   5.355   4.376  0.0816  0.0698  0.2743
  171MOL    C8344623   7.120   5.278   4.481 -0.5289  0.1771 -0.7243
  171MOL    C8444624   7.323   5.286   4.320  0.1580  0.1656 -0.9351
  171MOL    H8544625   7.001   5.622   4.304 -1.5420  0.8907  1.8894
  171MOL    H8644626   6.960   5.485   4.398 -0.6031  1.4612  0.1100
  171MOL    H8744627   7.237   5.532   4.282 -2.1505  1.5324 -0.8233
  171MOL    H8844628   7.129   5.170   4.467  0.5310  0.2802 -0.9111
  171MOL    H8944629   7.013   5.298   4.484 -0.9253 -2.0525  1.2111
  171MOL    H9044630   7.154   5.292   4.583 -2.2482  0.6809 -0.2164
  171MOL    H9144631   7.373   5.243   4.406 -1.5564  0.3227  0.1565
  171MOL    H9244632   7.386   5.369   4.287 -1.0420  1.6923  0.4893
  171MOL    C9344633   7.294   5.193   4.200 -0.1670 -0.1323 -0.3436
  171MOL    C9444634   7.411   5.164   4.106 -0.1761  0.0495 -0.6774
  171MOL    C9544635   7.446   5.044   4.060  1.0403 -0.2228  0.2314
  171MOL    C9644636   7.353   4.925   4.079 -0.1242 -0.7464  0.5778
  171MOL    C9744637   7.583   5.024   3.995  0.6758  0.5325 -0.2359
  171MOL    H9844638   7.221   5.236   4.131  1.4706  0.0335 -2.0293
  171MOL    H9944639   7.247   5.103   4.240  2.3307 -0.4509  1.9545
  171MOL   H10044640   7.467   5.250   4.073  0.8120 -0.1890  0.3162
  171MOL   H10144641   7.382   4.858   4.160 -0.4874 -1.1326  0.3932
  171MOL   H10244642   7.362   4.861   3.990  0.2996  1.1070 -0.7327
  171MOL   H10344643   7.249   4.955   4.081 -0.0005 -0.2449 -0.4854
  171MOL   H10444644   7.617   5.123   3.966 -0.3932  0.7581 -0.7377
  171MOL   H10544645   7.577   4.956   3.909  0.8802 -1.3960  1.2287
  171MOL   C10644646   7.675   4.958   4.103  0.2557  0.2069  0.5520
  171MOL   C10744647   7.813   4.932   4.044  0.1224 -0.0854 -0.2152
  171MOL   C10844648   0.044   4.921   4.117  0.2637  0.3291 -0.2764
  171MOL   C10944649   0.045   4.934   4.266  0.6176  0.4806  0.8093
  171MOL   C11044650   0.182   4.898   4.069 -0.1822 -0.5787 -0.3637
  171MOL   H11144651   7.630   4.865   4.139 -0.2598  0.1840 -0.1292
  171MOL   H11244652   7.678   5.032   4.183  0.3262 -0.7978  1.4872
  171MOL   H11344653   7.816   4.937   3.936 -0.3379  0.3786 -0.2104
  171MOL   H11444654   0.044   4.835   4.311 -2.6811 -0.5514 -1.3791
  171MOL   H11544655   7.847   5.002   4.293 -0.5245 -0.0320 -1.1859
  171MOL   H11644656   0.137   4.985   4.296  0.6811  0.0659  1.3204
  171MOL   H11744657   0.172   4.872   3.964  1.7147  0.0218 -0.7185
  171MOL   H11844658   0.228   4.820   4.130  1.6229  1.5639  1.1216
  171MOL   C11944659   0.279   5.021   4.063 -0.3938 -0.6716 -0.4491
  171MOL   C12044660   0.422   4.970   4.046 -0.3054 -0.3410 -0.4593
  171MOL   C12144661   0.536   5.002   4.112 -0.2637  0.1350 -0.0856
  171MOL   C12244662   0.541   5.096   4.227 -0.0936 -0.3651  0.2387
  171MOL   C12344663   0.670   4.944   4.074 -0.2859  0.5289 -0.2493
  171MOL   H12444664   0.272   5.083   4.152 -0.8316 -0.0851 -0.8840
  171MOL   H12544665   0.256   5.082   3.975  0.1404  1.3418  0.7584
  171MOL   H12644666   0.428   4.907   3.958 -1.4650  0.7854 -1.3712
  171MOL   H12744667   0.440   5.120   4.261 -0.3667 -0.6951 -0.3508
  171MOL   H12844668   0.569   5.196   4.192  0.0762 -0.2737  0.6229
  171MOL   H12944669   0.599   5.058   4.312 -1.4632  1.0162  1.8376
  171MOL   H13044670   0.704   4.894   4.165 -0.5924  2.1074  0.7584
  171MOL   H13144671   0.746   5.020   4.056 -1.1258  1.4639  0.1175
  171MOL   C13244672   0.672   4.842   3.963 -0.2096  0.5771  0.2009
  171MOL   C13344673   0.790   4.753   3.943 -0.2734  0.2077 -0.8167
  171MOL   C13444674   0.824   4.655   4.023 -0.0758  0.1316 -0.1728
  171MOL   C13544675   0.758   4.625   4.157 -0.4965 -0.4271  0.7566
  171MOL   C13644676   0.935   4.563   3.979 -0.0367  0.8284 -0.6179
  171MOL   H13744677   0.661   4.893   3.867  1.5029 -1.8029 -1.3219
  171MOL   H13844678   0.587   4.774   3.962  1.5666 -1.7116  0.0962
  171MOL   H13944679   0.856   4.779   3.862 -1.2315 -0.7251 -1.9257
  171MOL   H14044680   0.677   4.696   4.175  0.1490  0.6040 -0.2741
  171MOL   H14144681   0.833   4.610   4.235 -0.2561 -0.8165  0.4526
  171MOL   H14244682   0.714   4.527   4.143  0.7188 -0.9524  0.5765
  171MOL   H14344683   0.956   4.574   3.872 -0.5884 -2.4015 -1.1090
  171MOL   H14444684   0.898   4.461   3.987 -1.9073  1.5817  0.3572
  171MOL   C14544685   1.060   4.581   4.067 -0.9150 -0.7243 -0.8058
  171MOL   C14644686   1.194   4.547   4.012 -0.3925  0.0831 -0.4808
  171MOL   C14744687   1.301   4.620   4.012 -0.2219 -0.9662  0.0962
  171MOL   C14844688   1.295   4.764   4.065  0.1607  0.2708 -0.6633
  171MOL   C14944689   1.435   4.572   3.967  0.0664  0.4210 -0.1034
  171MOL   H15044690   1.052   4.534   4.165 -1.6928  0.3561 -0.3462
  171MOL   H15144691   1.065   4.684   4.102  0.9882 -0.8695 -0.5752
  171MOL   H15244692   1.193   4.453   3.959 -0.2845  0.8741 -1.9161
  171MOL   H15344693   1.224   4.812   3.997 -1.3183  0.3917  0.9159
  171MOL   H15444694   1.390   4.817   4.054  0.4304  0.1283  0.8390
  171MOL   H15544695   1.248   4.772   4.163 -0.0457  0.7154 -0.7929
  171MOL   H15644696   1.522   4.613   4.019  0.2630  0.6527 -0.6164
  171MOL   H15744697   1.440   4.609   3.865 -0.0136 -0.7708 -0.5485
  171MOL   C15844698   1.449   4.420   3.937  0.5763  0.0667  0.0799
  171MOL   C15944699   1.473   4.338   4.064 -0.1100  0.5619 -1.1334
  171MOL   C16044700   1.575   4.252   4.089  0.7586 -0.5100  0.6542
  171MOL   C16144701   1.690   4.217   3.995 -0.1860  0.1268 -0.4769
  171MOL   C16244702   1.564   4.169   4.219 -0.2910  0.3553 -0.7069
  171MOL   H16344703   1.532   4.410   3.866  0.3638  1.3969 -0.3830
  171MOL   H16444704   1.371   4.378   3.874 -1.2060  1.4606  1.2827
  171MOL   H16544705   1.399   4.354   4.141  1.0022 -0.6039  0.2069
  171MOL   H16644706   1.701   4.285   3.911  0.8996  1.5236  0.7649
  171MOL   H16744707   1.695   4.113   3.963 -1.4746 -0.0022 -0.2802
  171MOL   H16844708   1.782   4.232   4.052 -0.2986 -1.6705  0.2442
  171MOL   H16944709   1.565   4.062   4.201 -1.2140  0.2845 -0.3708
  171MOL   H17044710   1.467   4.184   4.267  0.9751 -0.7591  2.2948
  171MOL   C17144711   1.665   4.210   4.329 -0.0351  0.0738 -0.0592
  171MOL   C17244712   1.638   4.133   4.458  0.9494  0.1790  0.3389
  171MOL   C17344713   1.730   4.094   4.550 -0.1456  0.3567 -0.2319
  171MOL   C17444714   1.881   4.123   4.536  0.1987 -0.3855  0.3268
  171MOL   C17544715   1.692   4.011   4.676 -0.3054  0.1331 -1.1557
  171MOL   H17644716   1.653   4.317   4.348 -2.1480 -0.0166 -0.7165
  171MOL   H17744717   1.767   4.188   4.297  0.3331  1.1635  0.3561
  171MOL   H17844718   1.532   4.122   4.476  0.3309  2.2279 -1.7803
  171MOL   H17944719   1.930   4.028   4.519  4.1422  1.4210  1.0281
  171MOL   H18044720   1.931   4.150   4.629  1.9779 -2.6587  0.0564
  171MOL   H18144721   1.909   4.186   4.451 -1.1906 -0.0590  0.0982
  171MOL   H18244722   1.770   3.934   4.680  1.0846  1.4683 -2.2091
  171MOL   H18344723   1.588   3.978   4.679 -0.3822  0.3955  3.9833
  171MOL   C18444724   1.707   4.088   4.806 -0.1939 -0.3305  0.2097
  171MOL   C18544725   1.705   3.994   4.929  0.3002 -0.5608 -0.3463
  171MOL   C18644726   1.809   3.924   4.983  0.2390  0.1679  0.6432
  171MOL   C18744727   1.949   3.927   4.930  0.7212 -0.0173 -0.1433
  171MOL   C18844728   1.785   3.818   5.092  0.3822 -0.2936 -0.4872
  171MOL   H18944729   1.625   4.157   4.827  1.7025  1.5764  1.5625
  171MOL   H19044730   1.806   4.131   4.824 -0.2138 -0.2349  0.0960
  171MOL   H19144731   1.608   3.972   4.970  0.8917 -0.5178  1.1201
  171MOL   H19244732   2.019   3.982   4.992 -1.8000  0.2679  2.5954
  171MOL   H19344733   1.955   3.963   4.827 -0.6089  0.7532  0.0244
  171MOL   H19444734   1.993   3.827   4.928 -1.5535 -1.0933  1.2485
  171MOL   H19544735   1.802   3.717   5.055  0.9073 -0.7167  0.8491
  171MOL   H19644736   1.682   3.806   5.125  1.0876 -0.2457  1.8830
  171MOL   C19744737   1.867   3.847   5.222 -0.4336  0.0621 -0.2844
  171MOL   C19844738   1.835   3.992   5.267 -0.6267 -0.3196 -0.4030
  171MOL   C19944739   1.755   4.029   5.375  0.2215  0.4211 -0.5790
  171MOL   C20044740   1.703   3.920   5.472  0.2751  0.1354 -0.7082
  171MOL   C20144741   1.721   4.171   5.400 -0.5906  0.5769 -0.5125
  171MOL   H20244742   1.970   3.846   5.185 -0.6417  1.4830 -0.9558
  171MOL   H20344743   1.861   3.766   5.295 -0.2814 -0.5512 -0.9450
  171MOL   H20444744   1.868   4.074   5.205  1.5705  0.3043  1.5282
  171MOL   H20544745   1.597   3.938   5.490  0.4665 -0.0302  0.5824
  171MOL   H20644746   1.756   3.917   5.567  2.4791 -3.4038 -1.9565
  171MOL   H20744747   1.711   3.823   5.424 -0.8408 -0.5253  0.4129
  171MOL   H20844748   1.803   4.237   5.371 -0.8675  1.3061  0.3554
  171MOL   H20944749   1.717   4.171   5.509 -3.0882  0.6894 -0.5857
  171MOL   C21044750   1.584   4.204   5.347 -0.1041  0.8425  0.5271
  171MOL   C21144751   1.576   4.353   5.356  0.1027  0.0225  0.1320
  171MOL   C21244752   1.598   4.441   5.253  0.0576  0.4076  0.4441
  171MOL   C21344753   1.667   4.404   5.127 -0.7224  0.6454 -0.0457
  171MOL   C21444754   1.558   4.589   5.263 -0.2152 -0.2843  0.3879
  171MOL   H21544755   1.512   4.153   5.411 -2.9464  0.4737 -2.8385
  171MOL   H21644756   1.554   4.176   5.246  1.1918  1.4349 -0.0318
  171MOL   H21744757   1.529   4.385   5.448 -1.8047 -0.8392 -0.5022
  171MOL   H21844758   1.596   4.416   5.045 -1.3102 -1.1396  0.1637
  171MOL   H21944759   1.693   4.298   5.127 -0.1758  0.7667 -1.4802
  171MOL   H22044760   1.755   4.464   5.107 -1.1242  0.8985 -1.1244
  171MOL   H22144761   1.505   4.623   5.173 -0.6540 -1.4855  0.1776
  171MOL   H22244762   1.646   4.646   5.289 -0.9176  0.2452  1.6538
  171MOL   C22344763   1.462   4.631   5.372  0.0667  0.0826  0.3232
  171MOL   C22444764   1.407   4.774   5.372  0.7762  0.0252 -0.1105
  171MOL   C22544765   1.383   4.870   5.461 -0.3136 -0.4191  0.8168
  171MOL   C22644766   1.397   4.856   5.616 -0.4233 -0.0510 -0.1874
  171MOL   C22744767   1.329   5.003   5.409  0.4768  0.4375  0.4760
  171MOL   H22844768   1.490   4.606   5.475  0.4834  0.2778  0.2555
  171MOL   H22944769   1.369   4.576   5.358  0.8199 -0.1798 -4.4307
  171MOL   H23044770   1.374   4.797   5.272  1.5272  0.1652 -0.3256
  171MOL   H23144771   1.475   4.919   5.660  1.2255 -2.8268  1.0143
  171MOL   H23244772   1.433   4.762   5.658 -0.7253 -0.0285  0.1204
  171MOL   H23344773   1.308   4.889   5.670 -0.1868  0.2506  0.0254
  171MOL   H23444774   1.364   5.007   5.306 -0.6050 -2.4978 -0.0585
  171MOL   H23544775   1.376   5.082   5.467 -0.1905  0.4396  1.0234
  171MOL   C23644776   1.174   5.012   5.400  0.5400 -0.0764  0.0443
  171MOL   C23744777   1.127   5.129   5.312  0.0402  0.2697 -0.9840
  171MOL   C23844778   1.025   5.219   5.336  0.6362 -0.1330  0.2655
  171MOL   C23944779   0.933   5.216   5.457  0.3845 -0.0990 -0.3351
  171MOL   C24044780   1.001   5.320   5.228 -0.7316  0.3881  0.0663
  171MOL   H24144781   1.122   5.005   5.496 -0.5494  3.5010 -0.2463
  171MOL   H24244782   1.141   4.920   5.352  0.1021  0.4311 -0.6283
  171MOL   H24344783   1.180   5.136   5.218 -0.2014  1.6296 -1.0298
  171MOL   H24444784   0.915   5.310   5.509 -3.7514 -0.3790 -1.0494
  171MOL   H24544785   0.978   5.147   5.529  0.0023 -1.6308 -1.5151
  171MOL   H24644786   0.834   5.177   5.432  0.7396 -1.7849  0.7840
  171MOL   H24744787   1.096   5.349   5.184  0.3708 -2.6682  0.3359
  171MOL   H24844788   0.949   5.406   5.273  1.0384  0.7329  1.5249
  171MOL   C24944789   0.913   5.266   5.118  0.3140  0.3066  0.1356
  171MOL   C25044790   0.881   5.370   5.013  0.9157  0.1629 -0.9436
  171MOL   C25144791   0.958   5.404   4.911 -0.4999  0.2068  0.3421
  171MOL   C25244792   1.082   5.325   4.884  0.6300 -0.2085  0.2247
  171MOL   C25344793   0.921   5.519   4.816  1.0422 -0.1838 -0.1551
  171MOL   H25444794   0.824   5.219   5.160  0.9679 -3.2453 -2.1488
  171MOL   H25544795   0.956   5.174   5.078 -0.7595  0.8984 -2.4633
  171MOL   H25644796   0.782   5.414   5.013  1.0110  0.3808 -0.8703
  171MOL   H25744797   1.117   5.345   4.782  0.7813  0.0331  0.3235
  171MOL   H25844798   1.066   5.218   4.891 -1.9954 -0.0073 -1.8655
  171MOL   H25944799   1.162   5.352   4.953 -0.2914  0.0645  1.1880
  171MOL   H26044800   0.841   5.481   4.751  0.6423 -1.1398  0.8702
  171MOL   H26144801   1.005   5.550   4.754  1.4872 -2.3303 -0.6832
  171MOL   H26244802   0.891   5.607   4.871 -1.8154 -0.4435 -1.2158
  172MOL     C144803   4.953   4.008   7.139  0.1968  0.9217 -0.1818
  172MOL     C244804   5.027   3.882   7.133  0.1205  0.3817  0.4004
  172MOL     C344805   5.148   3.856   7.182 -0.5549  0.2521  0.0243
  172MOL     C444806   5.237   3.961   7.253 -0.3544  0.6934  0.2121
  172MOL     C544807   5.223   3.723   7.156  0.6773 -0.3975  0.9618
  172MOL     H644808   4.953   4.059   7.043  0.9931 -0.4772 -0.9309
  172MOL     H744809   4.850   3.995   7.171 -0.1483  0.3225 -1.5495
  172MOL     H844810   4.967   3.803   7.090 -1.0349  0.8665  1.1032
  172MOL     H944811   5.183   4.037   7.309 -1.3434 -0.7350  1.2551
  172MOL    H1044812   5.309   3.996   7.180  0.4227  0.5995  0.9320
  172MOL    H1144813   5.293   3.907   7.329  3.6359 -1.6027 -4.1009
  172MOL    H1244814   5.323   3.756   7.129  0.0641  0.3043 -0.5262
  172MOL    H1344815   5.171   3.665   7.080  0.5856  1.6854 -0.6325
  172MOL    H1444816   5.004   4.072   7.212 -0.4407  3.1946 -1.6497
  172MOL    C1544817   5.251   3.632   7.279 -0.5391 -0.4452  0.5522
  172MOL    C1644818   5.324   3.509   7.217  0.2692  0.3290 -0.1551
  172MOL    C1744819   5.450   3.470   7.250 -0.6682 -0.0263 -0.7293
  172MOL    C1844820   5.547   3.555   7.343  0.4564  0.0903 -0.7009
  172MOL    C1944821   5.517   3.345   7.202  0.1231 -0.2248 -0.5507
  172MOL    H2044822   5.157   3.600   7.323 -1.6325  0.2767 -1.1857
  172MOL    H2144823   5.303   3.682   7.361 -1.0964  0.9400  0.0927
  172MOL    H2244824   5.271   3.441   7.153 -0.9895  0.5823  0.5905
  172MOL    H2344825   5.594   3.627   7.277  1.6989 -2.5851 -2.8106
  172MOL    H2444826   5.613   3.487   7.397 -0.8992 -2.6427 -2.4029
  172MOL    H2544827   5.496   3.602   7.427  1.3891 -0.2967  0.0916
  172MOL    H2644828   5.450   3.287   7.139 -0.0592  0.0360 -0.5946
  172MOL    H2744829   5.523   3.266   7.277 -1.6629  0.3727  0.2382
  172MOL    C2844830   5.654   3.372   7.131 -0.0047  0.2894  0.0504
  172MOL    C2944831   5.711   3.240   7.086  0.3776 -0.0928  0.1542
  172MOL    C3044832   5.782   3.202   6.980 -0.1230 -0.3796 -0.4612
  172MOL    C3144833   5.840   3.305   6.884 -0.5479 -0.0748  0.3272
  172MOL    C3244834   5.810   3.051   6.954 -0.0267  0.0111 -0.0733
  172MOL    H3344835   5.724   3.420   7.199 -0.1522  0.3093  0.1880
  172MOL    H3444836   5.637   3.431   7.041 -0.6960 -1.4850 -0.9963
  172MOL    H3544837   5.676   3.158   7.147 -1.3278  1.3604  1.1575
  172MOL    H3644838   5.816   3.301   6.778  1.4668  0.8728 -0.1881
  172MOL    H3744839   5.947   3.295   6.900 -0.5409 -0.3233  0.1218
  172MOL    H3844840   5.811   3.409   6.903 -2.0090 -0.2817 -0.6344
  172MOL    H3944841   5.744   2.985   7.008  0.2932  0.5254  0.9646
  172MOL    H4044842   5.910   3.026   6.990  0.0264 -2.6039 -1.8878
  172MOL    C4144843   5.800   3.012   6.803 -0.7650 -0.3500 -0.6439
  172MOL    C4244844   5.814   2.867   6.766 -0.1815  0.1498  0.0900
  172MOL    C4344845   5.773   2.815   6.650  0.1770  0.5721 -0.4362
  172MOL    C4444846   5.703   2.902   6.544 -0.0256  0.2570  0.7964
  172MOL    C4544847   5.807   2.673   6.605 -0.7539 -0.9085  1.1948
  172MOL    H4644848   5.889   3.060   6.762  1.1732 -0.6314  3.0882
  172MOL    H4744849   5.706   3.056   6.767 -0.0529  1.6229 -0.1732
  172MOL    H4844850   5.875   2.819   6.841 -1.6464  1.2831  2.0489
  172MOL    H4944851   5.763   2.915   6.454 -0.2627 -2.1122  0.2444
  172MOL    H5044852   5.676   3.004   6.572  0.5986  0.3970  0.8882
  172MOL    H5144853   5.613   2.849   6.512 -1.7492  3.5528  0.0391
  172MOL    H5244854   5.706   2.633   6.600 -1.3313  0.6565  0.4303
  172MOL    H5344855   5.856   2.617   6.685 -0.6794 -0.3119  1.5685
  172MOL    C5444856   5.881   2.672   6.465 -0.0917 -0.1123  0.1504
  172MOL    C5544857   5.954   2.537   6.455 -0.4849 -0.3192  0.1085
  172MOL    C5644858   6.085   2.508   6.471  0.5299 -0.3134  0.0144
  172MOL    C5744859   6.189   2.601   6.532 -0.3670  0.0351  0.5656
  172MOL    C5844860   6.140   2.378   6.423 -0.0195  0.8712 -0.0913
  172MOL    H5944861   5.960   2.746   6.459 -1.5885  1.5221  0.3848
  172MOL    H6044862   5.818   2.687   6.378  1.8233 -2.7649 -1.7814
  172MOL    H6144863   5.885   2.460   6.425 -2.3723  0.7422  1.5679
  172MOL    H6244864   6.273   2.542   6.570  0.9079  2.1201  1.0546
  172MOL    H6344865   6.155   2.673   6.607 -1.0296  1.0785 -0.7259
  172MOL    H6444866   6.222   2.654   6.443  0.1603 -1.9362 -0.4567
  172MOL    H6544867   6.080   2.288   6.433  0.6921  0.4851  0.6929
  172MOL    H6644868   6.215   2.355   6.499  2.1250 -1.8383 -2.9267
  172MOL    C6744869   6.191   2.399   6.285  0.1909 -0.8691 -0.4578
  172MOL    C6844870   6.245   2.268   6.226 -0.2901  0.4178  0.3005
  172MOL    C6944871   6.376   2.223   6.248  0.0793  0.3645  0.1388
  172MOL    C7044872   6.472   2.293   6.341 -0.2229 -0.0294 -0.0495
  172MOL    C7144873   6.436   2.096   6.192 -0.0623  0.4259 -0.0951
  172MOL    H7244874   6.274   2.469   6.280 -1.2155  0.8829  0.0552
  172MOL    H7344875   6.112   2.441   6.223  0.5314 -0.6511 -0.7454
  172MOL    H7444876   6.176   2.218   6.159  0.6843 -1.1526  0.4492
  172MOL    H7544877   6.469   2.402   6.337  0.0916 -0.0198 -0.0448
  172MOL    H7644878   6.574   2.266   6.314 -0.2540 -0.5598  0.3425
  172MOL    H7744879   6.457   2.259   6.444 -0.3904  1.6613  0.5025
  172MOL    H7844880   6.494   2.052   6.273  0.3436  2.0840  0.5311
  172MOL    H7944881   6.510   2.116   6.115 -1.1837  1.3839 -0.9428
  172MOL    C8044882   6.329   1.991   6.151  0.0239  0.4882 -0.0818
  172MOL    C8144883   6.387   1.869   6.088  0.3653  0.1133 -0.4419
  172MOL    C8244884   6.415   1.754   6.152 -0.4762 -0.3359 -0.3875
  172MOL    C8344885   6.388   1.735   6.305  0.6871 -0.5644  0.5827
  172MOL    C8444886   6.476   1.633   6.088  0.4774 -0.3025  0.0242
  172MOL    H8544887   6.255   2.016   6.075 -0.7669 -0.0289  0.5159
  172MOL    H8644888   6.267   1.966   6.237 -2.4593  0.6397 -1.7941
  172MOL    H8744889   6.415   1.889   5.986  0.0222  2.6595 -0.0680
  172MOL    H8844890   6.340   1.812   6.365 -0.3017 -0.9711  0.3394
  172MOL    H8944891   6.487   1.718   6.347  1.1524  3.1669  1.0978
  172MOL    H9044892   6.323   1.648   6.322 -0.7912  0.6237  1.1855
  172MOL    H9144893   6.553   1.601   6.158  0.3277 -0.1084  0.2796
  172MOL    H9244894   6.540   1.655   6.002 -1.9171  0.8792 -1.5249
  172MOL    C9344895   6.381   1.513   6.062 -0.6969  0.1856  0.1002
  172MOL    C9444896   6.449   1.381   6.036  0.0016  0.2843  0.2618
  172MOL    C9544897   6.499   1.328   5.926  0.2326 -0.1322  0.3639
  172MOL    C9644898   6.511   1.414   5.798  0.5670 -0.1226  0.8153
  172MOL    C9744899   6.563   1.190   5.921 -0.2170  0.5408  0.3369
  172MOL    H9844900   6.318   1.546   5.979  0.5376  4.6632  0.8002
  172MOL    H9944901   6.325   1.506   6.156  0.2282 -0.3915  0.6220
  172MOL   H10044902   6.446   1.314   6.121  1.8396  1.4273  1.2510
  172MOL   H10144903   6.424   1.379   5.744 -1.1180  1.7622  2.2331
  172MOL   H10244904   6.601   1.383   5.746  1.4713 -0.2996  2.4314
  172MOL   H10344905   6.508   1.522   5.813 -0.7461 -0.1184  0.5725
  172MOL   H10444906   6.525   1.135   5.835  0.1627 -0.3110  0.7124
  172MOL   H10544907   6.520   1.131   6.002  1.6963 -2.1462 -0.5338
  172MOL   C10644908   6.715   1.190   5.933  0.0336 -0.3346  0.0219
  172MOL   C10744909   6.781   1.056   5.932 -0.8199 -0.2778 -0.1933
  172MOL   C10844910   6.875   1.010   6.015 -0.2235  0.4761 -0.5134
  172MOL   C10944911   6.930   1.079   6.143 -0.1878 -0.1752  0.1178
  172MOL   C11044912   6.928   0.868   6.012 -0.0151 -0.2932  0.4185
  172MOL   H11144913   6.729   1.235   6.031  1.0910 -1.2247  0.2882
  172MOL   H11244914   6.749   1.264   5.861 -1.0762 -0.5799 -0.7828
  172MOL   H11344915   6.758   0.980   5.859 -0.5763 -0.7163  0.1878
  172MOL   H11444916   7.038   1.091   6.138 -0.3628  2.0126  1.1387
  172MOL   H11544917   6.915   1.029   6.238 -0.2623  0.0610  0.2313
  172MOL   H11644918   6.893   1.181   6.156  1.2057  0.6194 -1.8316
  172MOL   H11744919   6.850   0.808   5.963  0.0492 -0.6203  0.7152
  172MOL   H11844920   6.936   0.831   6.114  0.8595 -1.1541  0.0405
  172MOL   C11944921   7.074   0.865   5.945  0.0122 -0.1263 -0.3892
  172MOL   C12044922   7.141   0.728   5.958  0.9414 -0.1631 -0.2003
  172MOL   C12144923   7.237   0.685   6.044  0.2992  0.0075 -0.4218
  172MOL   C12244924   7.278   0.774   6.165  0.5437 -0.0634 -0.4094
  172MOL   C12344925   7.317   0.559   6.025  0.6438  0.5670 -0.7886
  172MOL   H12444926   7.140   0.940   5.990  0.8153  0.0242 -1.7859
  172MOL   H12544927   7.074   0.894   5.840  0.2060  1.0457 -0.0791
  172MOL   H12644928   7.115   0.661   5.877  1.6932  0.0775 -0.6400
  172MOL   H12744929   7.365   0.831   6.133 -2.2433  3.3112 -2.4158
  172MOL   H12844930   7.314   0.717   6.251 -0.3026 -0.3594 -0.2495
  172MOL   H12944931   7.187   0.830   6.190  0.7348  0.2672 -0.4524
  172MOL   H13044932   7.296   0.526   5.923  0.4403  0.7122 -0.7943
  172MOL   H13144933   7.284   0.485   6.098 -0.8981  0.8793 -1.1396
  172MOL   C13244934   7.464   0.583   6.050  0.4225 -0.6488  0.4287
  172MOL   C13344935   7.539   0.455   6.017  0.0428  0.0449 -0.4395
  172MOL   C13444936   7.673   0.441   6.006 -0.2473 -0.4124 -0.2856
  172MOL   C13544937   7.764   0.559   6.006 -0.9620  0.3594 -0.3582
  172MOL   C13644938   7.746   0.307   6.015 -0.1184 -0.5224 -0.9703
  172MOL   H13744939   7.491   0.611   6.152 -1.1633 -0.0778  0.7070
  172MOL   H13844940   7.496   0.661   5.981 -0.3618  0.4884  1.3249
  172MOL   H13944941   7.476   0.368   6.016 -0.1022  0.1287 -2.7309
  172MOL   H14044942   7.834   0.548   5.923 -3.0861  1.4367 -2.3712
  172MOL   H14144943   7.815   0.563   6.102 -0.5713 -0.0130 -0.5501
  172MOL   H14244944   7.713   0.655   5.991 -3.3466 -0.8292 -0.1969
  172MOL   H14344945   7.829   0.300   5.944 -0.4377  0.8596 -1.4955
  172MOL   H14444946   7.668   0.234   5.992 -1.6991  0.4853  1.0818
  172MOL   C14544947   7.804   0.275   6.153 -1.2128 -0.1087 -0.5140
  172MOL   C14644948   7.869   0.140   6.161  0.4668  0.4041 -0.5857
  172MOL   C14744949   0.016   0.079   6.276  0.7021  0.3767 -1.2324
  172MOL   C14844950   7.877   0.137   6.417  0.3821  0.2998  0.3786
  172MOL   C14944951   0.076   7.821   6.283  0.3032  0.1888  0.2670
  172MOL   H15044952   7.736   0.293   6.236  1.0201  0.0531  1.3336
  172MOL   H15144953   0.008   0.339   6.169 -0.8971 -0.8338  0.6978
  172MOL   H15244954   7.882   0.091   6.066 -0.5692  0.7079 -0.8975
  172MOL   H15344955   7.848   0.242   6.412  1.4120  0.5286 -0.7880
  172MOL   H15444956   0.087   0.150   6.473  0.3770 -0.9971  0.7084
  172MOL   H15544957   7.805   0.081   6.477  1.8903 -1.4028  0.6504
  172MOL   H15644958   0.159   7.803   6.350 -0.7738 -1.5978  1.1581
  172MOL   H15744959   0.116   7.811   6.182 -3.9934 -1.8494 -1.3730
  172MOL   C15844960   7.854   7.716   6.308  0.5870  0.5707 -0.4807
  172MOL   C15944961   0.038   7.576   6.292  0.5784 -0.0694 -0.8606
  172MOL   C16044962   7.837   7.466   6.273  0.5161  1.0096  0.1341
  172MOL   C16144963   7.686   7.472   6.283 -0.0689  0.1422  0.0269
  172MOL   C16244964   0.012   7.333   6.229 -0.3700 -1.4886  0.6783
  172MOL   H16344965   7.769   7.732   6.242 -0.2639 -0.8687  0.2318
  172MOL   H16444966   7.810   7.726   6.408 -0.0600 -1.8283 -0.5102
  172MOL   H16544967   0.146   7.580   6.288  0.5771 -0.8929 -1.6243
  172MOL   H16644968   7.652   7.500   6.184  2.0553  2.3840 -0.1390
  172MOL   H16744969   7.650   7.554   6.345  1.9752  0.4494  0.8653
  172MOL   H16844970   7.642   7.381   6.324 -0.2149  0.2939  0.2058
  172MOL   H16944971   0.084   7.353   6.149 -1.1371  1.1912  0.5937
  172MOL   H17044972   7.820   7.275   6.175 -2.1930  1.6256 -0.2626
  172MOL   C17144973   0.060   7.239   6.340 -0.8999 -0.4011  0.5818
  172MOL   C17244974   7.847   7.199   6.451  0.6186  0.2054 -0.2307
  172MOL   C17344975   7.785   7.080   6.470  0.0905 -0.4447  0.1318
  172MOL   C17444976   7.806   6.957   6.394  0.4390 -0.1012 -0.1668
  172MOL   C17544977   7.683   7.071   6.583 -0.1418  0.4166  0.3167
  172MOL   H17644978   0.144   7.295   6.381 -2.4002  1.8087  0.7589
  172MOL   H17744979   0.097   7.149   6.292 -1.5608 -0.3559 -0.0286
  172MOL   H17844980   7.813   7.277   6.518  0.2423  0.0315 -0.2214
  172MOL   H17944981   7.849   6.882   6.461 -0.4250  0.3047  0.8481
  172MOL   H18044982   7.868   6.966   6.304  0.1780  1.5986 -0.1800
  172MOL   H18144983   7.715   6.913   6.353  0.8903 -1.3153  0.1073
  172MOL   H18244984   7.690   7.152   6.656 -0.4779 -0.8764  1.8096
  172MOL   H18344985   7.685   6.970   6.624 -2.3999 -0.5124 -1.7234
  172MOL   C18444986   7.540   7.107   6.523 -0.0597 -0.5561  0.0932
  172MOL   C18544987   7.440   7.108   6.638 -0.3344 -0.9184  0.5743
  172MOL   C18644988   7.402   7.217   6.710 -0.8924  0.8927  0.1499
  172MOL   C18744989   7.445   7.362   6.673  0.1296 -0.0086  0.2502
  172MOL   C18844990   7.302   7.186   6.818 -0.4476  0.8420 -0.7565
  172MOL   H18944991   7.505   7.039   6.445 -1.0841  0.1524 -0.0702
  172MOL   H19044992   7.552   7.198   6.465 -2.4821 -1.1450 -1.3961
  172MOL   H19144993   7.397   7.012   6.664 -0.6825 -0.9508 -0.0994
  172MOL   H19244994   7.447   7.365   6.564 -0.7713  1.3358  0.2493
  172MOL   H19344995   7.539   7.401   6.711 -0.5828  1.4354  0.5607
  172MOL   H19444996   7.366   7.427   6.711 -0.5033 -0.2738 -0.6036
  172MOL   H19544997   7.330   7.227   6.916 -1.0768  0.0343 -0.2281
  172MOL   H19644998   7.294   7.080   6.841 -0.5053  1.1583  0.7344
  172MOL   C19744999   7.161   7.241   6.782  0.3223  0.1240 -0.1750
  172MOL   C19845000   7.059   7.182   6.869  0.0466 -0.6763 -0.0836
  172MOL   C19945001   6.960   7.230   6.948  0.3612  0.1319  0.0517
  172MOL   C20045002   6.932   7.379   6.966  0.4576 -0.1555  0.2357
  172MOL   C20145003   6.855   7.138   7.015  0.2660  1.1062 -0.0882
  172MOL   H20245004   7.130   7.225   6.679  1.5570 -0.1849 -0.5081
  172MOL   H20345005   7.153   7.349   6.800 -0.8362 -0.0609  0.4667
  172MOL   H20445006   7.069   7.075   6.869  1.5540 -0.5523 -0.9798
  172MOL   H20545007   6.982   7.443   6.893 -0.1304  0.6040  0.4960
  172MOL   H20645008   6.964   7.404   7.067  3.3473  1.2155 -0.9290
  172MOL   H20745009   6.824   7.392   6.958  0.5687 -0.6745 -2.5538
  172MOL   H20845010   6.863   7.042   6.965  3.5267  0.5591  1.3599
  172MOL   H20945011   6.756   7.176   6.989 -0.5855 -1.1258 -0.1950
  172MOL   C21045012   6.891   7.119   7.170  0.0476  0.5036 -0.3711
  172MOL   C21145013   6.997   7.011   7.198  0.4416  0.4725 -0.7673
  172MOL   C21245014   7.130   7.036   7.209 -0.0010 -0.5872  0.1165
  172MOL   C21345015   7.198   7.179   7.204 -0.1088 -0.1214 -0.5010
  172MOL   C21445016   7.227   6.922   7.227  0.7669 -0.3022  0.4400
  172MOL   H21545017   6.805   7.062   7.207 -0.4446 -0.5539 -3.0299
  172MOL   H21645018   6.898   7.209   7.231 -2.7210  0.4766  0.0762
  172MOL   H21745019   6.957   6.911   7.190 -0.6531  0.7366  1.1907
  172MOL   H21845020   7.281   7.172   7.133  0.6481  1.8244  0.1476
  172MOL   H21945021   7.242   7.192   7.303 -1.2912 -1.9005  0.2796
  172MOL   H22045022   7.133   7.262   7.180 -1.2623 -0.6537  0.7386
  172MOL   H22145023   7.172   6.832   7.253  0.2152 -0.0800  0.0515
  172MOL   H22245024   7.281   6.946   7.320  0.6406  1.7999  0.0046
  172MOL   C22345025   7.328   6.894   7.120 -0.1444  0.3168 -0.4907
  172MOL   C22445026   7.401   6.761   7.131  0.2267 -0.1052  0.1651
  172MOL   C22545027   7.391   6.662   7.043  0.1456  0.0732  0.6105
  172MOL   C22645028   7.293   6.660   6.922 -0.1278  0.1449 -0.2083
  172MOL   C22745029   7.464   6.534   7.065  0.3554  0.0172 -0.1259
  172MOL   H22845030   7.400   6.974   7.135  0.7357 -0.3866 -0.9490
  172MOL   H22945031   7.280   6.911   7.023 -0.9182  0.1343 -0.1447
  172MOL   H23045032   7.458   6.752   7.222 -1.0640  0.0090  1.0085
  172MOL   H23145033   7.252   6.758   6.900  0.7830  0.5255 -0.2173
  172MOL   H23245034   7.214   6.588   6.946 -1.2752  2.0650  2.0108
  172MOL   H23345035   7.361   6.640   6.839 -1.5003  0.2645 -1.3701
  172MOL   H23445036   7.549   6.548   7.132  0.0262  0.4169  0.2040
  172MOL   H23545037   7.508   6.500   6.971 -0.3127  0.8671 -0.7528
  172MOL   C23645038   7.375   6.418   7.105  0.3486 -0.5536 -0.4493
  172MOL   C23745039   7.445   6.285   7.093 -0.4366 -0.8296 -0.1676
  172MOL   C23845040   7.442   6.188   7.188 -0.0948  0.1650  0.8822
  172MOL   C23945041   7.348   6.197   7.312  0.3255 -0.1954 -0.4637
  172MOL   C24045042   7.513   6.058   7.165 -0.8214 -0.0320  0.1083
  172MOL   H24145043   7.284   6.396   7.049 -0.8781  1.4011  0.7257
  172MOL   H24245044   7.336   6.439   7.204 -0.8892 -0.8686 -0.8584
  172MOL   H24345045   7.501   6.272   7.002 -0.5061 -0.8943 -0.2007
  172MOL   H24445046   7.396   6.145   7.395 -2.1372 -2.0618 -0.1617
  172MOL   H24545047   7.251   6.153   7.290  0.5043 -0.3911 -0.8632
  172MOL   H24645048   7.335   6.294   7.360 -1.0437 -0.9577  0.7494
  172MOL   H24745049   7.522   6.033   7.059 -1.0995  0.9193 -0.1470
  172MOL   H24845050   7.443   5.989   7.210  1.3071 -1.4702  1.3019
  172MOL   C24945051   7.636   6.038   7.244  0.2227 -1.1087 -0.3513
  172MOL   C25045052   7.684   5.901   7.243 -0.5831 -0.0329 -0.3477
  172MOL   C25145053   7.788   5.859   7.171 -0.1808  0.7532 -0.0660
  172MOL   C25245054   7.856   5.934   7.058  0.2570  0.3381  0.0641
  172MOL   C25345055   7.833   5.717   7.189  0.0597 -0.0771  0.5133
  172MOL   H25445056   7.609   6.050   7.349  1.4599 -1.3191 -0.0087
  172MOL   H25545057   7.713   6.110   7.218 -1.5828 -0.0542 -3.0308
  172MOL   H25645058   7.630   5.835   7.309 -0.8044 -1.3188 -1.7749
  172MOL   H25745059   7.831   6.040   7.066  3.0777  0.9132  2.0382
  172MOL   H25845060   7.827   5.898   6.959  0.7465  0.0704  0.0183
  172MOL   H25945061   0.081   5.921   7.066  0.4034  1.4572  0.0467
  172MOL   H26045062   7.780   5.661   7.266 -1.7372  0.0517 -0.5829
  172MOL   H26145063   0.054   5.714   7.222  0.0344 -2.2862  0.4913
  172MOL   H26245064   7.825   5.661   7.095 -2.4142 -0.4628  0.9150
  173MOL     C145065   1.918   3.626   6.882  0.3345 -0.1958  0.0738
  173MOL     C245066   2.029   3.531   6.858 -0.0293 -0.4620  0.6581
  173MOL     C345067   2.020   3.396   6.839 -0.6017  0.1767 -0.4959
  173MOL     C445068   1.892   3.321   6.809 -0.2506 -0.7133  0.5074
  173MOL     C545069   2.155   3.319   6.822 -0.8943  0.0254 -0.7809
  173MOL     H645070   1.911   3.661   6.985  2.0313  0.7277 -0.1067
  173MOL     H745071   1.955   3.713   6.828 -0.6355 -0.2564 -0.7058
  173MOL     H845072   2.130   3.566   6.872 -0.8248  1.2491  2.3766
  173MOL     H945073   1.896   3.213   6.826  0.8753 -0.4025  2.2997
  173MOL    H1045074   1.861   3.341   6.706  1.9258  1.6534  0.2700
  173MOL    H1145075   1.813   3.360   6.872 -0.3118 -0.8338  0.5049
  173MOL    H1245076   2.133   3.220   6.862  0.0004 -0.0465 -0.4591
  173MOL    H1345077   2.235   3.368   6.877 -0.2555 -0.1745 -1.5281
  173MOL    H1445078   1.824   3.607   6.830 -0.2779  2.7229  0.0034
  173MOL    C1545079   2.206   3.311   6.680  0.7761  0.1072  0.4368
  173MOL    C1645080   2.321   3.216   6.674  0.0043 -0.1337 -0.4924
  173MOL    C1745081   2.342   3.111   6.588  0.2446 -0.0931 -0.0929
  173MOL    C1845082   2.239   3.059   6.487 -0.5535  0.2751  0.3481
  173MOL    C1945083   2.473   3.037   6.584  0.0987 -0.0379 -0.6654
  173MOL    H2045084   2.226   3.404   6.627 -1.1676 -0.4839 -1.4129
  173MOL    H2145085   2.127   3.255   6.629 -0.5298  1.2991  1.0936
  173MOL    H2245086   2.399   3.252   6.740  1.0030  1.8768 -2.6782
  173MOL    H2345087   2.147   3.117   6.484  1.6333  3.8758  0.5372
  173MOL    H2445088   2.226   2.955   6.516  1.8214 -0.2708 -0.4339
  173MOL    H2545089   2.295   3.070   6.394 -0.8976 -1.2113 -0.0546
  173MOL    H2645090   2.442   2.934   6.601  0.6837  0.1715  1.9400
  173MOL    H2745091   2.527   3.085   6.666 -1.5246  0.2324  0.2643
  173MOL    C2845092   2.557   3.063   6.459  0.3975 -0.5780 -0.1791
  173MOL    C2945093   2.681   2.969   6.438 -0.0136  0.3442 -0.8804
  173MOL    C3045094   2.812   3.008   6.446 -0.6764 -0.1894  0.3962
  173MOL    C3145095   2.868   3.152   6.463 -0.3711  0.3210  0.0379
  173MOL    C3245096   2.921   2.897   6.454 -1.1841  0.2066  0.1263
  173MOL    H3345097   2.583   3.168   6.448 -0.3452 -0.1447  2.0864
  173MOL    H3445098   2.503   3.050   6.365 -1.0971  3.0718  0.0956
  173MOL    H3545099   2.657   2.864   6.433 -0.9835  0.6022 -1.7165
  173MOL    H3645100   2.897   3.192   6.366 -2.7164  0.8674 -0.4630
  173MOL    H3745101   2.953   3.149   6.531 -0.5445  0.5728  0.2647
  173MOL    H3845102   2.786   3.213   6.500  0.6991  1.6643  0.2092
  173MOL    H3945103   2.874   2.809   6.499 -0.1841  0.2769  1.3205
  173MOL    H4045104   2.997   2.930   6.525 -2.3804  1.3140  0.9301
  173MOL    C4145105   2.994   2.874   6.326  0.7485  0.0981  0.4795
  173MOL    C4245106   3.078   2.745   6.314 -0.0543 -0.6417  0.0610
  173MOL    C4345107   3.041   2.635   6.242 -0.0442  0.1691 -0.2996
  173MOL    C4445108   2.927   2.631   6.147 -0.4307 -0.4092  0.2997
  173MOL    C4545109   3.124   2.504   6.248  0.9310 -0.5710  0.7331
  173MOL    H4645110   3.052   2.962   6.297 -3.5239  3.5429  1.8286
  173MOL    H4745111   2.924   2.872   6.243  2.6002 -1.1772 -1.0891
  173MOL    H4845112   3.157   2.744   6.388 -1.4125 -2.3108  1.5349
  173MOL    H4945113   2.872   2.539   6.163 -0.7025 -0.3161 -0.0783
  173MOL    H5045114   2.956   2.634   6.042 -0.0626 -0.6025  0.3984
  173MOL    H5145115   2.847   2.704   6.158 -1.3030 -1.5400  1.5713
  173MOL    H5245116   3.083   2.417   6.299 -1.8588  0.0725 -0.2756
  173MOL    H5345117   3.205   2.529   6.316  0.4762 -0.2522  1.1658
  173MOL    C5445118   3.171   2.457   6.112 -0.5797  0.2363  1.2890
  173MOL    C5545119   3.272   2.342   6.105 -0.1346 -0.1173 -0.4155
  173MOL    C5645120   3.256   2.226   6.041  0.4243  0.2105  0.9379
  173MOL    C5745121   3.137   2.173   5.960 -1.1881  0.0430 -0.5503
  173MOL    C5845122   3.374   2.135   6.030 -0.2831 -0.3075  0.0983
  173MOL    H5945123   3.220   2.547   6.074 -0.6873 -1.0891 -2.1678
  173MOL    H6045124   3.089   2.436   6.044  1.5871 -0.6865 -1.1272
  173MOL    H6145125   3.366   2.371   6.151 -2.4868  0.7012  4.0850
  173MOL    H6245126   3.111   2.070   5.984  0.2407  0.4104  2.9637
  173MOL    H6345127   3.172   2.197   5.860  2.9142  2.4646  1.3339
  173MOL    H6445128   3.049   2.235   5.971 -1.1204  0.4590 -2.2687
  173MOL    H6545129   3.463   2.193   6.054 -1.4085  0.4843  2.5813
  173MOL    H6645130   3.386   2.104   5.927  1.2834 -0.7607  0.4059
  173MOL    C6745131   3.364   2.013   6.124 -0.2061  0.8840 -0.5308
  173MOL    C6845132   3.498   1.931   6.124 -0.2263  0.1683 -0.7228
  173MOL    C6945133   3.525   1.808   6.082 -0.3732 -0.4419 -0.0086
  173MOL    C7045134   3.423   1.709   6.025  0.7402 -0.6681 -0.6957
  173MOL    C7145135   3.666   1.751   6.102 -0.1891 -0.3583 -0.1435
  173MOL    H7245136   3.286   1.941   6.098  0.6465 -0.3975  0.3639
  173MOL    H7345137   3.344   2.041   6.227  0.5573  0.1855 -0.1849
  173MOL    H7445138   3.582   1.990   6.156  0.3698 -0.6830 -0.7172
  173MOL    H7545139   3.431   1.627   6.097  1.5833  1.3694  1.6019
  173MOL    H7645140   3.459   1.675   5.928  0.7320  0.2552 -1.0297
  173MOL    H7745141   3.323   1.751   6.011  1.4879  1.1449 -0.7895
  173MOL    H7845142   3.738   1.832   6.088 -2.0732  1.4252  0.3339
  173MOL    H7945143   3.677   1.684   6.017  0.5562 -1.2819  0.6614
  173MOL    C8045144   3.692   1.680   6.232 -0.1379 -0.4990  0.1254
  173MOL    C8145145   3.831   1.607   6.226  0.4221 -0.1435 -0.4067
  173MOL    C8245146   3.915   1.570   6.328  0.2275 -0.3618  0.5655
  173MOL    C8345147   3.864   1.576   6.475 -0.0103 -0.3645 -0.4734
  173MOL    C8445148   4.054   1.516   6.304 -0.6335 -0.1161 -0.2636
  173MOL    H8545149   3.614   1.605   6.252 -1.2264  0.7718  0.7154
  173MOL    H8645150   3.695   1.748   6.317  1.0624  1.0393 -1.1324
  173MOL    H8745151   3.865   1.591   6.124  2.8309 -1.0251  0.4836
  173MOL    H8845152   3.901   1.482   6.516 -0.0079  0.6061  1.8622
  173MOL    H8945153   3.755   1.567   6.477  0.0420 -1.2242 -1.5543
  173MOL    H9045154   3.902   1.667   6.521  1.2416 -2.4415  2.8031
  173MOL    H9145155   4.064   1.512   6.195 -2.0436 -0.3704 -0.4053
  173MOL    H9245156   4.061   1.411   6.332  2.3588 -0.0069 -0.5235
  173MOL    C9345157   4.165   1.599   6.377 -0.1468 -0.6585  0.6875
  173MOL    C9445158   4.197   1.733   6.308  0.4445 -0.0768 -0.0864
  173MOL    C9545159   4.272   1.833   6.363 -0.7802 -0.4085  0.6282
  173MOL    C9645160   4.328   1.821   6.502  0.1225  0.5763 -0.2155
  173MOL    C9745161   4.296   1.961   6.294  0.3951  0.4309 -0.3605
  173MOL    H9845162   4.250   1.531   6.374  0.0993 -0.2921 -1.2800
  173MOL    H9945163   4.129   1.608   6.480 -0.2254 -0.5348  0.6489
  173MOL   H10045164   4.153   1.748   6.210  0.7653  1.1359 -0.0595
  173MOL   H10145165   4.433   1.849   6.509 -0.3289  2.8582 -1.8636
  173MOL   H10245166   4.313   1.720   6.538  2.9005  0.2763  0.1731
  173MOL   H10345167   4.266   1.891   6.558  1.6898  0.8800  1.1740
  173MOL   H10445168   4.227   2.033   6.339  1.0144  1.5598 -1.1818
  173MOL   H10545169   4.277   1.953   6.187  1.2310 -0.0148 -0.4787
  173MOL   C10645170   4.438   2.012   6.302  0.6369 -0.0351 -0.5168
  173MOL   C10745171   4.545   1.916   6.245 -0.3171  0.2551  0.0464
  173MOL   C10845172   4.679   1.923   6.261 -0.5679  0.3492  0.7979
  173MOL   C10945173   4.749   2.032   6.341  0.6150 -0.5677 -0.6282
  173MOL   C11045174   4.756   1.822   6.183  0.0004 -0.5010 -0.3294
  173MOL   H11145175   4.445   2.038   6.408 -2.2909 -1.2231  0.0412
  173MOL   H11245176   4.455   2.111   6.260 -2.4846  0.4430 -0.7646
  173MOL   H11345177   4.504   1.838   6.183  3.9439 -0.4915 -1.9663
  173MOL   H11445178   4.774   2.109   6.269  1.8070 -1.7145 -1.4762
  173MOL   H11545179   4.834   1.985   6.391 -0.5558  0.9679  2.9298
  173MOL   H11645180   4.681   2.074   6.415 -0.5981 -1.0858 -1.4329
  173MOL   H11745181   4.821   1.877   6.117 -0.9796  1.6807  0.4840
  173MOL   H11845182   4.693   1.756   6.123 -0.5158 -0.8099  0.5263
  173MOL   C11945183   4.842   1.732   6.266  0.4000  0.2694 -0.4565
  173MOL   C12045184   4.769   1.656   6.378  0.4329 -0.3921  0.1739
  173MOL   C12145185   4.824   1.557   6.457 -0.1646  0.5420  0.0795
  173MOL   C12245186   4.970   1.507   6.441  0.2445  0.6512  0.0639
  173MOL   C12345187   4.755   1.501   6.576 -0.3850 -0.4806  0.2526
  173MOL   H12445188   4.917   1.793   6.315  0.3252  0.5995 -0.7587
  173MOL   H12545189   4.889   1.649   6.213 -0.3573 -2.4252  2.8424
  173MOL   H12645190   4.669   1.685   6.405  1.1655  1.0262  1.4574
  173MOL   H12745191   4.987   1.435   6.361 -0.0486  1.5496 -0.8186
  173MOL   H12845192   5.006   1.467   6.536  2.2282  0.4832 -0.7321
  173MOL   H12945193   5.032   1.593   6.415 -1.9922  1.0249 -4.5892
  173MOL   H13045194   4.656   1.541   6.595  0.7081  1.4548  2.2066
  173MOL   H13145195   4.806   1.526   6.670  0.2292 -1.0264  0.0708
  173MOL   C13245196   4.730   1.350   6.593 -0.0521 -0.1794  0.4573
  173MOL   C13345197   4.662   1.287   6.476  0.0599 -0.0563 -0.0132
  173MOL   C13445198   4.531   1.266   6.458  0.3845  0.6394 -0.0752
  173MOL   C13545199   4.432   1.298   6.564  0.4005  0.1968  0.5571
  173MOL   C13645200   4.478   1.187   6.336 -0.1795 -0.3368  0.1529
  173MOL   H13745201   4.674   1.324   6.683  0.6811 -2.0393  0.4085
  173MOL   H13845202   4.825   1.297   6.600 -0.2637 -1.0379 -2.5111
  173MOL   H13945203   4.733   1.257   6.400  0.9594 -0.9840  1.1884
  173MOL   H14045204   4.335   1.323   6.521  0.8019 -1.9414 -1.7201
  173MOL   H14145205   4.470   1.376   6.630  0.9440  0.8907 -0.5802
  173MOL   H14245206   4.421   1.205   6.621 -1.6336 -0.1429 -0.3538
  173MOL   H14345207   4.556   1.180   6.260  1.0254 -0.1830  1.3383
  173MOL   H14445208   4.415   1.268   6.299  0.6394  0.0206 -0.4739
  173MOL   C14545209   4.413   1.050   6.369 -0.7972  0.2160  0.1589
  173MOL   C14645210   4.359   0.981   6.240  0.9490  0.4406 -0.4552
  173MOL   C14745211   4.228   0.967   6.213 -0.1288 -0.1644 -0.0297
  173MOL   C14845212   4.118   1.027   6.294 -0.4899 -0.1720  0.3218
  173MOL   C14945213   4.190   0.908   6.081 -0.1591  0.3315 -0.8500
  173MOL   H15045214   4.342   1.056   6.452  0.7624 -0.2394  1.5419
  173MOL   H15145215   4.488   0.984   6.413 -2.1895 -1.7788 -0.3649
  173MOL   H15245216   4.432   0.934   6.176 -0.1452 -0.5439 -0.9964
  173MOL   H15345217   4.021   0.995   6.256  0.4370 -1.2717 -1.1625
  173MOL   H15445218   4.095   1.133   6.285 -1.4134 -0.2377  1.7170
  173MOL   H15545219   4.122   1.001   6.400  0.6025  2.6594  1.0233
  173MOL   H15645220   4.280   0.906   6.019 -0.5710  0.2488 -1.4501
  173MOL   H15745221   4.124   0.981   6.035  0.3239  1.7062  0.5883
  173MOL   C15845222   4.140   0.763   6.098  0.7046 -0.1501  0.2699
  173MOL   C15945223   4.084   0.714   5.970 -0.0454  0.2479 -0.1500
  173MOL   C16045224   4.059   0.588   5.924 -0.5209 -0.0021 -0.4468
  173MOL   C16145225   4.105   0.459   5.992 -0.5392 -0.2398 -0.0285
  173MOL   C16245226   4.002   0.566   5.783  0.1836 -0.0337  0.1035
  173MOL   H16345227   4.064   0.762   6.176 -1.1004  0.5557 -1.4646
  173MOL   H16445228   4.221   0.703   6.141  0.9312  0.5887  0.8984
  173MOL   H16545229   4.039   0.785   5.902  0.2965 -1.0872 -1.7987
  173MOL   H16645230   4.156   0.399   5.916 -1.0670 -1.3838  0.5094
  173MOL   H16745231   4.020   0.399   6.025 -0.1291 -1.7739 -1.6638
  173MOL   H16845232   4.168   0.474   6.080 -0.7379  2.9073 -0.3833
  173MOL   H16945233   4.082   0.519   5.726  1.5870  1.3039  0.9524
  173MOL   H17045234   3.976   0.662   5.740  0.8574 -0.1722 -0.6227
  173MOL   C17145235   3.872   0.487   5.800  0.3736  0.1075 -0.2428
  173MOL   C17245236   3.844   0.405   5.674 -0.0365  0.1005  0.4486
  173MOL   C17345237   3.836   0.274   5.673  0.1559 -0.6141 -0.2489
  173MOL   C17445238   3.843   0.182   5.793 -0.2356  0.0739  0.3963
  173MOL   C17545239   3.800   0.200   5.543 -0.5052  0.2531 -0.0134
  173MOL   H17645240   3.788   0.556   5.813  0.1863  0.4741 -3.0752
  173MOL   H17745241   3.883   0.423   5.888 -0.0761 -1.1653 -1.0937
  173MOL   H17845242   3.836   0.457   5.579  1.9252 -0.6731 -0.1567
  173MOL   H17945243   3.750   0.124   5.801  1.3329 -2.5673  0.2349
  173MOL   H18045244   3.875   0.228   5.886  0.2796 -1.2048  0.8662
  173MOL   H18145245   3.923   0.111   5.772  0.6261  1.4577 -1.0483
  173MOL   H18245246   3.801   0.267   5.457  3.4233  0.4275  0.1035
  173MOL   H18345247   3.694   0.178   5.560 -0.1570  0.5616  2.7292
  173MOL   C18445248   3.889   0.080   5.517  0.0032  0.5608  0.9013
  173MOL   C18545249   3.879   0.006   5.382 -0.1220 -0.5671  0.4020
  173MOL   C18645250   3.968   7.815   5.311  0.2999 -0.8572  0.3152
  173MOL   C18745251   4.107   7.791   5.366 -0.4609 -0.4217  0.4345
  173MOL   C18845252   3.929   7.730   5.191  1.6593 -0.2980  0.0750
  173MOL   H18945253   3.869   0.004   5.594  0.0386 -2.9269 -2.3789
  173MOL   H19045254   3.992   0.114   5.529 -0.0303  0.8183  0.4344
  173MOL   H19145255   3.777   0.008   5.347  1.0931  0.3396 -3.2602
  173MOL   H19245256   4.184   7.765   5.293  0.1543 -1.3131  1.3678
  173MOL   H19345257   4.105   7.703   5.431 -1.9865 -0.4883  0.3098
  173MOL   H19445258   4.140   7.870   5.433  0.2523  0.2502 -0.6959
  173MOL   H19545259   3.976   7.778   5.106 -1.0881  1.3294 -0.5987
  173MOL   H19645260   3.826   7.742   5.158  1.5579 -0.1667  0.4316
  173MOL   C19745261   3.939   7.583   5.217 -0.3968 -0.0651  0.1782
  173MOL   C19845262   3.871   7.494   5.104  0.6659 -0.2494  0.8905
  173MOL   C19945263   3.831   7.367   5.105  0.0185 -0.1872 -1.1138
  173MOL   C20045264   3.847   7.274   5.227 -0.0859 -0.1472  0.3137
  173MOL   C20145265   3.781   7.297   4.976  0.3370  0.4738  0.2756
  173MOL   H20245266   3.890   7.551   5.309  1.8563  0.3382  1.5368
  173MOL   H20345267   4.041   7.549   5.234 -0.4157 -0.6489 -0.8570
  173MOL   H20445268   3.850   7.542   5.010  0.3750  0.6149  1.3878
  173MOL   H20545269   3.752   7.233   5.262  0.7784 -1.4274  1.2317
  173MOL   H20645270   3.888   7.323   5.316 -0.7435 -0.5739  0.8512
  173MOL   H20745271   3.891   7.181   5.194 -0.0646  0.2499 -0.7795
  173MOL   H20845272   3.847   7.213   4.957  0.0095  0.0322  1.0720
  173MOL   H20945273   3.797   7.371   4.897  1.7085  0.8139  0.8469
  173MOL   C21045274   3.631   7.263   4.980 -0.4317 -0.3059 -0.6181
  173MOL   C21145275   3.599   7.180   4.860 -0.0023  0.0365  0.3831
  173MOL   C21245276   3.479   7.146   4.806 -0.2678  0.2910  0.4155
  173MOL   C21345277   3.361   7.205   4.875 -0.1062  0.5510 -0.0122
  173MOL   C21445278   3.467   7.072   4.673  0.2663 -0.0682  0.6632
  173MOL   H21545279   3.576   7.356   4.986  0.6786  0.3897 -0.9966
  173MOL   H21645280   3.597   7.205   5.066 -0.1128  0.4482  0.0301
  173MOL   H21745281   3.679   7.133   4.807 -1.1379 -0.8080 -0.5978
  173MOL   H21845282   3.390   7.255   4.968  0.2700  1.2212 -0.4884
  173MOL   H21945283   3.298   7.123   4.909  2.4029 -2.1102 -1.5112
  173MOL   H22045284   3.297   7.254   4.803 -0.0087 -0.1859 -0.6070
  173MOL   H22145285   3.567   7.046   4.640  0.2683 -1.6343  1.8669
  173MOL   H22245286   3.437   7.145   4.597 -0.9147 -1.2196 -0.0022
  173MOL   C22345287   3.385   6.945   4.666  0.4498  0.0431  0.4542
  173MOL   C22445288   3.396   6.864   4.534  0.2057  0.2314 -0.7902
  173MOL   C22545289   3.316   6.867   4.429 -0.3656 -1.1745 -0.3353
  173MOL   C22645290   3.192   6.957   4.424  0.6249 -0.3665  0.2905
  173MOL   C22745291   3.334   6.784   4.304  0.1127 -0.0349 -0.2216
  173MOL   H22845292   3.279   6.965   4.686  0.1451 -0.2699 -0.7715
  173MOL   H22945293   3.420   6.879   4.745  1.7509 -0.8321 -0.8202
  173MOL   H23045294   3.484   6.800   4.531  0.2136  0.2070 -0.0992
  173MOL   H23145295   3.110   6.901   4.377  0.4109 -0.7663  1.1304
  173MOL   H23245296   3.199   7.043   4.357 -0.7487 -1.2441 -1.0325
  173MOL   H23345297   3.153   6.996   4.518 -0.4910  1.0174 -0.7178
  173MOL   H23445298   3.242   6.754   4.254  0.9508  2.1428 -3.1837
  173MOL   H23545299   3.388   6.693   4.328  1.5859  1.3683  1.9382
  173MOL   C23645300   3.402   6.857   4.202  0.0117  0.1888  0.1058
  173MOL   C23745301   3.432   6.773   4.079 -0.4956  0.5293  0.1731
  173MOL   C23845302   3.553   6.755   4.013  0.0878 -0.0882 -0.6872
  173MOL   C23945303   3.683   6.795   4.071  0.3404  0.3119  0.0674
  173MOL   C24045304   3.568   6.662   3.902 -0.1805  1.0462  0.9402
  173MOL   H24145305   3.496   6.894   4.243 -1.0656  0.0849  2.7750
  173MOL   H24245306   3.348   6.944   4.167  0.5772 -0.2593 -1.9451
  173MOL   H24345307   3.353   6.707   4.046  1.2301 -1.6692  0.3001
  173MOL   H24445308   3.741   6.711   4.109  2.5455  1.3933 -0.7996
  173MOL   H24545309   3.674   6.865   4.154 -0.3922  0.5907 -0.2451
  173MOL   H24645310   3.750   6.846   4.001 -1.4709 -0.0405 -1.9793
  173MOL   H24745311   3.604   6.561   3.922  0.0721  1.2798  1.6910
  173MOL   H24845312   3.645   6.695   3.833 -1.1340 -2.9927 -2.2025
  173MOL   C24945313   3.440   6.660   3.822 -0.1437 -0.1291 -0.2620
  173MOL   C25045314   3.455   6.623   3.675 -0.5278 -0.6432  0.4766
  173MOL   C25145315   3.439   6.500   3.618  0.3396  0.0418 -0.4744
  173MOL   C25245316   3.416   6.379   3.701 -0.6041  0.4280  0.2903
  173MOL   C25345317   3.435   6.477   3.465  0.1112 -0.1879 -0.4855
  173MOL   H25445318   3.388   6.755   3.831  0.5964  0.1239  1.6663
  173MOL   H25545319   3.379   6.585   3.872 -1.3608  0.0037 -1.5226
  173MOL   H25645320   3.461   6.713   3.616 -0.3588 -2.8131 -2.9130
  173MOL   H25745321   3.460   6.390   3.800 -0.3759  0.4093  0.1917
  173MOL   H25845322   3.467   6.290   3.665  0.5014  1.2885 -0.2985
  173MOL   H25945323   3.311   6.353   3.715 -1.5043  2.2932 -2.6556
  173MOL   H26045324   3.507   6.407   3.424 -1.0988 -1.8197  0.1128
  173MOL   H26145325   3.450   6.575   3.420  2.6281 -0.2471  0.1309
  173MOL   H26245326   3.339   6.436   3.435  0.1820 -0.3912 -0.4305
  174MOL     C145327   5.117   5.154   0.756  0.4898  0.1898 -0.6589
  174MOL     C245328   5.193   5.215   0.876  0.0484 -0.7455  0.6559
  174MOL     C345329   5.312   5.169   0.921 -0.6019 -0.0468  0.0300
  174MOL     C445330   5.381   5.052   0.850 -0.1807  0.2270  0.3045
  174MOL     C545331   5.392   5.225   1.037 -0.6729  0.1856  0.3669
  174MOL     H645332   5.152   5.193   0.660  1.7695 -0.7027 -0.5724
  174MOL     H745333   5.116   5.047   0.772 -0.1900  0.1779 -0.7771
  174MOL     H845334   5.153   5.308   0.912 -0.2321 -1.1147  1.3079
  174MOL     H945335   5.472   5.094   0.806 -0.7733 -0.7895 -1.9851
  174MOL    H1045336   5.337   5.003   0.763  0.3618  0.6817 -0.2318
  174MOL    H1145337   5.426   4.976   0.913  2.5751  1.8044  0.3269
  174MOL    H1245338   5.403   5.151   1.116  0.7303 -0.8305 -0.7478
  174MOL    H1345339   5.338   5.309   1.080 -1.5444 -1.3722  2.3848
  174MOL    H1445340   5.020   5.200   0.775  0.2513 -0.9932  1.0619
  174MOL    C1545341   5.528   5.289   1.007  0.2992 -0.3290  0.1117
  174MOL    C1645342   5.511   5.424   0.933 -0.0950 -0.5201 -0.4387
  174MOL    C1745343   5.526   5.549   0.984 -0.6518 -0.1539  0.3327
  174MOL    C1845344   5.560   5.574   1.125 -0.5449  0.1125 -0.1479
  174MOL    C1945345   5.492   5.669   0.897  0.4703  0.6878  0.2647
  174MOL    H2045346   5.592   5.218   0.955 -0.9544 -1.8260  0.5673
  174MOL    H2145347   5.573   5.310   1.105 -0.0978 -0.2350  0.2736
  174MOL    H2245348   5.485   5.412   0.829  1.1973  0.4445 -0.8721
  174MOL    H2345349   5.633   5.499   1.155 -0.0083  0.5701 -0.3061
  174MOL    H2445350   5.466   5.572   1.180 -0.3345 -0.3001  0.1992
  174MOL    H2545351   5.607   5.671   1.141 -1.3117  0.4916 -0.1694
  174MOL    H2645352   5.461   5.629   0.800  0.6257  1.0108  0.0830
  174MOL    H2745353   5.577   5.735   0.883  2.2401 -1.2938  1.4467
  174MOL    C2845354   5.375   5.746   0.957  0.5463  0.5237 -0.1518
  174MOL    C2945355   5.361   5.871   0.871 -0.3608 -0.0571 -0.3282
  174MOL    C3045356   5.254   5.907   0.798  0.6039 -0.4250 -0.1477
  174MOL    C3145357   5.134   5.821   0.784  0.5069  0.3782  0.1447
  174MOL    C3245358   5.254   6.026   0.710  0.3510 -0.4682  0.4546
  174MOL    H3345359   5.383   5.764   1.064 -0.0158  3.4040 -0.5387
  174MOL    H3445360   5.291   5.677   0.951  2.2490 -1.4553 -2.5787
  174MOL    H3545361   5.446   5.937   0.871  0.9601 -1.7024  0.0796
  174MOL    H3645362   5.153   5.736   0.719 -0.1233  0.1341  0.2705
  174MOL    H3745363   5.049   5.874   0.742 -0.9474 -0.5625  1.8374
  174MOL    H3845364   5.100   5.780   0.880  0.4170  1.3380  0.5266
  174MOL    H3945365   5.153   6.067   0.719  0.6083 -0.0103  1.2485
  174MOL    H4045366   5.264   5.993   0.607  1.8364  0.7032  0.2098
  174MOL    C4145367   5.359   6.133   0.732  0.1057  0.2167 -0.3967
  174MOL    C4245368   5.313   6.277   0.688  0.4399 -0.7777 -0.1262
  174MOL    C4345369   5.362   6.364   0.591 -0.2569  0.3196  0.1920
  174MOL    C4445370   5.467   6.319   0.499 -0.1557 -0.4211 -0.6497
  174MOL    C4545371   5.309   6.503   0.570 -0.1680 -0.2877 -0.0976
  174MOL    H4645372   5.445   6.101   0.674 -0.5681 -0.2343 -1.1489
  174MOL    H4745373   5.386   6.136   0.838 -2.5602  0.2705  0.3302
  174MOL    H4845374   5.235   6.317   0.751  0.1483 -1.5679  0.0207
  174MOL    H4945375   5.568   6.340   0.536 -0.4862 -0.8484  0.5206
  174MOL    H5045376   5.457   6.373   0.405  0.1887 -1.2800 -1.1830
  174MOL    H5145377   5.465   6.214   0.471 -0.9580  0.0151 -2.2748
  174MOL    H5245378   5.229   6.518   0.643 -0.3049  1.6958 -0.6230
  174MOL    H5345379   5.262   6.517   0.473  0.6308  1.0494 -0.3086
  174MOL    C5445380   5.410   6.616   0.595  0.3472 -0.5265 -0.0429
  174MOL    C5545381   5.346   6.756   0.603 -0.3340  0.1663  0.4817
  174MOL    C5645382   5.379   6.871   0.543  0.6458 -0.0701  0.8567
  174MOL    C5745383   5.485   6.888   0.432 -0.1544  0.0337  0.3421
  174MOL    C5845384   5.297   6.995   0.559 -0.3921 -0.1038 -0.5521
  174MOL    H5945385   5.490   6.611   0.522  1.1348 -0.1727  0.7848
  174MOL    H6045386   5.443   6.592   0.696 -0.0545 -0.0081  0.2171
  174MOL    H6145387   5.261   6.755   0.669 -0.0682  0.3764  0.8251
  174MOL    H6245388   5.566   6.817   0.451  0.3818  0.5473  0.0003
  174MOL    H6345389   5.519   6.991   0.443 -0.7726  0.4383 -1.3712
  174MOL    H6445390   5.446   6.877   0.330  1.7370 -0.9871 -0.2901
  174MOL    H6545391   5.210   6.965   0.619  0.0033 -1.7956 -0.7919
  174MOL    H6645392   5.247   7.031   0.469 -1.3744 -0.8292 -0.3145
  174MOL    C6745393   5.374   7.094   0.650  0.1639 -1.1429 -0.3647
  174MOL    C6845394   5.284   7.208   0.686  0.3510 -0.1446 -0.1125
  174MOL    C6945395   5.227   7.232   0.809 -0.0808  0.4374 -0.0652
  174MOL    C7045396   5.256   7.141   0.933  0.1323  0.1992  0.3886
  174MOL    C7145397   5.129   7.340   0.829 -0.2094 -0.2272  0.0583
  174MOL    H7245398   5.457   7.134   0.592 -1.4166 -0.3766 -2.1490
  174MOL    H7345399   5.406   7.050   0.745 -1.9806  0.3618  1.0788
  174MOL    H7445400   5.255   7.273   0.605 -0.3091  1.7947  1.6425
  174MOL    H7545401   5.235   7.189   1.029 -1.8776 -1.2112  0.6990
  174MOL    H7645402   5.358   7.103   0.934  0.8170  1.8995 -1.3416
  174MOL    H7745403   5.191   7.053   0.929 -0.0464  0.3525 -0.1425
  174MOL    H7845404   5.173   7.413   0.896 -1.8492  0.3114  0.5655
  174MOL    H7945405   5.044   7.303   0.885  0.9606 -1.3876  1.1044
  174MOL    C8045406   5.089   7.428   0.709 -0.6237 -0.4739  0.0270
  174MOL    C8145407   4.988   7.539   0.738 -0.3027 -0.6026 -0.6922
  174MOL    C8245408   4.878   7.573   0.663  0.3075 -0.1679  0.2654
  174MOL    C8345409   4.832   7.490   0.548 -0.0557  0.2120  0.0047
  174MOL    C8445410   4.802   7.700   0.681  0.2280  0.1485  0.3749
  174MOL    H8545411   5.036   7.361   0.641 -1.0641  0.2351 -0.3390
  174MOL    H8645412   5.176   7.468   0.657 -0.0154  1.4868  2.4781
  174MOL    H8745413   5.019   7.607   0.816 -0.1589 -0.0634 -1.2173
  174MOL    H8845414   4.835   7.385   0.579 -1.5197  0.1869  0.1227
  174MOL    H8945415   4.874   7.528   0.455  1.6410  2.4077  1.6193
  174MOL    H9045416   4.724   7.505   0.547 -0.0067  0.4959 -2.7592
  174MOL    H9145417   4.878   7.758   0.735  0.6887  0.1783 -0.2980
  174MOL    H9245418   4.725   7.685   0.756  0.3362 -0.6161  0.3403
  174MOL    C9345419   4.752   7.772   0.558  0.0323 -0.1445 -0.0496
  174MOL    C9445420   4.679   0.016   0.610  0.2579 -0.0631 -0.4606
  174MOL    C9545421   4.544   0.036   0.611 -0.1358 -0.4566  0.0840
  174MOL    C9645422   4.448   7.826   0.537 -0.0485  0.8508 -0.2506
  174MOL    C9745423   4.471   0.168   0.658  0.3159  0.5185 -0.3817
  174MOL    H9845424   4.695   7.709   0.490 -1.5917  2.1661 -0.9042
  174MOL    H9945425   4.845   7.800   0.508 -0.6558 -0.8088 -1.7411
  174MOL   H10045426   4.740   0.089   0.662  0.2341 -1.2259  1.2382
  174MOL   H10145427   4.499   7.730   0.527  2.3726  2.0585  0.0604
  174MOL   H10245428   4.418   7.862   0.439  0.3270  0.1258 -0.6343
  174MOL   H10345429   4.359   7.809   0.598 -0.2633  2.3689 -0.1098
  174MOL   H10445430   4.382   0.137   0.712 -0.5118  0.5765 -1.6888
  174MOL   H10545431   4.447   0.234   0.574  0.8822  0.3164 -0.7054
  174MOL   C10645432   4.557   0.252   0.757 -0.3722 -0.0743  0.6124
  174MOL   C10745433   4.482   0.373   0.815  0.4807 -0.5318 -0.3952
  174MOL   C10845434   4.536   0.485   0.864  0.2703  1.3114  0.2229
  174MOL   C10945435   4.684   0.501   0.879 -0.3420  0.1118  0.0193
  174MOL   C11045436   4.443   0.600   0.914  0.5304  0.1606 -0.1706
  174MOL   H11145437   4.645   0.289   0.705  0.3239 -0.9777  1.1346
  174MOL   H11245438   4.578   0.196   0.848  1.3471 -0.3106  0.0791
  174MOL   H11345439   4.375   0.362   0.817  0.1683  1.9522  5.0859
  174MOL   H11445440   4.763   0.464   0.815  1.8151  0.6070  2.3028
  174MOL   H11545441   4.715   0.482   0.982  0.9056  0.2186 -0.3377
  174MOL   H11645442   4.698   0.606   0.854 -3.6131  0.7566  0.6087
  174MOL   H11745443   4.477   0.641   1.010  1.1629  0.4112 -0.4993
  174MOL   H11845444   4.351   0.549   0.942 -0.2277  1.6134  0.0569
  174MOL   C11945445   4.415   0.710   0.811  0.3552  0.4888  0.1981
  174MOL   C12045446   4.305   0.810   0.853 -0.1043 -0.2826  0.1108
  174MOL   C12145447   4.209   0.859   0.777 -0.3865  0.2941 -0.0722
  174MOL   C12245448   4.185   0.809   0.636 -0.4300  0.4218 -0.0549
  174MOL   C12345449   4.108   0.964   0.824 -0.2574  1.2390 -0.6360
  174MOL   H12445450   4.408   0.662   0.713  1.0114  0.3036  0.2382
  174MOL   H12545451   4.500   0.777   0.795 -0.1571  0.9864 -0.4556
  174MOL   H12645452   4.324   0.843   0.955 -0.4477 -0.1867  0.1428
  174MOL   H12745453   4.228   0.882   0.566  0.5183  0.2058  0.2889
  174MOL   H12845454   4.086   0.788   0.597 -0.2815 -0.6963  0.1596
  174MOL   H12945455   4.241   0.721   0.606 -1.3901 -0.2080  0.0093
  174MOL   H13045456   4.085   0.961   0.930  1.3813 -1.1233 -0.3099
  174MOL   H13145457   4.016   0.936   0.774 -0.5997 -0.3557  0.8666
  174MOL   C13245458   4.137   1.105   0.796 -0.6226  0.5788 -0.6485
  174MOL   C13345459   4.244   1.158   0.889  0.2575 -0.4944  0.5489
  174MOL   C13445460   4.231   1.280   0.953  0.1647  0.3067  0.1967
  174MOL   C13545461   4.102   1.361   0.943 -0.1814 -0.3526 -0.0206
  174MOL   C13645462   4.330   1.335   1.042  0.8401 -0.2402 -0.2565
  174MOL   H13745463   4.046   1.163   0.778 -1.7086 -0.6614  0.7004
  174MOL   H13845464   4.183   1.106   0.698 -2.3888 -0.0867 -1.5000
  174MOL   H13945465   4.335   1.100   0.889  1.2855  1.0791  1.1656
  174MOL   H14045466   4.013   1.304   0.970  0.6438 -0.3902  2.7856
  174MOL   H14145467   4.096   1.406   0.844  0.7076  0.3829  0.2582
  174MOL   H14245468   4.103   1.444   1.013 -1.8349 -1.7194  1.6757
  174MOL   H14345469   4.357   1.437   1.013  0.2790 -0.4503 -1.5447
  174MOL   H14445470   4.416   1.272   1.021 -0.2528 -1.5268 -0.9768
  174MOL   C14545471   4.299   1.337   1.189 -0.8679 -0.4808 -0.4698
  174MOL   C14645472   4.417   1.386   1.277  0.0357 -0.2097  0.0726
  174MOL   C14745473   4.406   1.399   1.411 -0.4262  0.4197 -0.1127
  174MOL   C14845474   4.278   1.371   1.488 -0.1053  0.4957 -1.1485
  174MOL   C14945475   4.520   1.457   1.498  0.0051  0.1590  0.6458
  174MOL   H15045476   4.270   1.237   1.223 -0.6890 -0.5101 -0.4012
  174MOL   H15145477   4.214   1.396   1.222 -0.0905  0.2375  0.2800
  174MOL   H15245478   4.498   1.439   1.229 -0.3657  1.0751  0.7940
  174MOL   H15345479   4.288   1.287   1.556 -0.2917  0.2363 -1.4382
  174MOL   H15445480   4.203   1.333   1.418 -3.5073 -0.8660  3.0189
  174MOL   H15545481   4.238   1.451   1.550  3.0600  1.6029 -0.4531
  174MOL   H15645482   4.484   1.545   1.552  0.0268  0.2155  0.5666
  174MOL   H15745483   4.598   1.496   1.433  0.2180 -0.5109  0.4844
  174MOL   C15845484   4.582   1.356   1.598 -0.3023 -0.2827 -0.2605
  174MOL   C15945485   4.680   1.418   1.698  0.6807  0.8674  0.3987
  174MOL   C16045486   4.703   1.375   1.823 -0.4089  0.4921 -0.3143
  174MOL   C16145487   4.639   1.252   1.883  0.1253  0.2796  0.0487
  174MOL   C16245488   4.811   1.432   1.912 -1.2230 -0.1378  0.4869
  174MOL   H16345489   4.633   1.285   1.533 -0.0259  0.6832 -1.1076
  174MOL   H16445490   4.495   1.317   1.651  0.7225  0.5998  2.1361
  174MOL   H16545491   4.737   1.500   1.656 -1.3371  1.5557 -1.0418
  174MOL   H16645492   4.711   1.190   1.936  0.7498  0.2676 -0.8103
  174MOL   H16745493   4.590   1.196   1.802 -0.6158  1.6715 -0.4839
  174MOL   H16845494   4.567   1.278   1.961 -0.7543 -2.4415  0.2147
  174MOL   H16945495   4.846   1.517   1.853  0.7180 -1.6323 -0.6001
  174MOL   H17045496   4.902   1.372   1.921  1.0697  3.1712  0.3880
  174MOL   C17145497   4.748   1.477   2.042 -0.1701  0.3372 -0.2152
  174MOL   C17245498   4.755   1.371   2.150  0.1257  0.4656  0.3428
  174MOL   C17345499   4.668   1.345   2.249  0.2667  0.1690  0.2018
  174MOL   C17445500   4.539   1.420   2.273 -0.1559  0.4205 -0.8351
  174MOL   C17545501   4.695   1.219   2.338 -0.2532 -0.2385 -0.4316
  174MOL   H17645502   4.642   1.498   2.028 -0.2579  0.8777  1.1882
  174MOL   H17745503   4.798   1.566   2.082 -1.9959  1.4571 -0.3818
  174MOL   H17845504   4.847   1.315   2.142 -0.1686  0.0926 -0.4740
  174MOL   H17945505   4.546   1.514   2.218  0.8057 -0.0381 -1.5069
  174MOL   H18045506   4.518   1.444   2.378  0.6964  0.0269 -0.5704
  174MOL   H18145507   4.454   1.357   2.249  0.5289 -0.4938 -0.8562
  174MOL   H18245508   4.691   1.242   2.444 -0.0472 -1.9828 -0.0241
  174MOL   H18345509   4.799   1.196   2.316  0.5038  2.2173  0.4236
  174MOL   C18445510   4.592   1.111   2.303 -0.1516  0.5691  0.2786
  174MOL   C18545511   4.633   0.964   2.345  0.2986 -0.5836 -0.1126
  174MOL   C18645512   4.635   0.851   2.278 -0.5123  0.7351  0.0836
  174MOL   C18745513   4.559   0.834   2.144  0.6719 -0.3549 -0.2951
  174MOL   C18845514   4.692   0.723   2.334  0.9409  0.6561 -0.0612
  174MOL   H18945515   4.574   1.109   2.195 -5.2925  0.0857  1.0313
  174MOL   H19045516   4.493   1.144   2.334 -0.3538 -1.3570  1.6948
  174MOL   H19145517   4.683   0.965   2.441 -0.5212  0.4072  0.3171
  174MOL   H19245518   4.619   0.809   2.057 -1.0525 -1.0308 -1.3068
  174MOL   H19345519   4.501   0.927   2.139 -0.6250 -0.7677  4.3605
  174MOL   H19445520   4.479   0.761   2.144  1.9057 -1.7160 -0.8873
  174MOL   H19545521   4.617   0.644   2.333  1.2054  0.3911  0.6308
  174MOL   H19645522   4.711   0.742   2.439  2.3522 -0.1391 -0.1538
  174MOL   C19745523   4.815   0.666   2.273  0.0742  0.5007 -0.0768
  174MOL   C19845524   4.852   0.533   2.346  0.1683 -0.2178  0.0265
  174MOL   C19945525   4.806   0.410   2.322 -0.0172  0.2184 -0.0601
  174MOL   C20045526   4.701   0.380   2.217  0.2622  0.0528  0.0929
  174MOL   C20145527   4.866   0.285   2.389 -0.4932  0.3446  0.7966
  174MOL   H20245528   4.900   0.733   2.263  0.1343  0.0694 -2.9956
  174MOL   H20345529   4.791   0.640   2.170 -0.5419 -0.0965  0.2068
  174MOL   H20445530   4.912   0.558   2.432 -0.6527  0.7650  0.3215
  174MOL   H20545531   4.651   0.459   2.160  1.6875  2.9848  2.7563
  174MOL   H20645532   4.616   0.314   2.231  0.8617 -1.1716 -1.7877
  174MOL   H20745533   4.750   0.332   2.132  0.2238 -0.0170  0.1096
  174MOL   H20845534   4.941   0.311   2.464 -1.1682 -2.4960  2.5097
  174MOL   H20945535   4.909   0.220   2.314 -2.0488 -1.5660  1.5078
  174MOL   C21045536   4.767   0.198   2.456  0.3869  0.4436  0.2743
  174MOL   C21145537   4.848   0.108   2.553 -0.3360  0.3114  0.3918
  174MOL   C21245538   4.816   0.066   2.673  0.6983  0.2274  0.2464
  174MOL   C21345539   4.706   0.112   2.755  0.7400 -0.1249  0.2088
  174MOL   C21445540   4.902   7.842   2.734  0.7379 -0.3234  0.4203
  174MOL   H21545541   4.724   0.135   2.378  0.0910  1.0216 -0.0278
  174MOL   H21645542   4.686   0.248   2.508  0.7833 -1.1706  2.5395
  174MOL   H21745543   4.928   0.065   2.495 -0.4829 -1.4765  1.4919
  174MOL   H21845544   4.609   0.067   2.734 -0.1972  0.7900  2.4292
  174MOL   H21945545   4.685   0.218   2.749  1.9438  0.1032 -0.1320
  174MOL   H22045546   4.727   0.085   2.858 -2.0265  0.5659  0.9859
  174MOL   H22145547   4.965   7.775   2.675 -0.6783 -0.4410 -1.0047
  174MOL   H22245548   4.823   7.784   2.783  0.0170 -0.9604 -1.4436
  174MOL   C22345549   4.994   0.006   2.848  0.6626 -0.1402  0.2127
  174MOL   C22445550   5.110   0.089   2.805  0.1106  0.4135 -0.7693
  174MOL   C22545551   5.244   0.062   2.828  0.3888  0.0970  0.3001
  174MOL   C22645552   5.298   7.812   2.886 -0.9569 -0.7540  0.1984
  174MOL   C22745553   5.353   0.154   2.777  0.0022 -0.3651 -0.2223
  174MOL   H22845554   5.021   7.804   2.912  0.9248  2.6349  3.9055
  174MOL   H22945555   4.940   0.072   2.916  1.9299  0.8789  0.2391
  174MOL   H23045556   5.074   0.184   2.771  1.0743  1.3936  0.8800
  174MOL   H23145557   5.386   7.828   2.947  0.6420 -2.7455 -1.5036
  174MOL   H23245558   5.324   7.737   2.811 -1.3549 -0.5601 -0.1393
  174MOL   H23345559   5.227   7.758   2.948 -0.8699  1.2924  2.1141
  174MOL   H23445560   5.427   0.170   2.855 -0.8903  0.2272  0.5169
  174MOL   H23545561   5.300   0.243   2.744  2.5881  2.3620  2.7001
  174MOL   C23645562   5.424   0.091   2.657 -0.5610  0.3126  0.4343
  174MOL   C23745563   5.531   0.180   2.590 -0.2253 -0.0516  0.1945
  174MOL   C23845564   5.637   0.143   2.521  0.3715 -0.9741  0.7372
  174MOL   C23945565   5.672   7.877   2.505  0.5556 -0.3713 -0.1761
  174MOL   C24045566   5.752   0.231   2.482 -0.2308 -0.4094 -0.8694
  174MOL   H24145567   5.354   0.074   2.575  0.8864  0.8312 -0.9362
  174MOL   H24245568   5.474   7.882   2.690 -0.0069 -0.7618 -3.0932
  174MOL   H24345569   5.515   0.286   2.606 -0.0935 -0.3760  2.7500
  174MOL   H24445570   5.726   7.868   2.411 -0.4345 -3.6851 -0.4924
  174MOL   H24545571   5.579   7.821   2.496 -0.3092  0.5559  2.4193
  174MOL   H24645572   5.714   7.836   2.597 -1.4197 -3.0361 -0.4186
  174MOL   H24745573   5.711   0.331   2.496 -0.5620 -0.8097  1.2144
  174MOL   H24845574   5.775   0.221   2.376 -2.1061 -0.0093 -1.3463
  174MOL   C24945575   5.872   0.217   2.581  0.6324  0.5323 -0.0977
  174MOL   C25045576   5.983   0.316   2.553  0.7609  0.1529  0.4238
  174MOL   C25145577   6.003   0.432   2.625  0.0900 -0.5219 -0.3433
  174MOL   C25245578   5.920   0.473   2.745 -0.6369 -0.5841 -0.1406
  174MOL   C25345579   6.110   0.537   2.578  0.6798  0.2258 -0.8439
  174MOL   H25445580   5.921   0.121   2.569 -1.0549 -0.1715 -1.6452
  174MOL   H25545581   5.830   0.211   2.681 -0.8711 -0.6123 -0.7736
  174MOL   H25645582   6.041   0.310   2.463  0.3132 -1.2533  0.2075
  174MOL   H25745583   5.923   0.575   2.782 -0.1880 -0.2761 -1.0115
  174MOL   H25845584   5.946   0.413   2.832 -0.4658 -0.9840 -0.4650
  174MOL   H25945585   5.821   0.429   2.732 -1.0686 -0.2830  1.8985
  174MOL   H26045586   6.176   0.564   2.660  1.8362  0.4133 -1.8165
  174MOL   H26145587   6.056   0.621   2.534  0.1797  0.0041 -0.6537
  174MOL   H26245588   6.176   0.491   2.504  1.9920 -0.9426  1.0306
  175MOL     C145589   6.061   6.020   3.753  0.1640  0.1785 -0.3857
  175MOL     C245590   6.094   5.977   3.613 -0.2999  0.5954 -0.3297
  175MOL     C345591   6.057   6.038   3.499 -0.0600  0.0642 -0.1057
  175MOL     C445592   5.976   6.165   3.482 -0.0114  0.5704  0.2225
  175MOL     C545593   6.117   5.982   3.370 -0.4765  0.0861 -0.0572
  175MOL     H645594   6.076   6.127   3.769  0.4882 -0.1474  1.6225
  175MOL     H745595   5.954   6.014   3.773 -0.2925  0.9316 -2.5369
  175MOL     H845596   6.147   5.883   3.614  1.3060  1.4768 -0.8980
  175MOL     H945597   5.885   6.135   3.430 -1.2424  0.7854  2.2263
  175MOL    H1045598   6.027   6.236   3.417 -4.4984  3.9708  0.1594
  175MOL    H1145599   5.945   6.207   3.577  1.0187  0.1311  0.7522
  175MOL    H1245600   6.226   5.969   3.368 -0.7283 -2.0470 -2.9112
  175MOL    H1345601   6.089   6.054   3.293 -0.8091  1.1472  1.0441
  175MOL    H1445602   6.118   5.962   3.825 -0.3599 -0.1024 -0.1953
  175MOL    C1545603   6.054   5.844   3.337 -0.2427  0.3632  0.3723
  175MOL    C1645604   6.103   5.794   3.200  0.4420  0.0699 -0.0379
  175MOL    C1745605   6.180   5.687   3.176 -0.7082 -0.4314  0.0844
  175MOL    C1845606   6.253   5.617   3.286  0.3427 -0.3271  0.4563
  175MOL    C1945607   6.193   5.635   3.033  0.1657  0.1548  0.2614
  175MOL    H2045608   5.945   5.847   3.328 -0.2400 -0.6889 -0.1278
  175MOL    H2145609   6.074   5.765   3.409  2.3176 -0.7947 -1.5429
  175MOL    H2245610   6.055   5.854   3.124 -0.8249  1.1720  1.5845
  175MOL    H2345611   6.266   5.662   3.384 -1.5528 -1.7917  1.4197
  175MOL    H2445612   6.356   5.593   3.261 -0.3333 -2.0972 -0.7708
  175MOL    H2545613   6.198   5.524   3.300 -0.0427 -0.0152  1.0248
  175MOL    H2645614   6.294   5.662   3.002 -0.2981  0.4359 -1.0443
  175MOL    H2745615   6.143   5.693   2.956 -1.1705  1.2758  1.9376
  175MOL    C2845616   6.195   5.481   3.020 -0.5436  0.1125  0.2214
  175MOL    C2945617   6.201   5.430   2.871  0.0805  0.9367 -0.3155
  175MOL    C3045618   6.135   5.324   2.823  0.1723 -0.3528  0.9524
  175MOL    C3145619   6.054   5.224   2.901 -0.1541 -0.0215 -0.3561
  175MOL    C3245620   6.131   5.303   2.675 -0.1218  0.2464  0.4871
  175MOL    H3345621   6.099   5.458   3.066 -0.5881  2.3328  1.3064
  175MOL    H3445622   6.270   5.429   3.079 -1.3716 -0.2278  0.9923
  175MOL    H3545623   6.254   5.491   2.800 -1.6746  0.3097 -2.2132
  175MOL    H3645624   6.067   5.236   3.008  0.1508 -0.8548 -0.2928
  175MOL    H3745625   6.075   5.123   2.864  1.0885 -0.0285  0.3554
  175MOL    H3845626   5.948   5.236   2.879  0.0627  1.7949 -0.4761
  175MOL    H3945627   6.051   5.230   2.658 -0.4400  0.5978  0.4650
  175MOL    H4045628   6.225   5.249   2.664 -0.0669  0.3493  0.4506
  175MOL    C4145629   6.132   5.437   2.589 -0.4216  0.8017  0.1062
  175MOL    C4245630   6.045   5.417   2.462 -0.5601  0.1278  0.7726
  175MOL    C4345631   6.101   5.397   2.343  0.0155  0.9660 -0.0159
  175MOL    C4445632   6.253   5.399   2.326 -0.3215  0.3033  0.3123
  175MOL    C4545633   6.021   5.355   2.221 -0.0815  0.9757  0.6231
  175MOL    H4645634   6.235   5.471   2.578 -0.2366 -0.3701 -1.9268
  175MOL    H4745635   6.078   5.510   2.649 -4.1231 -2.5322  1.0776
  175MOL    H4845636   5.939   5.411   2.483 -0.3988 -0.1211  1.5557
  175MOL    H4945637   6.307   5.314   2.366 -1.0708 -1.2339 -1.8409
  175MOL    H5045638   6.299   5.490   2.366 -3.3031  2.3178 -0.5911
  175MOL    H5145639   6.285   5.385   2.223  1.5089 -1.7584  1.1324
  175MOL    H5245640   6.041   5.421   2.136 -2.1035  1.3440  0.4068
  175MOL    H5345641   5.919   5.378   2.251 -1.2633 -0.8689 -1.8476
  175MOL    C5445642   6.047   5.210   2.174 -0.2224 -0.0227  0.0466
  175MOL    C5545643   5.957   5.187   2.052  0.7455  0.1093  0.0197
  175MOL    C5645644   5.826   5.147   2.059 -0.0058  0.6094  0.7365
  175MOL    C5745645   5.761   5.110   2.192  0.1011  0.1712  0.5481
  175MOL    C5845646   5.743   5.116   1.935  0.0575 -0.3933  0.2033
  175MOL    H5945647   6.027   5.136   2.251 -1.8228 -0.8813 -1.1624
  175MOL    H6045648   6.153   5.203   2.152 -0.1554  2.2664 -0.4976
  175MOL    H6145649   6.002   5.222   1.960  2.1813  0.6427  0.8947
  175MOL    H6245650   5.715   5.011   2.187 -2.1447  1.2458 -0.4697
  175MOL    H6345651   5.678   5.179   2.202  0.5328  0.7941 -0.1134
  175MOL    H6445652   5.823   5.128   2.280  1.7750 -1.1541 -0.3356
  175MOL    H6545653   5.707   5.015   1.958 -1.6227  0.4570  1.4635
  175MOL    H6645654   5.811   5.104   1.851  0.1888  0.2863  0.2155
  175MOL    C6745655   5.636   5.225   1.908  0.8549 -0.5609  0.8132
  175MOL    C6845656   5.689   5.360   1.888  0.0812 -0.0281  0.5225
  175MOL    C6945657   5.622   5.474   1.917  0.0944  0.1760  0.0211
  175MOL    C7045658   5.477   5.472   1.964 -0.2574  0.1442  0.0772
  175MOL    C7145659   5.694   5.609   1.913  0.1417 -0.1241  0.1013
  175MOL    H7245660   5.568   5.224   1.994  0.2698  0.5101  0.3724
  175MOL    H7345661   5.577   5.197   1.820 -0.9955 -0.0554  1.8499
  175MOL    H7445662   5.795   5.362   1.869 -0.2019  1.2147 -0.9908
  175MOL    H7545663   5.486   5.483   2.073  0.0946 -0.6071  0.1226
  175MOL    H7645664   5.431   5.380   1.930  1.7390 -1.2760  1.1269
  175MOL    H7745665   5.430   5.564   1.929  1.1877  1.5651  1.7048
  175MOL    H7845666   5.645   5.680   1.846 -0.3110  0.3873  0.9572
  175MOL    H7945667   5.795   5.597   1.874 -0.4322  2.6929 -2.4233
  175MOL    C8045668   5.691   5.681   2.045  0.0712  0.1505  0.5888
  175MOL    C8145669   5.751   5.824   2.033  1.0408 -0.5909 -0.4566
  175MOL    C8245670   5.849   5.879   2.108 -1.2064 -0.2673 -0.3049
  175MOL    C8345671   5.915   5.802   2.226  0.1913 -0.0377  0.7982
  175MOL    C8445672   5.924   6.008   2.066  0.2750 -0.0362 -0.1704
  175MOL    H8545673   5.758   5.636   2.118  1.5225  1.5346  0.1071
  175MOL    H8645674   5.590   5.703   2.082 -0.3624  0.4848 -0.7574
  175MOL    H8745675   5.710   5.882   1.952 -1.5127 -0.4550  0.8823
  175MOL    H8845676   5.833   5.757   2.282  1.6542 -0.7950  2.3936
  175MOL    H8945677   5.968   5.876   2.286  0.8466  0.8710 -0.8619
  175MOL    H9045678   5.966   5.709   2.201 -2.2133 -0.8135 -1.3885
  175MOL    H9145679   5.942   6.065   2.156  1.5904 -0.7116  0.0091
  175MOL    H9245680   5.855   6.055   1.996 -0.8196 -1.3226  0.0322
  175MOL    C9345681   6.059   5.991   1.998 -0.3880 -0.5730  0.5661
  175MOL    C9445682   6.062   5.899   1.875  0.3770  0.0127  0.2706
  175MOL    C9545683   6.140   5.786   1.866 -0.1525  1.0667  0.7947
  175MOL    C9645684   6.229   5.737   1.977  0.0382 -0.0417  0.1519
  175MOL    C9745685   6.146   5.708   1.737  0.6534  0.3485  0.3071
  175MOL    H9845686   6.137   5.966   2.070  1.5632  0.7736 -0.9998
  175MOL    H9945687   6.089   6.088   1.960 -1.9451 -0.3849 -0.2342
  175MOL   H10045688   5.997   5.925   1.793 -0.1169  0.5388  0.8139
  175MOL   H10145689   6.309   5.679   1.931 -1.9836 -0.8683 -2.4655
  175MOL   H10245690   6.174   5.672   2.046  4.2820 -1.0756  2.7814
  175MOL   H10345691   6.280   5.815   2.033 -0.8064 -0.2798  1.2854
  175MOL   H10445692   6.062   5.740   1.676  0.1010  1.1955  1.4814
  175MOL   H10545693   6.158   5.601   1.755 -0.8248  0.0880 -0.1776
  175MOL   C10645694   6.260   5.747   1.642  0.4187  0.6966  0.1258
  175MOL   C10745695   6.258   5.653   1.521 -0.1542  0.0821 -1.2101
  175MOL   C10845696   6.313   5.670   1.400  0.3014  0.6225  0.4081
  175MOL   C10945697   6.370   5.807   1.353  0.1988  0.9413 -0.0511
  175MOL   C11045698   6.304   5.560   1.291  0.3313  0.1899  0.0831
  175MOL   H11145699   6.355   5.740   1.695  1.3702 -1.8572 -1.7867
  175MOL   H11245700   6.249   5.850   1.608 -1.3294  0.7703  0.8855
  175MOL   H11345701   6.228   5.553   1.551  2.0550  0.3333  2.0216
  175MOL   H11445702   6.470   5.832   1.390  0.8327  0.1130 -1.1560
  175MOL   H11545703   6.313   5.892   1.390  0.3485  1.3862 -0.8284
  175MOL   H11645704   6.371   5.815   1.244 -2.1864 -0.1727 -0.1829
  175MOL   H11745705   6.263   5.610   1.203  0.9971 -1.4332 -1.1812
  175MOL   H11845706   6.241   5.476   1.318 -0.6422  0.7350 -0.4484
  175MOL   C11945707   6.444   5.497   1.276 -0.4707  0.9890  0.1147
  175MOL   C12045708   6.453   5.401   1.161  0.2590 -0.2087 -0.2960
  175MOL   C12145709   6.494   5.436   1.039 -0.0672 -0.2264  0.6166
  175MOL   C12245710   6.542   5.575   1.002  0.3733  0.1408  0.4830
  175MOL   C12345711   6.508   5.334   0.928 -0.1426 -0.0261 -0.3543
  175MOL   H12445712   6.458   5.450   1.374  2.4356 -1.4649 -1.3938
  175MOL   H12545713   6.526   5.568   1.265 -0.6045  1.2324  0.6800
  175MOL   H12645714   6.439   5.297   1.183  1.1652 -1.0375 -3.3542
  175MOL   H12745715   6.651   5.579   0.998  0.4154  1.0475  1.9984
  175MOL   H12845716   6.496   5.652   1.065 -1.6776 -0.7700  0.1348
  175MOL   H12945717   6.509   5.598   0.901  1.6902 -1.6890 -0.3809
  175MOL   H13045718   6.460   5.375   0.840 -1.2257 -1.7059 -0.5583
  175MOL   H13145719   6.467   5.236   0.949 -0.0796  0.1702  0.7568
  175MOL   C13245720   6.656   5.303   0.910  0.5418  0.6444  0.5121
  175MOL   C13345721   6.724   5.236   1.024 -0.5057  0.5355 -0.5317
  175MOL   C13445722   6.724   5.103   1.058  0.3167 -0.3442  0.3147
  175MOL   C13545723   6.644   4.998   0.980 -0.3713  1.1044  0.4442
  175MOL   C13645724   6.800   5.053   1.183  0.0653 -0.0323 -0.6072
  175MOL   H13745725   6.718   5.389   0.882  0.0450  0.5005 -1.1245
  175MOL   H13845726   6.659   5.248   0.816 -0.8176  1.4936 -0.0496
  175MOL   H13945727   6.771   5.307   1.091  1.4657  0.8608 -2.1940
  175MOL   H14045728   6.572   4.959   1.051  0.2642  1.3388  1.2162
  175MOL   H14145729   6.693   4.910   0.939 -1.9030  0.8318 -0.8327
  175MOL   H14245730   6.583   5.041   0.900  0.5448  0.5936 -0.5491
  175MOL   H14345731   6.881   5.123   1.201  0.1862 -0.4803  0.6746
  175MOL   H14445732   6.839   4.954   1.157  2.7217  0.9672 -0.5811
  175MOL   C14545733   6.705   5.057   1.306 -0.0818  0.3325 -0.6188
  175MOL   C14645734   6.755   4.991   1.429 -0.0540  0.3537 -0.1427
  175MOL   C14745735   6.794   5.046   1.548  0.2450 -0.2510  0.4581
  175MOL   C14845736   6.781   5.200   1.579 -0.7421  0.2232  0.6011
  175MOL   C14945737   6.837   4.962   1.665 -0.0590 -0.0263  0.5750
  175MOL   H15045738   6.613   5.008   1.273 -0.0949  2.0065 -3.1787
  175MOL   H15145739   6.680   5.156   1.342  0.3017 -0.5740  2.2838
  175MOL   H15245740   6.765   4.885   1.412 -1.0130  0.5490 -2.0179
  175MOL   H15345741   6.871   5.249   1.541  0.6547 -1.2650  1.9183
  175MOL   H15445742   6.785   5.216   1.687  0.2771 -1.7087  0.8618
  175MOL   H15545743   6.693   5.249   1.538 -0.7686  1.5103  2.1387
  175MOL   H15645744   6.830   4.855   1.650  1.0104 -0.0267  0.0570
  175MOL   H15745745   6.782   4.991   1.755  1.5156 -0.3367  1.6581
  175MOL   C15845746   6.989   4.973   1.695  0.5594 -0.9411  0.3300
  175MOL   C15945747   7.029   4.895   1.819  0.2755 -0.1220  0.0010
  175MOL   C16045748   7.120   4.797   1.827 -0.2032  0.2002  0.2305
  175MOL   C16145749   7.190   4.754   1.696 -0.2687  0.0242 -0.2679
  175MOL   C16245750   7.138   4.702   1.953 -0.0042  0.3543  0.7917
  175MOL   H16345751   7.013   5.079   1.700  0.3665 -0.9137  0.6440
  175MOL   H16445752   7.041   4.941   1.604 -2.0575  1.4125 -2.1276
  175MOL   H16545753   6.974   4.925   1.907  0.6355  1.4567 -0.2962
  175MOL   H16645754   7.238   4.846   1.663  1.1678 -0.9471 -0.9092
  175MOL   H16745755   7.115   4.715   1.628 -1.3187  1.9205 -0.2233
  175MOL   H16845756   7.257   4.670   1.712 -2.3020 -1.8142 -1.1612
  175MOL   H16945757   7.110   4.757   2.043 -1.2974 -0.6828  1.0448
  175MOL   H17045758   7.241   4.675   1.972 -0.0813 -1.8733 -1.6469
  175MOL   C17145759   7.067   4.570   1.930 -0.4773  0.2372  0.0547
  175MOL   C17245760   6.918   4.595   1.916  0.5894 -0.7835  0.0274
  175MOL   C17345761   6.822   4.516   1.862  0.1612  0.4113  0.2364
  175MOL   C17445762   6.847   4.378   1.814 -0.8974  0.4512 -0.4517
  175MOL   C17545763   6.679   4.557   1.855 -0.1940  0.3286  0.1405
  175MOL   H17645764   7.075   4.504   2.016 -2.1365  1.1431  0.9305
  175MOL   H17745765   7.109   4.524   1.841  1.5338  0.5599  0.8085
  175MOL   H17845766   6.887   4.686   1.966  2.6089 -0.3911  0.6420
  175MOL   H17945767   6.852   4.378   1.705  0.3547 -0.4814 -0.4157
  175MOL   H18045768   6.765   4.310   1.834 -1.4541  0.9275 -1.0994
  175MOL   H18145769   6.931   4.336   1.870 -1.3682 -1.3409 -1.0539
  175MOL   H18245770   6.645   4.524   1.757  1.2329 -1.9516  0.3678
  175MOL   H18345771   6.657   4.663   1.842  0.1999  0.4163  0.1917
  175MOL   C18445772   6.585   4.491   1.951 -0.3394 -0.6308 -0.1656
  175MOL   C18545773   6.444   4.501   1.894 -0.4299 -0.6890  0.4916
  175MOL   C18645774   6.363   4.397   1.856 -0.1761  0.3025  0.1381
  175MOL   C18745775   6.417   4.260   1.828 -0.1625  0.2770  0.0968
  175MOL   C18845776   6.222   4.420   1.816  0.0526 -0.0060 -0.0354
  175MOL   H18945777   6.586   4.547   2.045  0.0237 -0.7096 -0.1188
  175MOL   H19045778   6.609   4.388   1.977 -0.2480 -0.8342 -1.0428
  175MOL   H19145779   6.409   4.603   1.890 -1.1318 -0.9496 -0.0771
  175MOL   H19245780   6.396   4.232   1.725 -1.2682 -1.0816  0.6641
  175MOL   H19345781   6.362   4.182   1.881 -1.1982  1.6283  1.0422
  175MOL   H19445782   6.524   4.241   1.833  0.5378  3.7562 -0.7157
  175MOL   H19545783   6.191   4.355   1.734  1.5694 -1.2583  0.3551
  175MOL   H19645784   6.213   4.526   1.793 -2.0114  0.6424  3.4098
  175MOL   C19745785   6.125   4.386   1.934 -0.7245  0.4707  0.1481
  175MOL   C19845786   5.991   4.451   1.909  0.5642  0.0975  0.0943
  175MOL   C19945787   5.878   4.398   1.863  0.7096 -0.6297 -0.2243
  175MOL   C20045788   5.852   4.249   1.839  0.3398 -0.4661 -0.3217
  175MOL   C20145789   5.756   4.491   1.845  0.0010  0.2574  0.7673
  175MOL   H20245790   6.160   4.429   2.028  1.7132 -2.1270  0.4597
  175MOL   H20345791   6.125   4.279   1.953  0.6357  0.4377  0.0016
  175MOL   H20445792   5.996   4.558   1.918 -0.8736  0.0575  1.8715
  175MOL   H20545793   5.891   4.184   1.918 -0.0629  0.5550  0.7374
  175MOL   H20645794   5.896   4.211   1.746  0.1533  1.6739 -1.2995
  175MOL   H20745795   5.745   4.231   1.835 -0.0365  1.6788 -0.4081
  175MOL   H20845796   5.662   4.471   1.898 -0.2997  0.7864  0.4325
  175MOL   H20945797   5.732   4.482   1.739  0.8847 -1.3131  0.6785
  175MOL   C21045798   5.772   4.641   1.881 -0.2112 -0.1563 -0.0126
  175MOL   C21145799   5.763   4.657   2.028  0.2737 -0.6612  0.2114
  175MOL   C21245800   5.848   4.723   2.106 -1.0956 -0.7248 -0.1158
  175MOL   C21345801   5.977   4.799   2.064  0.0972 -0.4513 -0.6432
  175MOL   C21445802   5.823   4.730   2.260  0.1628 -0.2372  0.2545
  175MOL   H21545803   5.691   4.688   1.826  0.1320 -0.0685 -0.4389
  175MOL   H21645804   5.866   4.672   1.837  0.3802 -0.8041  0.7680
  175MOL   H21745805   5.678   4.615   2.079 -0.7349  0.5246 -0.4731
  175MOL   H21845806   5.995   4.818   1.958  3.9705  1.8560  0.3130
  175MOL   H21945807   6.071   4.751   2.090  0.3141 -0.4030 -1.3190
  175MOL   H22045808   5.981   4.898   2.110  1.0767 -1.3471  1.2061
  175MOL   H22145809   5.727   4.682   2.281  0.1318 -1.6612 -2.8790
  175MOL   H22245810   5.812   4.835   2.287  0.8016 -0.8112  2.8369
  175MOL   C22345811   5.934   4.669   2.350 -0.6159  0.3657  0.2198
  175MOL   C22445812   5.909   4.702   2.494  0.1338  0.1169  0.7500
  175MOL   C22545813   5.965   4.799   2.565 -0.0819  0.0411 -0.0328
  175MOL   C22645814   6.059   4.906   2.507 -0.6961  0.1386 -0.8401
  175MOL   C22745815   5.934   4.822   2.717 -0.1885 -0.8730  0.3529
  175MOL   H22845816   6.033   4.704   2.321 -1.1922  1.8439  0.0071
  175MOL   H22945817   5.924   4.562   2.335 -0.6564  0.1461  1.7765
  175MOL   H23045818   5.829   4.640   2.532 -0.2052 -0.5404 -1.0102
  175MOL   H23145819   6.048   4.902   2.398  0.8053 -0.0836 -0.9951
  175MOL   H23245820   6.156   4.864   2.535 -0.0457  2.0113 -0.2208
  175MOL   H23345821   6.055   5.006   2.550 -0.3206 -1.1025  2.2266
  175MOL   H23445822   5.869   4.741   2.747 -0.6831 -0.0873  1.4239
  175MOL   H23545823   5.876   4.913   2.734 -0.3028 -0.8859  0.0237
  175MOL   C23645824   6.060   4.824   2.810  0.3766  0.1842  0.2207
  175MOL   C23745825   6.016   4.852   2.950 -0.1128 -1.1093 -0.1839
  175MOL   C23845826   6.102   4.887   3.051 -0.6484  0.1954 -0.4120
  175MOL   C23945827   6.253   4.910   3.037 -0.4843 -0.5691  0.5291
  175MOL   C24045828   6.056   4.917   3.195  0.7740  0.3522 -0.1725
  175MOL   H24145829   6.123   4.905   2.771  1.8060 -0.7957  0.4629
  175MOL   H24245830   6.117   4.731   2.807  0.7826  0.4674 -2.2593
  175MOL   H24345831   5.914   4.825   2.973 -0.6135  0.6868 -0.1815
  175MOL   H24445832   6.286   5.014   3.037 -0.2176 -0.6466 -1.0622
  175MOL   H24545833   6.281   4.879   2.937 -1.5153 -0.1120  0.0889
  175MOL   H24645834   6.299   4.852   3.117 -0.0559 -3.7270 -1.9433
  175MOL   H24745835   6.130   4.861   3.251 -1.7763 -2.8178  0.1960
  175MOL   H24845836   5.957   4.872   3.204  1.7241 -1.5025  1.5023
  175MOL   C24945837   6.057   5.070   3.228 -0.2975  0.3466 -0.1229
  175MOL   C25045838   6.038   5.114   3.375  0.3104 -0.2489 -0.9984
  175MOL   C25145839   6.131   5.184   3.442 -0.3723 -0.5659 -0.9798
  175MOL   C25245840   6.271   5.204   3.390 -0.2754 -0.1267  0.3998
  175MOL   C25345841   6.092   5.248   3.576 -0.8060  0.2677 -0.0340
  175MOL   H25445842   5.969   5.110   3.178 -0.2045 -0.3984 -0.9057
  175MOL   H25545843   6.151   5.107   3.187 -0.6588 -0.4890 -1.7346
  175MOL   H25645844   5.941   5.092   3.416  0.1840  0.8732 -0.6685
  175MOL   H25745845   6.344   5.191   3.470  1.8161  2.4376 -0.9867
  175MOL   H25845846   6.268   5.307   3.353  0.4433  0.1258  1.0413
  175MOL   H25945847   6.310   5.136   3.314 -0.3078 -0.0601  0.3242
  175MOL   H26045848   5.985   5.267   3.590 -0.2533  1.4309  3.0088
  175MOL   H26145849   6.118   5.354   3.575  1.2420 -0.1774  2.5037
  175MOL   H26245850   6.131   5.194   3.662 -1.1646 -0.8726 -0.5719
  176MOL     C145851   6.988   7.517   2.309  0.0566 -0.4114 -0.2909
  176MOL     C245852   7.071   7.396   2.273 -0.4468 -0.8626  0.1211
  176MOL     C345853   7.031   7.279   2.227  0.1208  0.4466 -0.1331
  176MOL     C445854   6.886   7.238   2.204 -0.0819  0.0507  0.0497
  176MOL     C545855   7.134   7.179   2.182 -0.3336  0.8781  0.4852
  176MOL     H645856   6.960   7.520   2.414  0.0629  1.2462 -0.3219
  176MOL     H745857   7.047   7.607   2.287 -0.7669 -0.1588 -1.4816
  176MOL     H845858   7.178   7.403   2.286 -0.5067 -1.3240  0.9326
  176MOL     H945859   6.818   7.311   2.248  0.0312 -1.0492  2.1392
  176MOL    H1045860   6.864   7.139   2.246  0.2375 -0.3221 -0.6405
  176MOL    H1145861   6.857   7.233   2.099  2.8925  1.3443 -0.8952
  176MOL    H1245862   7.231   7.229   2.180 -1.2743  2.7180 -1.5550
  176MOL    H1345863   7.118   7.153   2.078 -3.2780  1.1071  0.8466
  176MOL    H1445864   6.908   7.515   2.235  0.3791  2.4021 -0.7916
  176MOL    C1545865   7.135   7.063   2.277 -0.1285  0.3830 -1.0585
  176MOL    C1645866   7.247   6.964   2.243  0.3430  0.8733 -0.2533
  176MOL    C1745867   7.260   6.840   2.300 -0.7176 -0.1593  0.6549
  176MOL    C1845868   7.163   6.788   2.395 -0.1723 -0.3969  0.1622
  176MOL    C1945869   7.386   6.756   2.284  0.2114 -0.0049  0.1462
  176MOL    H2045870   7.043   7.004   2.266  0.7722 -1.4506  0.9014
  176MOL    H2145871   7.142   7.085   2.383  0.4806 -0.2065 -0.9767
  176MOL    H2245872   7.321   7.016   2.183 -0.4990 -0.1397 -2.2197
  176MOL    H2345873   7.216   6.770   2.489 -1.7936 -1.1088  0.9638
  176MOL    H2445874   7.126   6.695   2.352 -2.0291  0.3135  0.1959
  176MOL    H2545875   7.082   6.856   2.420 -1.3854 -1.4716 -0.7346
  176MOL    H2645876   7.358   6.682   2.209 -0.2820  1.0895 -0.7672
  176MOL    H2745877   7.423   6.719   2.379  1.1775  2.4914  0.7765
  176MOL    C2845878   7.515   6.823   2.225  0.5157  0.1629 -0.0940
  176MOL    C2945879   7.622   6.724   2.205 -0.2536  0.6258 -0.0933
  176MOL    C3045880   7.753   6.726   2.241 -0.5170 -1.4843  0.4051
  176MOL    C3145881   7.809   6.835   2.331  0.5290  0.0709  0.5836
  176MOL    C3245882   7.853   6.617   2.200  0.0792 -0.4955 -0.7020
  176MOL    H3345883   7.535   6.908   2.290 -3.8073  0.7276  0.6540
  176MOL    H3445884   7.503   6.868   2.126  4.1683  1.5599  0.0243
  176MOL    H3545885   7.604   6.633   2.150 -3.1089  0.9378  0.2413
  176MOL    H3645886   7.775   6.804   2.430  2.1120 -0.8715  0.8524
  176MOL    H3745887   7.763   6.934   2.322 -0.6727 -0.4032  1.4366
  176MOL    H3845888   0.035   6.830   2.336  0.4231 -0.7887  2.5754
  176MOL    H3945889   0.056   6.668   2.157 -1.3335  0.3833 -2.5095
  176MOL    H4045890   7.815   6.557   2.118  1.6271 -1.9800 -0.3669
  176MOL    C4145891   0.013   6.524   2.316 -0.2625 -1.1667 -1.1722
  176MOL    C4245892   0.112   6.413   2.277 -0.4014 -0.0153 -0.4090
  176MOL    C4345893   0.083   6.280   2.256 -0.0820  0.0203 -1.0086
  176MOL    C4445894   7.818   6.229   2.259  0.0336  0.0831  0.1363
  176MOL    C4545895   0.189   6.175   2.219  0.5062 -0.5637 -0.7841
  176MOL    H4645896   7.806   6.490   2.367 -0.1325  0.1119 -0.0403
  176MOL    H4745897   0.060   6.595   2.385 -1.3948  0.2010 -1.7867
  176MOL    H4845898   0.211   6.452   2.257  0.5318 -1.4961  1.1959
  176MOL    H4945899   7.740   6.301   2.235 -1.1993 -1.2436  0.1382
  176MOL    H5045900   7.785   6.196   2.358 -1.0929  1.5732  0.2732
  176MOL    H5145901   7.811   6.148   2.187  3.6047 -0.2375  0.0752
  176MOL    H5245902   0.289   6.217   2.207 -0.2327  0.9954 -1.6339
  176MOL    H5345903   0.179   6.137   2.118  1.0542  2.1030 -1.8752
  176MOL    C5445904   0.198   6.059   2.323 -0.4262  0.4215  0.1913
  176MOL    C5545905   0.305   5.957   2.281 -0.5050 -0.0465 -0.4512
  176MOL    C5645906   0.285   5.826   2.250 -0.8919 -1.1514 -0.6827
  176MOL    C5745907   0.148   5.765   2.255  0.1259  0.4777  0.3688
  176MOL    C5845908   0.394   5.744   2.197  0.2548  0.6474  0.4707
  176MOL    H5945909   0.097   6.024   2.341 -0.2965  0.5483  1.1720
  176MOL    H6045910   0.234   6.101   2.417  0.4968  0.9114 -0.3666
  176MOL    H6145911   0.406   5.991   2.296 -0.7329 -0.1267  1.3396
  176MOL    H6245912   0.135   5.657   2.250  1.7953  0.3616 -2.7256
  176MOL    H6345913   0.078   5.803   2.181 -2.0438  0.3557  2.3110
  176MOL    H6445914   0.106   5.794   2.351 -0.8374 -0.6169  0.2855
  176MOL    H6545915   0.472   5.815   2.170 -0.2823  0.0989 -2.6249
  176MOL    H6645916   0.358   5.702   2.104  1.8516 -1.2679  0.6525
  176MOL    C6745917   0.436   5.633   2.290 -0.2451 -0.2329 -0.1331
  176MOL    C6845918   0.527   5.539   2.223 -0.5164  0.3483  0.6321
  176MOL    C6945919   0.502   5.412   2.196 -0.0549  0.1388 -0.0397
  176MOL    C7045920   0.373   5.349   2.236  0.1287  0.2955  0.4120
  176MOL    C7145921   0.593   5.325   2.115  0.5195 -0.1965 -0.6801
  176MOL    H7245922   0.361   5.576   2.345 -0.9093  1.8309  1.2086
  176MOL    H7345923   0.493   5.680   2.370 -1.0794 -1.1539  1.0191
  176MOL    H7445924   0.620   5.589   2.198  0.4044 -1.9014 -0.5458
  176MOL    H7545925   0.365   5.240   2.226  0.8141  0.1608  1.2755
  176MOL    H7645926   0.294   5.396   2.177  1.4191  1.1857 -0.6163
  176MOL    H7745927   0.361   5.369   2.342  1.6639 -1.1990  0.8832
  176MOL    H7845928   0.609   5.233   2.170  0.0626  1.1142  1.7054
  176MOL    H7945929   0.690   5.375   2.109 -0.5740  2.3001  1.4414
  176MOL    C8045930   0.534   5.296   1.974  0.1062  0.1702  0.4894
  176MOL    C8145931   0.644   5.252   1.876 -0.1316  1.3244 -0.0420
  176MOL    C8245932   0.715   5.326   1.790 -0.0145  0.1413  1.5341
  176MOL    C8345933   0.687   5.473   1.787  0.0646 -0.4641  0.1847
  176MOL    C8445934   0.831   5.265   1.709  0.0260  0.0265 -0.2503
  176MOL    H8545935   0.487   5.385   1.933 -1.1600 -0.3065  0.8843
  176MOL    H8645936   0.453   5.223   1.970  2.3370 -2.3312 -1.5641
  176MOL    H8745937   0.670   5.148   1.885  0.2388  1.5432  1.4598
  176MOL    H8845938   0.589   5.487   1.741 -1.4869  1.2846  3.8111
  176MOL    H8945939   0.774   5.522   1.743  0.2002 -1.8809 -1.1924
  176MOL    H9045940   0.682   5.525   1.882 -1.4736  1.9824 -1.1727
  176MOL    H9145941   0.849   5.172   1.762 -0.7613 -1.1946 -2.0839
  176MOL    H9245942   0.919   5.327   1.725  0.5194 -0.2847 -1.7256
  176MOL    C9345943   0.793   5.246   1.567  0.2441  0.2247 -0.2896
  176MOL    C9445944   0.899   5.167   1.497  0.2275 -0.7542  0.2276
  176MOL    C9545945   0.962   5.205   1.383  0.2493 -0.4647  0.3395
  176MOL    C9645946   0.941   5.342   1.318 -0.0223  0.3468  0.6070
  176MOL    C9745947   1.050   5.111   1.303  0.0068  0.1728 -0.2737
  176MOL    H9845948   0.761   5.329   1.504  0.1391 -0.2270 -0.8380
  176MOL    H9945949   0.712   5.173   1.571  1.4579 -1.0635  1.0150
  176MOL   H10045950   0.918   5.066   1.529 -0.3358 -0.6749  0.8424
  176MOL   H10145951   0.949   5.420   1.393  1.9188  0.3357  0.4453
  176MOL   H10245952   0.843   5.347   1.270 -0.3432 -1.2184  1.0756
  176MOL   H10345953   1.010   5.359   1.235  0.5911  0.8356  1.2152
  176MOL   H10445954   1.012   5.096   1.202  0.2824 -0.5645 -0.2699
  176MOL   H10545955   1.050   5.007   1.334 -1.4878  0.1515 -0.2900
  176MOL   C10645956   1.194   5.154   1.306  0.8697  0.3827 -0.8300
  176MOL   C10745957   1.277   5.030   1.264 -0.0372  0.6988 -0.1366
  176MOL   C10845958   1.371   4.978   1.343 -0.4390 -0.4128 -0.3601
  176MOL   C10945959   1.407   5.034   1.484 -0.1525 -0.0130  0.1496
  176MOL   C11045960   1.454   4.862   1.290 -0.2274 -0.1438 -0.6178
  176MOL   H11145961   1.224   5.193   1.403 -0.6057 -0.8623  0.1632
  176MOL   H11245962   1.208   5.228   1.227 -1.5598  2.3431  0.5025
  176MOL   H11345963   1.262   4.966   1.178 -0.4691  0.6686 -0.0399
  176MOL   H11445964   1.510   5.011   1.511  0.4800  1.5386 -0.8723
  176MOL   H11545965   1.328   5.016   1.556 -1.3493  1.5615 -0.7285
  176MOL   H11645966   1.408   5.143   1.483 -0.0121 -0.0169 -0.8955
  176MOL   H11745967   1.559   4.889   1.300  0.2278 -2.2942  0.6081
  176MOL   H11845968   1.436   4.858   1.182  0.2948 -2.0715 -0.6568
  176MOL   C11945969   1.427   4.717   1.359  0.6329  0.2455 -0.4325
  176MOL   C12045970   1.287   4.689   1.426 -0.1242  0.0643  0.3894
  176MOL   C12145971   1.213   4.578   1.432  0.3157 -0.0320 -0.3719
  176MOL   C12245972   1.259   4.443   1.380 -0.1510 -0.6660  0.3483
  176MOL   C12345973   1.070   4.580   1.478  0.8856  0.1588  0.2660
  176MOL   H12445974   1.490   4.702   1.446  0.6072  2.7081  0.0447
  176MOL   H12545975   1.460   4.632   1.300  0.9958 -0.1491  0.3434
  176MOL   H12645976   1.253   4.783   1.468  1.3938  1.3430 -1.1609
  176MOL   H12745977   1.181   4.402   1.316 -0.2535  0.0141  0.0324
  176MOL   H12845978   1.275   4.367   1.457 -1.5588 -1.5201 -0.1743
  176MOL   H12945979   1.345   4.437   1.313 -0.4504 -0.4004 -0.0624
  176MOL   H13045980   1.006   4.557   1.393 -1.0699  2.0214  1.2019
  176MOL   H13145981   1.020   4.667   1.521  1.6788  0.6185  0.2621
  176MOL   C13245982   1.042   4.473   1.573 -0.1097 -0.2421 -0.2670
  176MOL   C13345983   0.896   4.450   1.601 -0.4593  0.6101 -0.3849
  176MOL   C13445984   0.814   4.341   1.577  0.1069 -0.0592 -0.9296
  176MOL   C13545985   0.868   4.217   1.505  0.1461  0.0524  0.1058
  176MOL   C13645986   0.660   4.348   1.594 -0.4081 -0.5064 -0.5993
  176MOL   H13745987   1.093   4.485   1.669  1.7216 -0.1032 -1.2342
  176MOL   H13845988   1.073   4.376   1.533  2.3059  0.3222  0.1098
  176MOL   H13945989   0.841   4.529   1.649 -1.1839 -0.9731  1.4461
  176MOL   H14045990   0.942   4.244   1.430 -0.7272  1.7936 -0.1499
  176MOL   H14145991   0.788   4.164   1.454  0.8712 -1.6713  0.7501
  176MOL   H14245992   0.923   4.144   1.564  0.2787  1.0571  1.2592
  176MOL   H14345993   0.617   4.254   1.629 -1.1862  0.7730  1.9779
  176MOL   H14445994   0.610   4.365   1.499 -1.4669 -0.1200  0.0211
  176MOL   C14545995   0.604   4.449   1.692  0.5062  0.1648 -0.1172
  176MOL   C14645996   0.645   4.431   1.833  0.5010  0.8795 -0.3437
  176MOL   C14745997   0.682   4.528   1.919 -0.6028 -0.2167 -0.4753
  176MOL   C14845998   0.693   4.675   1.877  0.4750  0.2100 -0.1974
  176MOL   C14945999   0.739   4.501   2.054  0.5720 -0.3811  0.7512
  176MOL   H15046000   0.497   4.431   1.700  0.9482 -2.0014  1.1949
  176MOL   H15146001   0.609   4.549   1.648  1.0959  0.1416 -0.1017
  176MOL   H15246002   0.658   4.330   1.868  1.1707  1.8520  2.3821
  176MOL   H15346003   0.661   4.704   1.777 -0.7679  1.5418  0.5794
  176MOL   H15446004   0.798   4.699   1.895  0.5790 -0.9604  0.8693
  176MOL   H15546005   0.637   4.746   1.938 -0.6791 -1.2174  0.4372
  176MOL   H15646006   0.847   4.493   2.053  0.6124  0.1798  0.1268
  176MOL   H15746007   0.702   4.402   2.079 -2.2124  0.3940 -0.0737
  176MOL   C15846008   0.682   4.589   2.170 -0.1338 -0.1550 -0.7116
  176MOL   C15946009   0.704   4.532   2.308 -0.5087  0.6858  0.6389
  176MOL   C16046010   0.604   4.506   2.399  0.3392 -1.3329 -0.6156
  176MOL   C16146011   0.461   4.518   2.371  0.4899 -0.3910  0.2137
  176MOL   C16246012   0.636   4.458   2.540 -0.4330 -0.1712  0.9970
  176MOL   H16346013   0.577   4.609   2.154 -0.4642 -0.1801  1.3293
  176MOL   H16446014   0.716   4.692   2.182  1.5217 -0.9700  1.9175
  176MOL   H16546015   0.809   4.516   2.324 -0.0478  3.0828  0.1288
  176MOL   H16646016   0.418   4.613   2.401  1.4445 -0.3281  1.4485
  176MOL   H16746017   0.406   4.446   2.432 -0.9632  0.8141  0.3602
  176MOL   H16846018   0.428   4.499   2.269 -0.3699 -1.2061  0.6336
  176MOL   H16946019   0.607   4.534   2.612  0.5250  0.4117  0.7751
  176MOL   H17046020   0.744   4.468   2.557  0.0641 -0.0601 -1.9540
  176MOL   C17146021   0.584   4.319   2.575 -0.3522  0.1257 -0.0736
  176MOL   C17246022   0.631   4.285   2.716  1.0155 -0.1563 -0.0301
  176MOL   C17346023   0.641   4.160   2.767 -0.0917  0.2236 -0.0027
  176MOL   C17446024   0.593   4.031   2.698 -0.3045  0.3239  0.2808
  176MOL   C17546025   0.700   4.137   2.908  0.8059  0.5499 -0.2418
  176MOL   H17646026   0.633   4.254   2.502  1.3905 -0.1493  1.2981
  176MOL   H17746027   0.476   4.309   2.564  0.1068 -3.4321 -2.2637
  176MOL   H17846028   0.669   4.363   2.780  0.5474 -1.0741  1.3980
  176MOL   H17946029   0.561   4.052   2.595 -2.8708  0.2576  1.0215
  176MOL   H18046030   0.498   3.999   2.741 -0.2355 -1.0136 -0.5521
  176MOL   H18146031   0.659   3.946   2.712 -0.9384  0.1424  2.2631
  176MOL   H18246032   0.730   4.231   2.956 -0.0800 -0.6590  2.7832
  176MOL   H18346033   0.801   4.098   2.893  1.6915  2.7745 -0.4021
  176MOL   C18446034   0.611   4.049   2.999 -0.1421  0.0496 -0.3493
  176MOL   C18546035   0.678   4.026   3.137  0.0515 -0.1716  0.4260
  176MOL   C18646036   0.617   4.040   3.257 -0.2258  0.0001 -0.1290
  176MOL   C18746037   0.473   4.098   3.266 -0.3004  0.2758 -0.7262
  176MOL   C18846038   0.695   4.042   3.388  0.4996 -0.0883  0.0211
  176MOL   H18946039   0.603   3.951   2.951 -2.8393 -0.0271  0.1441
  176MOL   H19046040   0.508   4.085   3.001 -0.5831 -1.1473  4.1252
  176MOL   H19146041   0.785   4.012   3.135  0.1709  0.8168 -0.7125
  176MOL   H19246042   0.474   4.165   3.352  2.6152 -2.3913  1.4358
  176MOL   H19346043   0.396   4.021   3.260 -0.5897  0.6086 -1.3880
  176MOL   H19446044   0.466   4.171   3.185  2.3752  1.8880  0.4408
  176MOL   H19546045   0.686   4.145   3.424 -2.2262 -0.0414 -0.6413
  176MOL   H19646046   0.796   4.020   3.356 -0.0340 -0.1107 -1.7018
  176MOL   C19746047   0.646   3.938   3.490  0.6082 -0.2689  0.0280
  176MOL   C19846048   0.727   3.957   3.620  0.2935  0.8609  0.6708
  176MOL   C19946049   0.678   3.986   3.748  0.6310 -0.3992  0.1183
  176MOL   C20046050   0.532   4.008   3.784 -0.0149 -0.0029  0.1450
  176MOL   C20146051   0.765   4.012   3.875 -0.6166  0.0698 -0.1239
  176MOL   H20246052   0.638   3.834   3.458 -1.7260 -0.7002  1.7882
  176MOL   H20346053   0.545   3.970   3.517  1.0839 -0.2217  1.8164
  176MOL   H20446054   0.831   3.941   3.598  0.3390 -0.1326  1.5755
  176MOL   H20546055   0.498   3.932   3.854  1.2964  0.4811  1.3233
  176MOL   H20646056   0.465   4.004   3.698 -0.7719  2.6652  0.5825
  176MOL   H20746057   0.528   4.107   3.829  1.2183 -0.0728  0.4145
  176MOL   H20846058   0.725   3.971   3.968  2.1292  1.5345  1.7431
  176MOL   H20946059   0.753   4.116   3.904  2.0417 -0.0283  1.4221
  176MOL   C21046060   0.916   3.978   3.867 -0.0683 -0.1980  0.2602
  176MOL   C21146061   0.972   3.972   4.005  0.4640  0.1673 -0.3794
  176MOL   C21246062   1.059   4.061   4.056 -0.1149 -0.5897  0.2601
  176MOL   C21346063   1.118   4.181   3.986 -0.9089 -0.6769 -0.1173
  176MOL   C21446064   1.107   4.039   4.200 -0.7116  0.4533 -0.3096
  176MOL   H21546065   0.955   4.050   3.794 -2.3278  1.4023  0.5562
  176MOL   H21646066   0.932   3.880   3.824 -1.0121 -0.9234  1.5456
  176MOL   H21746067   0.938   3.885   4.058  0.4194  1.0574  1.0710
  176MOL   H21846068   1.064   4.268   4.025  0.0132 -0.6047  1.0600
  176MOL   H21946069   1.089   4.183   3.881 -1.3729 -2.0721 -0.0212
  176MOL   H22046070   1.226   4.193   3.999 -0.8173 -1.5729 -0.0138
  176MOL   H22146071   1.050   3.963   4.253 -1.2018  1.6541  0.9194
  176MOL   H22246072   1.108   4.129   4.261  1.0359 -0.4340  1.0210
  176MOL   C22346073   1.241   3.974   4.188  0.4423 -0.1963  0.8093
  176MOL   C22446074   1.298   3.931   4.320  0.5300 -0.6198  0.1777
  176MOL   C22546075   1.282   3.808   4.375  0.0843  0.1997 -0.0375
  176MOL   C22646076   1.212   3.687   4.311  0.1624 -0.1605  0.3317
  176MOL   C22746077   1.337   3.786   4.514 -0.5962  0.0707 -0.7269
  176MOL   H22846078   1.313   4.042   4.142 -2.7084  1.5472 -1.6658
  176MOL   H22946079   1.250   3.892   4.116 -0.1861 -1.5854  2.2612
  176MOL   H23046080   1.339   4.016   4.373 -0.6299  0.5950 -0.8486
  176MOL   H23146081   1.288   3.624   4.264  2.5806  1.0748  2.4972
  176MOL   H23246082   1.142   3.722   4.235  1.1001 -1.0667 -0.9912
  176MOL   H23346083   1.168   3.624   4.388 -0.2913 -0.5645 -0.2519
  176MOL   H23446084   1.258   3.730   4.563  0.5143 -1.5687 -0.7582
  176MOL   H23546085   1.360   3.878   4.567 -0.9510  0.5524 -1.4031
  176MOL   C23646086   1.465   3.698   4.516  0.7629  0.6480  0.5409
  176MOL   C23746087   1.512   3.675   4.654  0.2399 -0.2844 -0.3486
  176MOL   C23846088   1.503   3.567   4.732  0.3562  0.1182 -0.0002
  176MOL   C23946089   1.432   3.441   4.680  0.0594  0.1193 -0.1226
  176MOL   C24046090   1.557   3.553   4.873 -0.0043  0.3308  0.4745
  176MOL   H24146091   1.539   3.753   4.457  0.7226 -1.5952 -1.6708
  176MOL   H24246092   1.451   3.604   4.464  0.4808  1.4931 -0.9670
  176MOL   H24346093   1.564   3.761   4.694 -0.7413 -1.1547  2.9339
  176MOL   H24446094   1.477   3.346   4.709 -0.9866 -0.3983 -0.1786
  176MOL   H24546095   1.407   3.442   4.574  0.1178 -0.9224 -0.1555
  176MOL   H24646096   1.336   3.451   4.731  0.8311  0.9761  1.1831
  176MOL   H24746097   1.480   3.548   4.950 -2.8977 -1.7073 -2.4031
  176MOL   H24846098   1.626   3.637   4.879  2.1887 -1.3362 -0.5052
  176MOL   C24946099   1.640   3.425   4.884 -0.5223 -0.2828  0.1309
  176MOL   C25046100   1.725   3.424   5.006  0.2467 -0.3228  0.2162
  176MOL   C25146101   1.858   3.416   5.020  0.0917  0.2872  0.5780
  176MOL   C25246102   1.958   3.423   4.902  0.0009  0.4161  0.0826
  176MOL   C25346103   1.926   3.426   5.152  0.3032  0.2538  0.4568
  176MOL   H25446104   1.700   3.417   4.794  2.6581 -1.2119  2.2387
  176MOL   H25546105   1.580   3.335   4.896 -0.5336 -0.0057  2.5188
  176MOL   H25646106   1.664   3.419   5.095 -0.3972  2.3986 -0.0459
  176MOL   H25746107   1.911   3.421   4.804  1.9801 -1.7705 -0.8852
  176MOL   H25846108   2.020   3.333   4.905 -0.6627 -0.0378  0.3542
  176MOL   H25946109   2.017   3.515   4.895 -0.1366  0.5201  0.2890
  176MOL   H26046110   1.958   3.529   5.165 -0.4102  0.7532 -1.5955
  176MOL   H26146111   2.013   3.362   5.167 -0.0508 -0.7386 -1.5496
  176MOL   H26246112   1.848   3.408   5.227  1.7252 -3.7397  1.1232
  177MOL     C146113   2.476   4.259   3.421 -0.5474  0.5113 -0.3828
  177MOL     C246114   2.565   4.151   3.355  0.1701  0.4393  0.1278
  177MOL     C346115   2.580   4.127   3.225  0.3956  0.8928 -0.6757
  177MOL     C446116   2.493   4.183   3.115 -0.4754 -0.2018  0.6386
  177MOL     C546117   2.682   4.033   3.163  0.0296  0.4026 -0.3475
  177MOL     H646118   2.417   4.197   3.489  0.5913  0.6028  0.7174
  177MOL     H746119   2.541   4.322   3.481 -0.6667 -1.9796  2.4941
  177MOL     H846120   2.626   4.091   3.421 -0.0029  0.4826  0.3291
  177MOL     H946121   2.455   4.280   3.145  1.1226  0.1215  1.6887
  177MOL    H1046122   2.410   4.113   3.106 -2.8684  2.8058 -1.3925
  177MOL    H1146123   2.535   4.190   3.014  1.0989 -1.2251  1.1984
  177MOL    H1246124   2.723   4.071   3.070  2.1957 -0.0339  0.3973
  177MOL    H1346125   2.623   3.951   3.121 -0.3308  0.8409 -0.6987
  177MOL    H1446126   2.407   4.312   3.356  0.4171 -0.0406 -1.8916
  177MOL    C1546127   2.796   3.978   3.254 -0.1372 -0.2676  0.4619
  177MOL    C1646128   2.887   4.086   3.315 -0.0982  0.1411  0.7687
  177MOL    C1746129   3.020   4.090   3.301  0.1363 -0.0503  0.3160
  177MOL    C1846130   3.115   3.984   3.241 -0.3233  0.2936  0.6837
  177MOL    C1946131   3.097   4.205   3.374 -0.8969  0.0923  0.8080
  177MOL    H2046132   2.851   3.896   3.209  0.6203  0.2442  0.4304
  177MOL    H2146133   2.741   3.929   3.333 -0.6406  2.2549  1.7317
  177MOL    H2246134   2.843   4.171   3.365 -0.2607  2.0417 -2.4506
  177MOL    H2346135   3.068   3.928   3.161 -1.9046  2.1735  0.2774
  177MOL    H2446136   3.143   3.916   3.322 -3.6458 -1.4771  0.4333
  177MOL    H2546137   3.202   4.018   3.185 -0.0317 -2.3650 -0.5095
  177MOL    H2646138   3.035   4.287   3.409 -1.2085  1.2268 -2.3045
  177MOL    H2746139   3.157   4.254   3.297 -1.7272  0.7963  0.6172
  177MOL    C2846140   3.196   4.163   3.484  1.5493  0.4318  0.4596
  177MOL    C2946141   3.284   4.283   3.508  0.0326  0.6480  0.8295
  177MOL    C3046142   3.378   4.298   3.603 -0.2365 -0.7766 -0.4328
  177MOL    C3146143   3.414   4.195   3.712  0.2912 -0.1989  0.0911
  177MOL    C3246144   3.478   4.419   3.607 -0.0623  0.1316 -0.1568
  177MOL    H3346145   3.263   4.088   3.443 -0.7655  0.3091 -3.3455
  177MOL    H3446146   3.143   4.135   3.576  2.7307  0.6623  1.2148
  177MOL    H3546147   3.288   4.365   3.438 -1.2003 -3.0607 -3.8895
  177MOL    H3646148   3.457   4.235   3.803  0.5541  0.6111 -0.3786
  177MOL    H3746149   3.477   4.120   3.663  1.7226  1.7423 -1.1262
  177MOL    H3846150   3.320   4.147   3.739 -0.4661  1.8176  1.1070
  177MOL    H3946151   3.456   4.489   3.689  0.2504  1.2741 -1.0310
  177MOL    H4046152   3.457   4.475   3.515 -0.5646  0.2562  0.0269
  177MOL    C4146153   3.626   4.394   3.602 -0.2086 -0.9077 -0.3325
  177MOL    C4246154   3.703   4.524   3.576 -0.6811 -0.5200 -0.0587
  177MOL    C4346155   3.771   4.599   3.666  0.4836  0.3561 -0.3117
  177MOL    C4446156   3.783   4.562   3.810  0.4716 -0.3118  0.4066
  177MOL    C4546157   3.835   4.733   3.627  0.6133 -0.0485 -0.1350
  177MOL    H4646158   3.641   4.331   3.515  2.6877 -0.3474 -0.2973
  177MOL    H4746159   3.658   4.343   3.693  0.9062 -0.8280 -0.6731
  177MOL    H4846160   3.687   4.566   3.478 -0.5417  0.4627  0.3249
  177MOL    H4946161   3.879   4.512   3.828 -1.8267 -4.4249  1.8455
  177MOL    H5046162   3.714   4.489   3.851  0.3171 -2.3761 -3.2894
  177MOL    H5146163   3.776   4.650   3.875  2.2765 -1.2755  1.9727
  177MOL    H5246164   3.825   4.812   3.701 -2.8416  0.6115 -1.2110
  177MOL    H5346165   3.795   4.765   3.531  0.7799 -2.8262 -1.1962
  177MOL    C5446166   3.987   4.718   3.635  0.2962  0.6574  0.4670
  177MOL    C5546167   4.054   4.836   3.567  0.0471 -0.5586 -0.8662
  177MOL    C5646168   4.161   4.906   3.600  0.6555  0.2268 -0.5099
  177MOL    C5746169   4.238   4.878   3.724  0.6139 -0.5569  0.3335
  177MOL    C5846170   4.212   5.025   3.522  0.4580 -0.0879  1.3744
  177MOL    H5946171   4.006   4.639   3.562 -1.0120  1.4755 -0.7840
  177MOL    H6046172   4.024   4.688   3.733 -2.0919  2.4393  1.9483
  177MOL    H6146173   4.009   4.856   3.470 -1.2013  0.0470 -0.1782
  177MOL    H6246174   4.341   4.908   3.703  0.8451 -0.6740  1.2919
  177MOL    H6346175   4.227   4.772   3.745  0.5653 -0.5659  0.2614
  177MOL    H6446176   4.213   4.948   3.803 -0.0249 -1.9688  1.4021
  177MOL    H6546177   4.173   5.021   3.421  2.6097 -0.1849  0.5179
  177MOL    H6646178   4.320   5.025   3.510  0.1052  1.1250 -2.6139
  177MOL    C6746179   4.170   5.162   3.576  0.1066  0.6562  0.6531
  177MOL    C6846180   4.212   5.277   3.485 -0.3147  0.1344 -0.4286
  177MOL    C6946181   4.277   5.388   3.527  0.4517 -0.3130 -0.3518
  177MOL    C7046182   4.295   5.438   3.670  0.3005 -0.2467  0.1564
  177MOL    C7146183   4.314   5.492   3.425 -0.2386  0.3979 -0.1921
  177MOL    H7246184   4.189   5.178   3.682 -1.7694  0.9546  0.9559
  177MOL    H7346185   4.061   5.158   3.572  0.1519  0.9526 -0.9785
  177MOL    H7446186   4.194   5.262   3.379  1.7635 -1.8513 -0.5377
  177MOL    H7546187   4.239   5.530   3.688  2.5533  1.2644 -0.3897
  177MOL    H7646188   4.400   5.451   3.694 -0.1541  1.7711  1.1803
  177MOL    H7746189   4.265   5.357   3.736  1.1502 -1.5164 -0.9983
  177MOL    H7846190   4.256   5.581   3.450  0.2117  0.2528  1.4673
  177MOL    H7946191   4.272   5.459   3.330  1.2939  0.1686 -0.8086
  177MOL    C8046192   4.468   5.511   3.409  0.0522 -0.0914 -0.1460
  177MOL    C8146193   4.501   5.605   3.294  0.6344 -0.2373  0.5407
  177MOL    C8246194   4.581   5.712   3.295 -0.6480  0.6057  0.1137
  177MOL    C8346195   4.632   5.771   3.424  0.2803 -0.6398 -0.7229
  177MOL    C8446196   4.596   5.785   3.161 -0.1145  0.0413  0.3634
  177MOL    H8546197   4.515   5.413   3.401 -0.2039 -0.1268 -1.3107
  177MOL    H8646198   4.519   5.547   3.498 -1.1827  2.2268 -0.3392
  177MOL    H8746199   4.477   5.561   3.198 -1.5398 -1.1871  1.4993
  177MOL    H8846200   4.555   5.826   3.479  0.6421  1.1075 -1.9002
  177MOL    H8946201   4.712   5.842   3.403 -0.1305  0.2201  0.5560
  177MOL    H9046202   4.680   5.701   3.492 -0.7470 -1.3915 -0.7582
  177MOL    H9146203   4.592   5.714   3.078 -0.8000  0.4052  0.0805
  177MOL    H9246204   4.700   5.817   3.155  0.4810 -2.0363 -0.8350
  177MOL    C9346205   4.495   5.892   3.137  0.7060 -1.2570  0.1053
  177MOL    C9446206   4.354   5.830   3.119 -0.4065 -0.3692 -0.3134
  177MOL    C9546207   4.241   5.869   3.178 -0.1830  0.1168  0.3964
  177MOL    C9646208   4.227   5.988   3.274 -0.5809 -0.2383 -0.2074
  177MOL    C9746209   4.108   5.794   3.152 -0.0264 -0.2169 -0.0254
  177MOL    H9846210   4.515   5.935   3.038 -1.9320  1.3679  0.6469
  177MOL    H9946211   4.493   5.981   3.199  2.2294 -1.2675  0.2060
  177MOL   H10046212   4.357   5.751   3.046  0.8316  0.1429 -0.8373
  177MOL   H10146213   4.290   6.076   3.259  0.0162 -0.9855 -2.1646
  177MOL   H10246214   4.240   5.946   3.373  0.6713 -0.2474 -0.3721
  177MOL   H10346215   4.125   6.028   3.273 -0.4420  0.1220 -0.1934
  177MOL   H10446216   4.031   5.871   3.152  0.2344  0.0970  2.7902
  177MOL   H10546217   4.084   5.726   3.234  0.3622  1.0475  1.1437
  177MOL   C10646218   4.108   5.703   3.025 -1.0229  0.3804 -0.7141
  177MOL   C10746219   3.976   5.652   2.972  0.2914 -0.3308  0.0847
  177MOL   C10846220   3.895   5.705   2.887 -0.1679  0.6739  0.1364
  177MOL   C10946221   3.923   5.838   2.817  0.7263 -0.0676 -0.4964
  177MOL   C11046222   3.769   5.635   2.844 -0.1139 -0.7076  0.1537
  177MOL   H11146223   4.178   5.620   3.029 -0.4575  0.8697 -0.3904
  177MOL   H11246224   4.145   5.765   2.944 -2.1199  1.5151 -0.3810
  177MOL   H11346225   3.954   5.551   3.003 -2.8099  0.9326  2.3157
  177MOL   H11446226   3.833   5.896   2.796  0.1279 -0.7189  0.2304
  177MOL   H11546227   3.991   5.825   2.733  2.2782 -1.3450  0.9265
  177MOL   H11646228   3.962   5.905   2.893  0.8956  0.2855 -0.8937
  177MOL   H11746229   3.787   5.528   2.842  0.2806 -0.6319 -1.3852
  177MOL   H11846230   3.763   5.665   2.739 -0.9280  0.4528  0.5272
  177MOL   C11946231   3.651   5.668   2.934 -0.3273 -0.7050 -0.6269
  177MOL   C12046232   3.523   5.610   2.883 -0.1812  0.0164  0.6355
  177MOL   C12146233   3.457   5.501   2.923  0.5946 -0.0258 -0.6944
  177MOL   C12246234   3.504   5.428   3.044  0.5331  0.6883  0.1310
  177MOL   C12346235   3.321   5.461   2.858  0.2059 -0.5073  0.1368
  177MOL   H12446236   3.650   5.777   2.943  2.1517 -0.6961 -0.1625
  177MOL   H12546237   3.664   5.628   3.035 -0.6024  0.9484  0.0693
  177MOL   H12646238   3.488   5.667   2.798  0.3429 -1.4537 -0.5744
  177MOL   H12746239   3.422   5.358   3.062  0.9459 -0.6551 -2.9727
  177MOL   H12846240   3.496   5.493   3.131  2.9574  2.6931 -1.1030
  177MOL   H12946241   3.601   5.381   3.030  0.0717 -0.0064 -0.8461
  177MOL   H13046242   3.267   5.548   2.820 -1.1009 -1.0780  0.6834
  177MOL   H13146243   3.263   5.401   2.928 -0.4503 -0.0358 -0.0055
  177MOL   C13246244   3.323   5.366   2.734  0.5013 -0.9425 -0.3093
  177MOL   C13346245   3.394   5.425   2.620 -0.3369 -0.6238  0.5503
  177MOL   C13446246   3.466   5.354   2.527 -0.1412 -0.2807  1.1143
  177MOL   C13546247   3.473   5.207   2.521 -0.2172  0.8545 -0.3807
  177MOL   C13646248   3.527   5.426   2.408 -0.2665  0.1461 -0.1042
  177MOL   H13746249   3.225   5.347   2.691  1.1124  0.3346 -2.2809
  177MOL   H13846250   3.373   5.275   2.769 -1.4834 -1.9110  0.0873
  177MOL   H13946251   3.396   5.533   2.621 -0.1763 -0.6176  0.0715
  177MOL   H14046252   3.433   5.168   2.427  1.6178 -0.5633 -0.6136
  177MOL   H14146253   3.437   5.152   2.608  0.0526  1.1473 -0.0790
  177MOL   H14246254   3.581   5.187   2.523 -0.5080 -0.8076 -0.5949
  177MOL   H14346255   3.496   5.531   2.403  2.0655  0.7819 -1.5749
  177MOL   H14446256   3.492   5.363   2.326 -1.6678  0.8731 -0.0837
  177MOL   C14546257   3.682   5.424   2.406 -0.5882  0.1281  0.1691
  177MOL   C14646258   3.718   5.505   2.285  0.3360  0.4954  0.5203
  177MOL   C14746259   3.781   5.622   2.277  0.4658 -0.1907 -0.0374
  177MOL   C14846260   3.841   5.694   2.399 -0.8717  0.0042 -0.0573
  177MOL   C14946261   3.805   5.705   2.148  0.3792  0.1898 -0.7822
  177MOL   H15046262   3.720   5.322   2.402 -2.4465 -0.7435  3.1874
  177MOL   H15146263   3.733   5.475   2.489  1.1158 -0.7579 -0.3046
  177MOL   H15246264   3.683   5.456   2.195  0.1430  1.7099 -0.0847
  177MOL   H15346265   3.759   5.722   2.465 -1.1562  0.2631 -0.5125
  177MOL   H15446266   3.898   5.786   2.383  0.6860 -0.0749  4.3920
  177MOL   H15546267   3.900   5.623   2.456  0.4638 -0.8821 -2.4747
  177MOL   H15646268   3.779   5.646   2.060 -1.8245 -1.9248  1.2391
  177MOL   H15746269   3.912   5.727   2.153  0.2814  0.3680  0.7735
  177MOL   C15846270   3.730   5.836   2.141  0.0125 -0.4528  0.0714
  177MOL   C15946271   3.792   5.942   2.057  0.6680  0.4385  0.4919
  177MOL   C16046272   3.751   5.991   1.938 -0.0685  0.2350  0.3699
  177MOL   C16146273   3.638   5.942   1.848 -0.1749  0.3075 -0.4426
  177MOL   C16246274   3.843   6.089   1.852  0.0957  0.3589  0.5244
  177MOL   H16346275   3.735   5.885   2.239 -0.8837 -0.8051  0.2954
  177MOL   H16446276   3.623   5.822   2.126 -0.1088 -1.0001  1.3387
  177MOL   H16546277   3.894   5.965   2.084  0.2360  2.5953  0.3877
  177MOL   H16646278   3.570   6.027   1.834 -2.6204 -1.0281  2.8008
  177MOL   H16746279   3.581   5.860   1.891  3.7638 -3.4377 -1.9871
  177MOL   H16846280   3.683   5.898   1.759  0.3670  0.9827 -0.5071
  177MOL   H16946281   3.855   6.042   1.755  1.2627  1.5575  0.0863
  177MOL   H17046282   3.945   6.088   1.890  0.4613  0.3674 -0.4442
  177MOL   C17146283   3.791   6.237   1.847 -0.3798 -1.1004  0.9975
  177MOL   C17246284   3.878   6.341   1.769 -0.0763 -0.8372 -0.2176
  177MOL   C17346285   3.835   6.467   1.734  0.8362 -0.2694  0.4510
  177MOL   C17446286   3.700   6.522   1.779 -0.4005 -0.2594 -0.1824
  177MOL   C17546287   3.922   6.567   1.667  0.9018  0.1262 -0.0684
  177MOL   H17646288   3.787   6.261   1.954 -0.5848  2.0480  0.3210
  177MOL   H17746289   3.685   6.247   1.825 -0.2608 -0.2425  0.8104
  177MOL   H17846290   3.980   6.314   1.750 -0.4690 -1.5239 -1.4084
  177MOL   H17946291   3.615   6.511   1.711 -1.3750 -2.9538  1.3928
  177MOL   H18046292   3.701   6.631   1.784 -1.2814 -0.2348 -0.4248
  177MOL   H18146293   3.675   6.491   1.881 -0.5794  2.9978  0.8197
  177MOL   H18246294   3.862   6.650   1.630  0.4957 -0.5005 -0.8221
  177MOL   H18346295   3.959   6.526   1.573  0.4891  2.4316 -1.2882
  177MOL   C18446296   4.053   6.598   1.738  0.1695  0.7767 -0.4968
  177MOL   C18546297   4.117   6.731   1.685  0.1382  0.4905 -0.2090
  177MOL   C18646298   4.112   6.852   1.741 -0.0556  0.6733 -0.6271
  177MOL   C18746299   4.044   6.878   1.876  0.3784 -0.0249  0.3162
  177MOL   C18846300   4.169   6.973   1.667 -0.1682  0.7131 -0.3856
  177MOL   H18946301   4.125   6.518   1.724 -1.3316 -1.0843  2.1579
  177MOL   H19046302   4.044   6.608   1.846 -1.3710 -1.7868 -0.3773
  177MOL   H19146303   4.165   6.714   1.590  2.0517 -0.7376  0.9295
  177MOL   H19246304   3.996   6.975   1.874  1.3985  0.4892  0.2664
  177MOL   H19346305   4.118   6.890   1.955  1.8631 -0.4681 -0.9856
  177MOL   H19446306   3.967   6.805   1.902  2.1256 -1.7212  0.8766
  177MOL   H19546307   4.084   7.039   1.657 -0.6562  0.2485  0.5947
  177MOL   H19646308   4.199   6.937   1.569 -1.2846  1.0370 -0.8536
  177MOL   C19746309   4.273   7.055   1.746  0.1665  0.4599  0.2777
  177MOL   C19846310   4.302   7.184   1.672 -0.1441  0.8512  0.7047
  177MOL   C19946311   4.420   7.235   1.635  0.0425  1.4797 -0.3296
  177MOL   C20046312   4.553   7.166   1.662 -0.4482  0.4409 -0.6981
  177MOL   C20146313   4.430   7.365   1.565 -0.6591 -0.0917 -0.3567
  177MOL   H20246314   4.368   7.001   1.747  0.5336  1.0975  0.2582
  177MOL   H20346315   4.226   7.092   1.837 -0.4127 -1.2566  0.6958
  177MOL   H20446316   4.212   7.236   1.644 -1.1750 -1.7310 -1.0476
  177MOL   H20546317   4.552   7.057   1.652  1.5551  0.5788 -2.7278
  177MOL   H20646318   4.586   7.185   1.764 -0.0564  1.0123 -0.9292
  177MOL   H20746319   4.631   7.211   1.600 -0.0252  0.2243 -0.3304
  177MOL   H20846320   4.336   7.395   1.518 -0.1427 -0.7966 -1.8538
  177MOL   H20946321   4.491   7.337   1.479  2.1807 -0.7704  1.8175
  177MOL   C21046322   4.488   7.480   1.659 -0.0688 -0.1655 -0.1445
  177MOL   C21146323   4.473   7.627   1.618  0.1961 -0.0437 -0.0950
  177MOL   C21246324   4.382   7.718   1.661 -0.1469 -0.0681  0.5281
  177MOL   C21346325   4.272   7.687   1.761 -0.8291  0.0809 -1.2515
  177MOL   C21446326   4.387   7.858   1.601 -0.3062  0.3749  0.5254
  177MOL   H21546327   4.595   7.467   1.671 -0.2105 -1.9437 -0.6937
  177MOL   H21646328   4.463   7.458   1.763 -1.6417  1.8511 -0.0519
  177MOL   H21746329   4.543   7.659   1.542 -0.3549  0.1027 -0.5391
  177MOL   H21846330   4.183   7.745   1.736 -1.5457 -0.6063 -0.2867
  177MOL   H21946331   4.297   7.715   1.864  2.2184  1.8685 -2.4054
  177MOL   H22046332   4.246   7.581   1.759 -0.4111 -0.0995  1.5226
  177MOL   H22146333   4.293   7.874   1.548  0.7526  2.3624 -0.8137
  177MOL   H22246334   4.471   7.863   1.531 -0.1679 -3.5171  0.3051
  177MOL   C22346335   4.418   0.089   1.703  0.1867 -0.2398  0.1959
  177MOL   C22446336   4.296   0.136   1.780 -0.0390  0.3883 -0.0757
  177MOL   C22546337   4.228   0.248   1.761  0.4612 -0.6709  0.3053
  177MOL   C22646338   4.266   0.350   1.651 -0.1045 -0.0085  0.4734
  177MOL   C22746339   4.095   0.281   1.821 -0.0630 -0.3342  0.5812
  177MOL   H22846340   4.457   0.176   1.651 -0.0559  0.3060  0.9178
  177MOL   H22946341   4.500   0.060   1.768 -1.2589 -0.0518  2.1579
  177MOL   H23046342   4.260   0.059   1.846 -2.1492  0.1777 -1.4079
  177MOL   H23146343   4.178   0.404   1.617  1.0700  0.1986 -2.3933
  177MOL   H23246344   4.288   0.283   1.568 -0.4585 -0.2276  0.5551
  177MOL   H23346345   4.348   0.416   1.680 -0.4300 -0.8200  3.4445
  177MOL   H23446346   4.030   0.295   1.735  0.2748  2.4713  0.7401
  177MOL   H23546347   4.099   0.385   1.854  1.2987 -0.0423 -0.4552
  177MOL   C23646348   4.034   0.184   1.929 -0.3000  0.2152  0.2857
  177MOL   C23746349   3.885   0.217   1.951  0.9723 -0.1524 -0.0543
  177MOL   C23846350   3.829   0.287   2.056 -0.3407  0.5672  0.4909
  177MOL   C23946351   3.905   0.345   2.176  0.2689 -0.8414 -0.0808
  177MOL   C24046352   3.676   0.297   2.056  0.3498  0.3196 -0.0592
  177MOL   H24146353   4.093   0.191   2.020 -1.1864 -1.7740  1.0506
  177MOL   H24246354   4.038   0.077   1.909  0.9952  0.3396 -0.1489
  177MOL   H24346355   3.822   0.187   1.869 -0.5711 -2.8085  2.0352
  177MOL   H24446356   3.925   0.452   2.163  1.1186 -0.6709  2.2303
  177MOL   H24546357   4.001   0.297   2.198  0.9142  0.1579 -0.6317
  177MOL   H24646358   3.853   0.337   2.272 -0.4467  1.4951 -0.2452
  177MOL   H24746359   3.636   0.324   1.958  0.7973 -0.3633 -0.4249
  177MOL   H24846360   3.660   0.388   2.114 -1.5441  0.5245 -0.8603
  177MOL   C24946361   3.605   0.185   2.133  0.3370 -1.2316  0.8406
  177MOL   C25046362   3.585   0.068   2.043 -0.5818 -0.7219 -0.0017
  177MOL   C25146363   3.651   7.836   2.056  0.1211  0.3611  0.2451
  177MOL   C25246364   3.759   7.802   2.153  0.0224 -1.0102 -0.0168
  177MOL   C25346365   3.639   7.729   1.943  0.3941 -0.1332 -0.5977
  177MOL   H25446366   3.504   0.219   2.157  1.1258  1.7249  0.1664
  177MOL   H25546367   3.655   0.161   2.227  1.4041 -1.9578  0.0902
  177MOL   H25646368   3.515   0.068   1.960  2.2950 -0.4796 -2.5385
  177MOL   H25746369   3.728   7.705   2.192 -1.1208 -0.5465  0.2355
  177MOL   H25846370   3.759   7.872   2.237 -2.1434 -0.2007 -0.6531
  177MOL   H25946371   3.850   7.801   2.094  0.2039  0.2601  0.2195
  177MOL   H26046372   3.739   7.719   1.900  1.0331  2.0671  0.3266
  177MOL   H26146373   3.568   7.752   1.863  0.0639  0.8247 -0.0269
  177MOL   H26246374   3.617   7.628   1.976  0.9488 -0.2588 -0.6003
  178MOL     C146375   7.359   4.935   6.396 -0.1916  0.4676  0.4173
  178MOL     C246376   7.451   5.022   6.472 -0.0257  0.1495 -0.1100
  178MOL     C346377   7.576   5.050   6.442  0.0418 -0.4209 -0.7342
  178MOL     C446378   7.660   4.976   6.338 -0.0624  0.6488 -0.0961
  178MOL     C546379   7.659   5.139   6.526  0.3362 -0.5635  0.8458
  178MOL     H646380   7.401   4.836   6.376  0.3505  0.5139  1.3138
  178MOL     H746381   7.268   4.921   6.454  0.3309  1.3795  1.4512
  178MOL     H846382   7.414   5.074   6.559 -1.0974  0.5710 -0.8062
  178MOL     H946383   7.721   4.902   6.389  0.4149  1.3503  0.3594
  178MOL    H1046384   7.720   5.031   6.266  1.1319 -1.8131 -1.0241
  178MOL    H1146385   7.594   4.928   6.265 -0.7212  2.6837 -0.8907
  178MOL    H1246386   7.612   5.238   6.531  0.6206 -0.1292 -3.3563
  178MOL    H1346387   7.746   5.172   6.469 -2.2986  1.8101 -1.9828
  178MOL    H1446388   7.332   4.973   6.297 -0.0879 -1.4263 -0.3695
  178MOL    C1546389   7.705   5.086   6.669 -0.2434  0.2596 -0.7305
  178MOL    C1646390   7.786   5.190   6.745  0.7377 -0.3053 -0.2308
  178MOL    C1746391   7.786   5.216   6.877  0.5716  0.8733  0.4453
  178MOL    C1846392   7.705   5.137   6.989 -0.4307 -0.0021 -0.3181
  178MOL    C1946393   7.860   5.333   6.942 -0.0244  0.1529  0.4220
  178MOL    H2046394   7.759   4.995   6.643 -1.4029  0.2086 -3.0887
  178MOL    H2146395   7.621   5.057   6.731  0.5448  1.1078  0.7695
  178MOL    H2246396   7.845   5.251   6.678 -0.5300  1.2914  0.0781
  178MOL    H2346397   7.625   5.202   7.025  0.7529  0.9429  0.6375
  178MOL    H2446398   7.768   5.123   7.078  0.8700  2.4283 -0.7989
  178MOL    H2546399   7.655   5.051   6.945 -1.1330 -0.8487  2.0687
  178MOL    H2646400   7.791   5.387   7.007  0.5651  0.7061  0.5957
  178MOL    H2746401   0.021   5.388   6.859 -1.7302  0.0558 -0.5709
  178MOL    C2846402   0.094   5.283   7.037 -0.9282 -0.3631  1.2027
  178MOL    C2946403   0.195   5.394   7.063  0.4090  0.1598 -0.2756
  178MOL    C3046404   0.299   5.428   6.991  0.0918 -0.0989  0.1980
  178MOL    C3146405   0.344   5.345   6.868 -0.1447 -0.2211  0.7435
  178MOL    C3246406   0.389   5.546   7.024 -0.2608 -0.1417 -0.0292
  178MOL    H3346407   0.142   5.209   6.973 -2.4529  1.7087 -2.4812
  178MOL    H3446408   0.063   5.220   7.120 -0.1628 -0.3457  1.5013
  178MOL    H3546409   0.166   5.462   7.142  0.1372 -0.4329  0.1354
  178MOL    H3646410   0.305   5.243   6.870 -0.1467 -0.2256  0.4752
  178MOL    H3746411   0.451   5.328   6.877  0.2649  1.2541 -0.9888
  178MOL    H3846412   0.330   5.389   6.769  0.5667 -0.6640  0.4442
  178MOL    H3946413   0.491   5.508   7.024 -0.2211 -0.0351  0.0194
  178MOL    H4046414   0.358   5.585   7.122 -1.3585 -2.0859  0.4229
  178MOL    C4146415   0.381   5.655   6.912  0.6173  0.6100 -0.2569
  178MOL    C4246416   0.467   5.768   6.950  0.2961  0.2442  0.5064
  178MOL    C4346417   0.578   5.814   6.892  0.4740  0.5854 -0.0166
  178MOL    C4446418   0.640   5.738   6.764 -0.0871  0.3881  0.2913
  178MOL    C4546419   0.664   5.926   6.949 -0.3487 -0.3583 -0.0028
  178MOL    H4646420   0.277   5.684   6.901  0.1748 -0.6723  0.4926
  178MOL    H4746421   0.411   5.615   6.816  1.7498  2.4183 -0.7018
  178MOL    H4846422   0.432   5.812   7.042  2.0810 -0.8610  1.7460
  178MOL    H4946423   0.704   5.652   6.786  0.3319  1.1906  2.3515
  178MOL    H5046424   0.695   5.806   6.699 -0.5696  0.5062  0.0068
  178MOL    H5146425   0.554   5.694   6.714 -0.1709  0.5672  0.2765
  178MOL    H5246426   0.762   5.884   6.968 -1.6528 -2.5337  2.1209
  178MOL    H5346427   0.624   5.957   7.046 -1.0299 -0.2298 -0.3200
  178MOL    C5446428   0.664   6.052   6.859 -0.4435  0.4996 -0.3884
  178MOL    C5546429   0.721   6.176   6.931 -0.0799  0.2476  0.6509
  178MOL    C5646430   0.698   6.306   6.894 -0.6830  1.0431  0.0400
  178MOL    C5746431   0.625   6.336   6.767  0.1058 -0.1048 -0.1142
  178MOL    C5846432   0.735   6.423   6.983 -0.3576 -0.1334  0.1250
  178MOL    H5946433   0.559   6.075   6.842 -0.2374  1.0964 -0.8669
  178MOL    H6046434   0.687   6.033   6.754 -0.1002 -0.6810 -0.1069
  178MOL    H6146435   0.778   6.171   7.023 -0.0027  1.7168  0.7051
  178MOL    H6246436   0.628   6.259   6.691  0.6321 -0.0743 -0.1253
  178MOL    H6346437   0.678   6.423   6.727 -0.7958 -0.1016 -1.3150
  178MOL    H6446438   0.524   6.368   6.792  0.4084  0.9586 -0.2322
  178MOL    H6546439   0.756   6.516   6.929  0.6954 -1.0815 -1.1252
  178MOL    H6646440   0.829   6.395   7.031 -0.7027  0.7228  1.3355
  178MOL    C6746441   0.623   6.461   7.083  0.0164 -0.4579 -0.7650
  178MOL    C6846442   0.666   6.583   7.164 -0.5538  0.3628  0.0616
  178MOL    C6946443   0.597   6.671   7.240 -0.1356  0.2361 -0.2542
  178MOL    C7046444   0.451   6.657   7.277 -0.0239  0.2836  0.4741
  178MOL    C7146445   0.670   6.789   7.309  0.2236  0.5010  0.3662
  178MOL    H7246446   0.595   6.384   7.154  0.5482  0.9679  1.0165
  178MOL    H7346447   0.538   6.481   7.017  0.7154  0.0723 -1.5309
  178MOL    H7446448   0.772   6.600   7.161  0.0873 -3.2691 -0.1929
  178MOL    H7546449   0.445   6.622   7.380  1.5994  0.2517  0.5783
  178MOL    H7646450   0.400   6.593   7.204  0.3799 -1.0701  1.3688
  178MOL    H7746451   0.390   6.747   7.276 -0.5782 -0.0816  1.3302
  178MOL    H7846452   0.777   6.766   7.300 -0.0947 -0.9725  0.1364
  178MOL    H7946453   0.635   6.791   7.412  0.6791  1.5664  0.5022
  178MOL    C8046454   0.638   6.920   7.246  0.6337 -0.7197 -0.0020
  178MOL    C8146455   0.725   7.037   7.296  1.2731 -0.5256 -0.3150
  178MOL    C8246456   0.782   7.129   7.216 -1.3171 -0.1072 -0.3215
  178MOL    C8346457   0.777   7.131   7.064 -0.5232  0.3103 -0.1090
  178MOL    C8446458   0.875   7.235   7.269  0.4626  0.0651  0.6543
  178MOL    H8546459   0.531   6.943   7.243  1.2756  2.6495  0.6460
  178MOL    H8646460   0.660   6.902   7.141 -0.6747 -1.2267 -0.1971
  178MOL    H8746461   0.745   7.033   7.402 -1.3156  0.3105  0.2295
  178MOL    H8846462   0.879   7.115   7.030 -0.0669  0.1269  1.3454
  178MOL    H8946463   0.750   7.231   7.028 -0.1710  1.3491  2.4606
  178MOL    H9046464   0.708   7.062   7.016  0.7097 -0.6990 -0.4379
  178MOL    H9146465   0.828   7.328   7.236 -1.8152 -0.8816  1.1813
  178MOL    H9246466   0.971   7.225   7.218  0.0439  0.3518 -0.1964
  178MOL    C9346467   0.907   7.236   7.422 -0.1643  0.2338  0.6557
  178MOL    C9446468   1.004   7.350   7.448 -0.2742 -0.9629 -0.2790
  178MOL    C9546469   1.007   7.445   7.543 -0.7408 -0.4411 -0.4599
  178MOL    C9646470   0.900   7.462   7.646  0.8672 -0.0659 -0.2786
  178MOL    C9746471   1.114   7.549   7.554 -0.5554  0.3769  0.1740
  178MOL    H9846472   0.961   7.148   7.456  2.5876  2.0386  1.0862
  178MOL    H9946473   0.817   7.249   7.482 -1.0755  1.9082 -1.0047
  178MOL   H10046474   1.090   7.351   7.383 -0.3630 -0.7475 -0.3940
  178MOL   H10146475   0.821   7.387   7.640  0.3259  0.5602 -1.2041
  178MOL   H10246476   0.856   7.562   7.635 -0.4505 -0.6298 -0.2975
  178MOL   H10346477   0.947   7.459   7.744 -0.2656 -0.2260  0.2661
  178MOL   H10446478   1.084   7.636   7.610  0.3496  0.6898  0.1789
  178MOL   H10546479   1.138   7.582   7.453  2.9044 -1.0215  0.4605
  178MOL   C10646480   1.231   7.490   7.632  0.4725  0.0350  0.0834
  178MOL   C10746481   1.344   7.592   7.650  0.5584 -0.0119 -0.4643
  178MOL   C10846482   1.413   7.631   7.758 -0.3506  0.4411 -0.1396
  178MOL   C10946483   1.389   7.566   0.009  0.1111  0.0845  0.1550
  178MOL   C11046484   1.521   7.743   7.750  0.2079 -0.3281 -0.0887
  178MOL   H11146485   1.266   7.403   7.578  5.7400  2.4393 -0.7014
  178MOL   H11246486   1.192   7.451   7.726  0.8149  3.2145  1.6414
  178MOL   H11346487   1.365   7.640   7.556 -0.1759  1.3552  0.0621
  178MOL   H11446488   1.307   7.495   7.879  1.8452 -1.9126 -0.2402
  178MOL   H11546489   1.370   7.642   0.084  0.4854 -0.2054  0.5471
  178MOL   H11646490   1.476   7.507   0.037  0.2366  0.0439 -0.3245
  178MOL   H11746491   1.545   7.764   7.646 -0.7391  0.6782 -0.1104
  178MOL   H11846492   1.604   7.689   7.796  1.7757 -0.8372 -3.3669
  178MOL   C11946493   1.494   7.875   7.832 -0.3358  0.1782 -0.5088
  178MOL   C12046494   1.613   0.082   7.848 -0.1210  0.0019 -0.2170
  178MOL   C12146495   1.624   0.215   7.840 -0.4884 -0.2586 -0.5190
  178MOL   C12246496   1.508   0.307   7.819  0.9940  0.2264  0.3318
  178MOL   C12346497   1.757   0.280   7.863 -0.0883  0.4313  0.1524
  178MOL   H12446498   1.469   7.841   0.050  0.1929  1.6828  0.1354
  178MOL   H12546499   1.404   0.044   7.798 -1.3476 -1.5050 -0.4932
  178MOL   H12646500   1.700   0.025   7.876 -1.5474 -1.4909  1.3122
  178MOL   H12746501   1.486   0.349   0.035 -2.4500  0.2599 -0.3740
  178MOL   H12846502   1.415   0.256   7.791  1.2670 -0.1964  0.1939
  178MOL   H12946503   1.528   0.386   7.747 -0.9572  1.0219  0.6119
  178MOL   H13046504   1.763   0.372   7.804  1.9560  0.4257  0.3341
  178MOL   H13146505   1.840   0.220   7.826 -0.3508  1.1714 -1.7487
  178MOL   C13246506   1.788   0.304   0.128  0.0027  0.6162  0.2237
  178MOL   C13346507   1.706   0.417   0.174  0.6620 -0.2250 -0.6309
  178MOL   C13446508   1.608   0.411   0.269 -0.1979 -0.1868  0.3067
  178MOL   C13546509   1.574   0.289   0.344 -0.1674 -0.1668  0.8950
  178MOL   C13646510   1.537   0.545   0.309  0.3967  0.2782 -0.0979
  178MOL   H13746511   1.889   0.344   0.136  0.1515  0.6525 -1.6055
  178MOL   H13846512   1.787   0.213   0.189 -1.6019  0.1254 -0.5101
  178MOL   H13946513   1.730   0.515   0.136 -1.2823 -0.0177 -1.3753
  178MOL   H14046514   1.467   0.272   0.351 -0.0403 -1.5194 -0.1896
  178MOL   H14146515   1.608   0.307   0.446  1.2014 -1.8479  0.7511
  178MOL   H14246516   1.619   0.199   0.302  2.3061  1.3734  0.1054
  178MOL   H14346517   1.429   0.549   0.295  0.0921 -1.6116  1.4728
  178MOL   H14446518   1.574   0.628   0.249  0.2934 -0.0299 -0.5903
  178MOL   C14546519   1.571   0.595   0.449  0.2783 -0.1553 -0.7332
  178MOL   C14646520   1.478   0.539   0.553  0.2813 -0.3651 -0.0817
  178MOL   C14746521   1.410   0.603   0.643  0.5681  0.9522 -0.3890
  178MOL   C14846522   1.426   0.749   0.677 -0.3211  0.3891 -0.3508
  178MOL   C14946523   1.318   0.522   0.727  0.7305 -0.4675  0.2908
  178MOL   H15046524   1.552   0.703   0.452  1.3869  0.0121  0.7274
  178MOL   H15146525   1.674   0.569   0.471 -0.3710 -2.6228 -0.4831
  178MOL   H15246526   1.457   0.433   0.551  0.1113 -0.3256 -0.5526
  178MOL   H15346527   1.333   0.801   0.655 -0.8896 -0.5834 -0.2784
  178MOL   H15446528   1.509   0.801   0.629  0.0717  2.7485  2.7205
  178MOL   H15546529   1.450   0.756   0.784 -0.7284 -0.4780 -0.1952
  178MOL   H15646530   1.313   0.549   0.832 -2.8601  1.3564 -0.2385
  178MOL   H15746531   1.344   0.416   0.724 -0.8022 -0.8746  0.4718
  178MOL   C15846532   1.177   0.537   0.678  0.2539  0.0131  0.3558
  178MOL   C15946533   1.143   0.512   0.530 -0.8232  0.1599 -0.2188
  178MOL   C16046534   1.029   0.477   0.475 -0.4995 -0.0337  0.3046
  178MOL   C16146535   0.903   0.446   0.557 -0.0719 -0.5978  0.3099
  178MOL   C16246536   1.005   0.458   0.329 -0.0808 -0.5913 -0.4784
  178MOL   H16346537   1.150   0.640   0.698 -2.5979 -0.3533 -1.3279
  178MOL   H16446538   1.110   0.477   0.740  0.1414  0.1339  0.3505
  178MOL   H16546539   1.219   0.549   0.462  0.0067 -0.8880  0.1235
  178MOL   H16646540   0.904   0.491   0.656 -1.7492  0.2522 -0.0450
  178MOL   H16746541   0.893   0.337   0.558  0.0019 -0.6350 -1.2302
  178MOL   H16846542   0.814   0.489   0.510  0.2724  0.6248  0.7566
  178MOL   H16946543   0.978   0.554   0.285  0.3077  0.4381  1.4995
  178MOL   H17046544   0.923   0.389   0.312  1.3235 -1.8590 -2.3845
  178MOL   C17146545   1.124   0.400   0.244 -0.6530 -0.2254 -0.0295
  178MOL   C17246546   1.081   0.376   0.099  0.6822 -0.2862  0.2059
  178MOL   C17346547   1.120   0.445   7.871 -0.3841 -0.1419  0.2036
  178MOL   C17446548   1.216   0.558   7.860 -0.1652 -0.1115  0.0052
  178MOL   C17546549   1.069   0.401   7.729 -0.5352 -0.4098  0.1249
  178MOL   H17646550   1.165   0.306   0.282 -0.5637 -0.4108 -0.5717
  178MOL   H17746551   1.202   0.476   0.238  0.9992 -1.7001  1.9167
  178MOL   H17846552   1.010   0.295   0.091  0.8445 -0.1136 -4.3654
  178MOL   H17946553   1.249   0.610   0.068 -0.7157  0.5766 -0.1881
  178MOL   H18046554   1.186   0.629   7.782  1.2719 -0.1832 -0.6255
  178MOL   H18146555   1.309   0.512   7.827  0.0410  1.5960 -1.8759
  178MOL   H18246556   1.051   0.495   7.678 -0.1810 -1.4728 -2.0216
  178MOL   H18346557   0.973   0.349   7.737  0.4314 -2.2094  0.2193
  178MOL   C18446558   1.180   0.318   7.650 -0.1387 -0.2473  0.2192
  178MOL   C18546559   1.270   0.414   7.565  1.0756 -0.2146 -1.2181
  178MOL   C18646560   1.376   0.373   7.492  0.0013 -0.2538  0.2055
  178MOL   C18746561   1.411   0.226   7.461  0.1876  0.2311  0.0245
  178MOL   C18846562   1.460   0.485   7.423 -0.9977 -0.4683  0.5435
  178MOL   H18946563   1.128   0.259   7.575  0.7493 -2.5337  1.3535
  178MOL   H19046564   1.235   0.244   7.707  1.0247 -0.9626 -1.8030
  178MOL   H19146565   1.258   0.521   7.558  0.5601 -0.0826  1.3076
  178MOL   H19246566   1.405   0.220   7.352 -0.3772  1.3606 -0.0115
  178MOL   H19346567   1.331   0.157   7.491 -0.8152  0.5854 -1.7318
  178MOL   H19446568   1.513   0.199   7.485  1.1879  2.2025 -1.8061
  178MOL   H19546569   1.562   0.460   7.452  0.4660  2.3444 -1.9241
  178MOL   H19646570   1.441   0.586   7.458  0.5694 -0.2169  0.7174
  178MOL   C19746571   1.438   0.492   7.275  0.2446  0.4867  0.2219
  178MOL   C19846572   1.315   0.578   7.240 -0.6224 -0.0718 -0.8705
  178MOL   C19946573   1.224   0.550   7.140 -0.2533  0.2215  1.2526
  178MOL   C20046574   1.240   0.440   7.037  0.1969  0.4053  0.6882
  178MOL   C20146575   1.094   0.633   7.127  0.6072  0.1452 -0.2750
  178MOL   H20246576   1.435   0.398   7.219  0.5405  2.0706 -2.5346
  178MOL   H20346577   1.528   0.540   7.237  0.3917  1.0994  1.3338
  178MOL   H20446578   1.302   0.659   7.310  1.2395  0.0614 -0.6539
  178MOL   H20546579   1.170   0.358   7.055 -0.9694  1.5364  1.4312
  178MOL   H20646580   1.337   0.391   7.039 -0.2269 -0.4789 -0.2953
  178MOL   H20746581   1.236   0.482   6.937  1.2173 -0.8962  0.0954
  178MOL   H20846582   1.080   0.676   7.028 -1.0231  0.6421  0.1557
  178MOL   H20946583   1.098   0.716   7.197  3.3655 -1.0989  1.1292
  178MOL   C21046584   0.968   0.555   7.171  0.2411  0.6428  0.3168
  178MOL   C21146585   0.845   0.645   7.158 -0.4020  0.5582  0.1830
  178MOL   C21246586   0.729   0.624   7.088  0.5584  0.8361  0.2076
  178MOL   C21346587   0.703   0.497   7.009  0.6276  0.4657  0.0444
  178MOL   C21446588   0.632   0.735   7.074  0.4694  0.2275 -0.5203
  178MOL   H21546589   0.977   0.509   7.270  1.1928 -0.6820 -0.3763
  178MOL   H21646590   0.963   0.467   7.107 -1.7301 -0.4130  1.8413
  178MOL   H21746591   0.865   0.737   7.210 -0.4779 -0.0765  1.3442
  178MOL   H21846592   0.715   0.414   7.079 -0.2112 -0.3307 -0.7556
  178MOL   H21946593   0.768   0.506   6.922  0.4378  1.8383  0.0384
  178MOL   H22046594   0.604   0.489   6.965  0.5583 -0.1470  0.3103
  178MOL   H22146595   0.657   0.814   7.145 -3.0901 -0.4163  1.5709
  178MOL   H22246596   0.535   0.701   7.112 -0.3737  2.8726 -0.1841
  178MOL   C22346597   0.621   0.782   6.930 -0.1442 -0.1718 -0.8584
  178MOL   C22446598   0.513   0.887   6.916  0.6360  0.1601 -0.1642
  178MOL   C22546599   0.428   0.905   6.811 -0.8065  0.2310  0.3919
  178MOL   C22646600   0.439   0.820   6.686 -0.1824  0.2585  0.3523
  178MOL   C22746601   0.312   1.006   6.815 -0.6020  0.6328  0.4154
  178MOL   H22846602   0.622   0.696   6.864 -0.4978  0.4438 -1.6768
  178MOL   H22946603   0.709   0.836   6.896  1.2005 -0.2899  2.2064
  178MOL   H23046604   0.512   0.958   6.997 -1.1106  2.0854 -1.7970
  178MOL   H23146605   0.437   0.880   6.596 -3.9237 -1.3145 -0.7283
  178MOL   H23246606   0.347   0.762   6.675 -1.3663  2.1198  0.0510
  178MOL   H23346607   0.529   0.759   6.686 -1.0117 -0.9842  0.4211
  178MOL   H23446608   0.280   1.036   6.715 -0.9473 -1.8346 -0.2401
  178MOL   H23546609   0.352   1.100   6.855 -0.5565  0.2853  1.2043
  178MOL   C23646610   0.187   0.960   6.900  0.2968 -0.6670 -0.7079
  178MOL   C23746611   0.080   1.067   6.922  0.6146  0.7459  0.6379
  178MOL   C23846612   7.868   1.052   7.018  1.1744 -0.1527  0.3106
  178MOL   C23946613   7.859   0.933   7.110  0.4860  0.1336  0.0424
  178MOL   C24046614   7.770   1.169   7.047 -0.2696 -0.0815 -0.3496
  178MOL   H24146615   0.238   0.923   6.989 -0.0348 -1.3292 -0.7947
  178MOL   H24246616   0.148   0.866   6.860  1.5802 -0.8556 -1.5277
  178MOL   H24346617   0.073   1.151   6.854  0.1500  0.1921 -0.0072
  178MOL   H24446618   7.758   0.898   7.132  1.2774 -1.6995  0.9286
  178MOL   H24546619   0.035   0.952   7.200  1.8774 -0.8716 -0.6391
  178MOL   H24646620   0.029   0.854   7.056  1.3750 -0.1235  1.2529
  178MOL   H24746621   7.786   1.194   7.152 -1.2225 -0.6867 -0.0533
  178MOL   H24846622   7.670   1.127   7.035 -0.4828  0.6633 -1.2213
  178MOL   C24946623   7.780   1.295   6.972  0.6966  0.1585 -0.3545
  178MOL   C25046624   7.676   1.399   7.016 -0.1692  0.4087  0.0447
  178MOL   C25146625   7.572   1.452   6.941 -0.5365 -0.3522 -0.4114
  178MOL   C25246626   7.538   1.422   6.793  0.1024 -0.0713 -0.0918
  178MOL   C25346627   7.491   1.564   6.995 -0.0909  0.1765 -0.7476
  178MOL   H25446628   7.766   1.271   6.866 -0.3466 -0.5029 -0.0710
  178MOL   H25546629   7.880   1.337   6.985  2.6974 -3.9833 -1.3973
  178MOL   H25646630   7.678   1.437   7.117  0.0429 -0.0042  0.1979
  178MOL   H25746631   7.613   1.356   6.750 -0.8962 -0.7400 -0.8063
  178MOL   H25846632   7.543   1.515   6.737 -0.6618  0.6989  1.1006
  178MOL   H25946633   7.440   1.376   6.787  0.1699 -0.4613  1.4319
  178MOL   H26046634   7.533   1.587   7.093 -1.1068 -1.3815  0.0822
  178MOL   H26146635   7.389   1.528   7.003 -0.0231  0.2760  0.6149
  178MOL   H26246636   7.496   1.649   6.927  0.1282  1.4584  0.8363
  179MOL     C146637   5.523   4.504   0.152  0.3633  0.0747  0.3577
  179MOL     C246638   5.444   4.625   0.181 -0.2539  0.1733  0.4695
  179MOL     C346639   5.351   4.672   0.092 -1.3713 -0.1741  0.5223
  179MOL     C446640   5.320   4.611   7.839 -0.7087  0.1327 -0.1732
  179MOL     C546641   5.261   4.782   0.138  0.4678 -0.2696  0.3215
  179MOL     H646642   5.570   4.473   0.245 -1.0610 -1.3270  0.6199
  179MOL     H746643   5.457   4.427   0.114 -0.8665  1.1440  0.2815
  179MOL     H846644   5.454   4.678   0.275  1.9280  0.1928  0.2483
  179MOL     H946645   5.401   4.542   7.816  0.2399  1.2437 -0.2130
  179MOL    H1046646   5.334   4.692   7.768 -2.3304  1.5654  1.0583
  179MOL    H1146647   5.225   4.560   7.822  1.1091 -2.8941 -1.7304
  179MOL    H1246648   5.260   4.860   0.061 -0.4686 -0.1572  0.4408
  179MOL    H1346649   5.292   4.828   0.232 -2.0828  1.4773  0.3642
  179MOL    H1446650   5.603   4.516   0.079 -0.5897  1.5773 -0.4795
  179MOL    C1546651   5.120   4.739   0.174 -0.1677  0.3416  0.0075
  179MOL    C1646652   5.047   4.841   0.248  0.5405 -0.0812  0.0126
  179MOL    C1746653   5.019   4.832   0.380  0.5240  0.2414 -0.4614
  179MOL    C1846654   5.053   4.710   0.470 -0.2238  0.4971 -0.3045
  179MOL    C1946655   4.958   4.950   0.453 -0.8685  0.5526 -0.3812
  179MOL    H2046656   5.133   4.644   0.226 -0.0040 -0.3892 -1.3460
  179MOL    H2146657   5.070   4.720   0.079  0.0454  0.9050 -0.2220
  179MOL    H2246658   5.022   4.932   0.195  1.4159  0.4072  0.4338
  179MOL    H2346659   5.081   4.619   0.417  0.6204  0.3434  0.3949
  179MOL    H2446660   4.965   4.688   0.530 -0.2996  3.3556  0.7466
  179MOL    H2546661   5.131   4.740   0.540 -0.5005  2.7037 -0.8742
  179MOL    H2646662   5.029   4.982   0.529 -1.7260  1.3768  0.0796
  179MOL    H2746663   4.865   4.920   0.502 -0.2712 -1.9537 -0.6979
  179MOL    C2846664   4.920   5.072   0.375  0.6304  0.0313 -0.4018
  179MOL    C2946665   4.866   5.182   0.458  0.2575  0.5634 -0.6665
  179MOL    C3046666   4.857   5.306   0.422 -0.0844 -0.3455  0.8118
  179MOL    C3146667   4.900   5.353   0.284  0.2876  0.0430  0.5152
  179MOL    C3246668   4.801   5.419   0.513  0.4881 -0.0121 -0.2513
  179MOL    H3346669   4.848   5.054   0.296  1.7881  3.2722 -2.2762
  179MOL    H3446670   5.000   5.128   0.327  0.3055  1.8280  1.0957
  179MOL    H3546671   4.815   5.151   0.548  1.4018 -2.0404 -0.8788
  179MOL    H3646672   4.827   5.425   0.247 -0.3678 -0.9185 -0.1166
  179MOL    H3746673   4.892   5.284   0.200 -0.0511  1.0337 -0.2730
  179MOL    H3846674   5.000   5.396   0.277  0.9533 -1.2783  1.5887
  179MOL    H3946675   4.779   5.383   0.613  1.8425  2.0557  0.8390
  179MOL    H4046676   4.703   5.450   0.478 -0.3230 -2.8379 -0.5959
  179MOL    C4146677   4.886   5.547   0.518  0.4370 -0.0795 -0.0777
  179MOL    C4246678   5.030   5.504   0.542  0.4951 -0.0410  0.1710
  179MOL    C4346679   5.143   5.557   0.504 -1.7598 -0.0384 -0.2537
  179MOL    C4446680   5.138   5.674   0.409  0.6512 -0.7490  0.3431
  179MOL    C4546681   5.283   5.506   0.547 -0.8767 -0.9479 -0.2374
  179MOL    H4646682   4.853   5.616   0.597 -2.7153 -1.1450 -0.3959
  179MOL    H4746683   4.866   5.605   0.428 -3.3202 -0.7168  0.2330
  179MOL    H4846684   5.029   5.423   0.614 -0.3747 -2.4949 -2.4834
  179MOL    H4946685   5.083   5.763   0.440  0.5959 -1.2835  1.8010
  179MOL    H5046686   5.095   5.642   0.314  0.1494  1.3382 -0.1660
  179MOL    H5146687   5.234   5.716   0.380  0.2212 -0.3835 -0.5750
  179MOL    H5246688   5.280   5.412   0.603 -0.5767 -1.7786 -1.5943
  179MOL    H5346689   5.328   5.580   0.612 -0.9466 -0.5479 -0.6429
  179MOL    C5446690   5.369   5.479   0.420 -0.1173  0.3193  0.6121
  179MOL    C5546691   5.311   5.375   0.319 -0.2281  0.7112 -0.0395
  179MOL    C5646692   5.351   5.249   0.318 -0.1475 -0.6882  0.2072
  179MOL    C5746693   5.449   5.193   0.421 -0.2354  0.1049 -0.0397
  179MOL    C5846694   5.299   5.151   0.210 -0.2059 -0.0477  0.4383
  179MOL    H5946695   5.470   5.452   0.450  0.0208  1.7893  1.5367
  179MOL    H6046696   5.393   5.567   0.360  5.0406 -1.5079 -0.2888
  179MOL    H6146697   5.240   5.415   0.248 -0.0066  1.0804 -0.0520
  179MOL    H6246698   5.424   5.089   0.442  1.9848 -0.5870 -0.5900
  179MOL    H6346699   5.440   5.240   0.518  4.2710 -0.1144  0.5934
  179MOL    H6446700   5.551   5.199   0.383  0.0156  1.5713  0.8406
  179MOL    H6546701   5.212   5.101   0.250 -0.0732 -0.9659 -0.3964
  179MOL    H6646702   5.385   5.089   0.184 -0.8019 -0.5593 -0.3125
  179MOL    C6746703   5.269   5.221   0.083 -0.6071  0.0135 -0.1535
  179MOL    C6846704   5.225   5.121   7.858 -0.7281 -0.0869 -0.4769
  179MOL    C6946705   5.258   5.122   7.730 -0.0998  0.1685 -1.1914
  179MOL    C7046706   5.344   5.228   7.671  0.0345 -0.5311 -0.0531
  179MOL    C7146707   5.214   5.012   7.634 -0.0739 -0.2385 -0.0724
  179MOL    H7246708   5.363   5.266   0.051 -0.9300  0.2109 -0.8579
  179MOL    H7346709   5.189   5.295   0.089 -0.5375  0.2895 -2.2177
  179MOL    H7446710   5.171   5.036   0.014  0.7984 -0.4390  0.9203
  179MOL    H7546711   5.338   5.223   7.562  1.1540  2.1824 -0.2871
  179MOL    H7646712   5.442   5.205   7.714 -0.1950 -1.0711  0.1871
  179MOL    H7746713   5.302   5.324   7.701  1.7261  0.5503 -1.0399
  179MOL    H7846714   5.171   4.930   7.691  1.0731  0.4934  1.8780
  179MOL    H7946715   5.308   4.973   7.593 -0.3900 -2.6511  1.4326
  179MOL    C8046716   5.114   5.057   7.532  0.1411  0.0214  0.7434
  179MOL    C8146717   5.066   4.941   7.451  0.5499  0.0957  0.0479
  179MOL    C8246718   4.958   4.929   7.374  0.1145 -0.5451 -0.3554
  179MOL    C8346719   4.844   5.027   7.373 -0.4526  0.1284 -0.0689
  179MOL    C8446720   4.934   4.795   7.303  0.0158 -0.3016  0.1492
  179MOL    H8546721   5.139   5.142   7.468 -1.6869 -1.0027 -1.4204
  179MOL    H8646722   5.017   5.083   7.572  0.3698 -0.5685  1.7091
  179MOL    H8746723   5.132   4.857   7.459  1.1772  0.7373  1.7891
  179MOL    H8846724   4.874   5.130   7.395 -1.3281  0.2920  0.3596
  179MOL    H8946725   4.783   5.002   7.460  1.8322 -1.7310  1.0794
  179MOL    H9046726   4.788   5.024   7.280  0.4169 -0.7475 -0.5784
  179MOL    H9146727   5.007   4.722   7.338  0.3651  0.3909  0.8891
  179MOL    H9246728   4.981   4.814   7.206  0.3395  1.3342  0.6077
  179MOL    C9346729   4.790   4.752   7.308  0.1648 -0.1916  0.7152
  179MOL    C9446730   4.770   4.621   7.239  1.1830  0.4268 -0.5312
  179MOL    C9546731   4.659   4.579   7.168 -0.0101  0.4368  0.5292
  179MOL    C9646732   4.538   4.667   7.143 -0.2400  0.9805 -0.2305
  179MOL    C9746733   4.640   4.436   7.124 -0.5124  0.3335 -0.5424
  179MOL    H9846734   4.729   4.822   7.251  0.7971  0.1855  0.4901
  179MOL    H9946735   4.742   4.740   7.405 -0.9416  1.8346  0.4448
  179MOL   H10046736   4.845   4.548   7.265  1.0101  0.1451 -0.8325
  179MOL   H10146737   4.460   4.638   7.213  0.4799 -0.5420 -0.0312
  179MOL   H10246738   4.504   4.633   7.045  0.2174  0.1029 -0.0871
  179MOL   H10346739   4.556   4.774   7.136  1.5980  0.6302 -1.3135
  179MOL   H10446740   4.542   4.391   7.107  0.5346 -2.3312  0.2913
  179MOL   H10546741   4.689   4.382   7.204 -0.0984 -1.3156 -1.8680
  179MOL   C10646742   4.720   4.401   6.998  0.1377  0.0089 -0.1707
  179MOL   C10746743   4.714   4.260   6.949  0.1187  0.3794  0.8175
  179MOL   C10846744   4.650   4.217   6.841 -0.0560  0.6389 -0.3672
  179MOL   C10946745   4.552   4.293   6.758  0.1801 -0.3343 -0.3393
  179MOL   C11046746   4.677   4.079   6.790  0.3043 -0.0645  0.6397
  179MOL   H11146747   4.825   4.411   7.026 -0.4596  2.3276  1.3430
  179MOL   H11246748   4.693   4.476   6.924  1.5910 -2.8252 -3.7612
  179MOL   H11346749   4.782   4.194   7.002  1.7144  2.3294  1.2575
  179MOL   H11446750   4.587   4.296   6.655 -0.0664 -0.9780 -0.4503
  179MOL   H11546751   4.533   4.389   6.805 -1.6793 -0.4240 -0.8555
  179MOL   H11646752   4.453   4.247   6.763 -0.7823  1.6229 -0.9187
  179MOL   H11746753   4.741   4.025   6.860 -1.5111 -1.5705  1.1600
  179MOL   H11846754   4.738   4.076   6.700  1.0735  0.1102  1.1435
  179MOL   C11946755   4.559   3.991   6.756  0.0518  0.3428  0.4355
  179MOL   C12046756   4.595   3.861   6.685 -0.7246 -0.5837 -0.4686
  179MOL   C12146757   4.550   3.736   6.716 -0.1225 -0.1062  0.2722
  179MOL   C12246758   4.448   3.711   6.827 -0.1098 -0.3524  0.6361
  179MOL   C12346759   4.586   3.620   6.629  0.1529  0.3222  0.3367
  179MOL   H12446760   4.500   4.044   6.681  1.0415 -0.7394 -1.1132
  179MOL   H12546761   4.490   3.980   6.840 -0.5420 -0.6310 -0.1798
  179MOL   H12646762   4.665   3.889   6.607 -0.6888 -0.5518 -0.4251
  179MOL   H12746763   4.495   3.648   6.904  1.2654 -2.1552 -1.6025
  179MOL   H12846764   4.359   3.660   6.790 -1.3158  1.6885  0.6773
  179MOL   H12946765   4.414   3.800   6.880 -0.4203  0.5886 -1.1215
  179MOL   H13046766   4.641   3.538   6.674  2.9077  2.4543  0.9608
  179MOL   H13146767   4.656   3.666   6.559  2.0149 -1.2842  1.0925
  179MOL   C13246768   4.462   3.563   6.562 -0.1865  0.5112  0.0597
  179MOL   C13346769   4.503   3.472   6.446 -0.1461 -0.4486  0.3623
  179MOL   C13446770   4.502   3.500   6.313  0.0538  0.5963 -0.1829
  179MOL   C13546771   4.452   3.632   6.260 -0.5736 -0.1272 -0.1010
  179MOL   C13646772   4.557   3.398   6.217  0.1165 -0.2783 -0.2838
  179MOL   H13746773   4.398   3.644   6.528 -0.0279 -0.2882 -2.2899
  179MOL   H13846774   4.413   3.495   6.631  0.8350 -0.5841 -0.2557
  179MOL   H13946775   4.530   3.371   6.471 -1.6067 -1.2235 -1.0970
  179MOL   H14046776   4.414   3.701   6.335 -0.2523 -0.4497  0.3635
  179MOL   H14146777   4.388   3.607   6.176  1.2771 -0.3581 -1.4703
  179MOL   H14246778   4.543   3.677   6.222  0.3542 -0.1970  1.9579
  179MOL   H14346779   4.625   3.332   6.270  1.1355 -1.3763 -2.8634
  179MOL   H14446780   4.622   3.444   6.143  1.3891  0.4065  1.2379
  179MOL   C14546781   4.444   3.332   6.143 -0.5649  0.1212  0.1644
  179MOL   C14646782   4.499   3.247   6.028  0.4619 -0.3066 -0.1156
  179MOL   C14746783   4.486   3.267   5.898  0.4348  0.1696  0.6356
  179MOL   C14846784   4.393   3.371   5.827 -0.0907  0.3405  0.2830
  179MOL   C14946785   4.564   3.190   5.792  0.0601  0.1144  0.1917
  179MOL   H15046786   4.363   3.396   6.107 -1.8369 -1.8920 -0.6814
  179MOL   H15146787   4.400   3.269   6.220  1.5906 -3.1338 -1.1652
  179MOL   H15246788   4.573   3.171   6.050  1.6143  0.8038 -0.0596
  179MOL   H15346789   4.459   3.446   5.784 -0.8248 -0.0627 -1.5656
  179MOL   H15446790   4.319   3.423   5.888 -1.1421 -1.1482  0.3122
  179MOL   H15546791   4.327   3.328   5.752 -0.2827  0.7464  0.2218
  179MOL   H15646792   4.639   3.140   5.854 -1.3949 -0.9663  1.1187
  179MOL   H15746793   4.610   3.256   5.719 -1.8141  0.7861 -0.4013
  179MOL   C15846794   4.482   3.083   5.718  0.6612 -0.6207  0.1404
  179MOL   C15946795   4.450   2.974   5.813  0.1763  0.0327 -0.0438
  179MOL   C16046796   4.333   2.933   5.850  0.2555 -0.6172 -0.2477
  179MOL   C16146797   4.204   2.988   5.794 -0.1037 -0.5595  0.0190
  179MOL   C16246798   4.322   2.815   5.945 -0.0193  0.1461  1.0735
  179MOL   H16346799   4.549   3.040   5.644  2.1661  1.6955  0.1003
  179MOL   H16446800   4.397   3.129   5.669 -0.9041 -1.9802  1.5248
  179MOL   H16546801   4.545   2.947   5.856  1.0779  1.6137 -1.0169
  179MOL   H16646802   4.201   3.096   5.810 -0.1963 -0.5455 -0.0864
  179MOL   H16746803   4.112   2.944   5.832 -0.5983  2.2625  2.3091
  179MOL   H16846804   4.216   2.976   5.686  0.6834  0.4756 -0.0131
  179MOL   H16946805   4.414   2.783   5.995  1.1109  2.2331  0.4171
  179MOL   H17046806   4.295   2.726   5.890 -0.9518  0.9553  0.2162
  179MOL   C17146807   4.206   2.833   6.049 -0.2985 -0.0142  0.5397
  179MOL   C17246808   4.193   2.970   6.111 -0.0515  0.0872  0.8727
  179MOL   C17346809   4.081   3.036   6.141  0.0575 -0.7321  0.6053
  179MOL   C17446810   3.949   2.975   6.136  0.7257  0.1438  0.0015
  179MOL   C17546811   4.088   3.186   6.177 -0.1360  0.1560 -0.2867
  179MOL   H17646812   4.236   2.769   6.132 -2.2179 -0.1574  1.1585
  179MOL   H17746813   4.116   2.782   6.014  0.2040 -0.2490 -0.4196
  179MOL   H17846814   4.290   3.012   6.133  0.2028  0.8599 -1.5826
  179MOL   H17946815   3.882   3.007   6.056  2.4542 -0.1098 -1.5716
  179MOL   H18046816   3.897   2.981   6.232  0.9169 -2.9278  0.3290
  179MOL   H18146817   3.952   2.870   6.108  0.7272 -0.2595  1.4729
  179MOL   H18246818   4.037   3.254   6.108  0.2819  1.2831  0.5025
  179MOL   H18346819   4.193   3.213   6.165 -0.4946  2.0550  0.6757
  179MOL   C18446820   4.061   3.207   6.321 -0.4330 -0.6289  0.1412
  179MOL   C18546821   4.097   3.346   6.375  0.5709  0.0572  0.3988
  179MOL   C18646822   4.023   3.433   6.442  0.4178 -0.6360 -0.5514
  179MOL   C18746823   3.879   3.407   6.465  0.6027 -0.1390 -0.1630
  179MOL   C18846824   4.076   3.565   6.502  0.1776  0.3162 -0.0887
  179MOL   H18946825   4.121   3.143   6.386 -0.0691 -0.8795 -0.4438
  179MOL   H19046826   3.953   3.195   6.334 -0.7345 -0.8048 -2.3435
  179MOL   H19146827   4.196   3.381   6.353  0.3860 -0.6854 -1.7444
  179MOL   H19246828   3.885   3.311   6.518 -0.1046 -1.0732 -1.7413
  179MOL   H19346829   3.824   3.370   6.378 -1.4631 -0.0763  1.0909
  179MOL   H19446830   3.824   3.472   6.533  1.1647 -1.7913  1.9337
  179MOL   H19546831   4.006   3.645   6.480  3.0810  2.3793 -2.0977
  179MOL   H19646832   4.176   3.583   6.463 -0.5571  0.1143 -2.1620
  179MOL   C19746833   4.063   3.574   6.659 -0.0774 -0.1019 -0.5174
  179MOL   C19846834   4.102   3.717   6.714 -0.1304  0.5560 -0.3157
  179MOL   C19946835   4.091   3.751   6.845 -0.2642  0.3467  1.2133
  179MOL   C20046836   4.040   3.660   6.952  0.1161 -0.1134  0.9418
  179MOL   C20146837   4.114   3.893   6.896  0.1576  0.5452 -0.6520
  179MOL   H20246838   4.112   3.491   6.712 -2.4089  0.3753  2.4732
  179MOL   H20346839   3.959   3.570   6.691 -0.4059  1.7058 -1.3003
  179MOL   H20446840   4.131   3.788   6.637 -2.0983  0.9624 -0.6930
  179MOL   H20546841   4.001   3.570   6.904 -1.3045  0.1747  1.5333
  179MOL   H20646842   3.964   3.717   7.006  0.5264 -0.9693  2.4244
  179MOL   H20746843   4.123   3.637   7.019  0.6706  2.3355  1.1343
  179MOL   H20846844   4.172   3.891   6.988 -2.0356  0.0945  0.7459
  179MOL   H20946845   4.014   3.927   6.922  0.5549  1.3847 -0.2136
  179MOL   C21046846   4.184   3.997   6.800  0.7546 -0.3926  0.0608
  179MOL   C21146847   4.235   4.124   6.878  0.0504 -0.0579 -0.2198
  179MOL   C21246848   4.201   4.250   6.858  0.3017 -0.2677  0.6749
  179MOL   C21346849   4.106   4.300   6.750  0.9979 -0.1501  0.0316
  179MOL   C21446850   4.243   4.363   6.953 -0.0792  0.4010 -0.3797
  179MOL   H21546851   4.108   4.027   6.728 -2.2422 -0.0975  3.1705
  179MOL   H21646852   4.270   3.961   6.744  2.2009  1.3956  1.0941
  179MOL   H21746853   4.298   4.097   6.961 -0.5691 -2.0985 -0.3930
  179MOL   H21846854   4.009   4.313   6.798  2.2286  2.3016  1.9971
  179MOL   H21946855   4.106   4.235   6.663 -1.5646 -0.3880  0.1695
  179MOL   H22046856   4.137   4.403   6.728  0.0410  0.7599  2.7369
  179MOL   H22146857   4.252   4.460   6.905 -1.9036  0.5522 -0.4251
  179MOL   H22246858   4.340   4.337   6.996  0.3530  1.1966 -0.8755
  179MOL   C22346859   4.146   4.394   7.073  0.0067  0.4906  0.0734
  179MOL   C22446860   4.170   4.302   7.187 -0.3292 -0.5321 -1.1146
  179MOL   C22546861   4.235   4.324   7.309 -0.2224 -0.2268  0.1967
  179MOL   C22646862   4.283   4.460   7.345  0.0232  0.3327 -0.4216
  179MOL   C22746863   4.249   4.209   7.412  0.1056 -0.3437  0.0184
  179MOL   H22846864   4.048   4.372   7.031  0.5557 -0.9385 -0.5051
  179MOL   H22946865   4.150   4.499   7.100 -0.4647  0.3969  0.5231
  179MOL   H23046866   4.134   4.201   7.173 -2.3558 -0.2976  2.0401
  179MOL   H23146867   4.388   4.453   7.375 -0.5052 -0.2023  1.3552
  179MOL   H23246868   4.223   4.505   7.423  0.6763  1.0659 -0.3410
  179MOL   H23346869   4.286   4.534   7.265  2.6311  0.3156 -0.3950
  179MOL   H23446870   4.354   4.186   7.430  1.2844  3.6700 -1.1961
  179MOL   H23546871   4.215   4.116   7.367 -0.5412  0.1403 -0.5050
  179MOL   C23646872   4.181   4.245   7.546 -0.7315  0.5406  0.6466
  179MOL   C23746873   4.190   4.120   7.641 -0.2897 -0.4105  0.3972
  179MOL   C23846874   4.093   4.037   7.666 -0.0236  1.0521 -0.0958
  179MOL   C23946875   3.951   4.061   7.621  0.8836  0.3633 -0.8837
  179MOL   C24046876   4.124   3.911   7.752 -0.2211 -0.3457 -0.1933
  179MOL   H24146877   4.080   4.274   7.521 -1.2018 -0.9043  0.7991
  179MOL   H24246878   4.234   4.328   7.593 -0.2595  0.7553 -0.2403
  179MOL   H24346879   4.289   4.098   7.678  0.2537 -0.3620 -0.9757
  179MOL   H24446880   3.878   3.989   7.658  1.1149  1.0790  1.0106
  179MOL   H24546881   3.947   4.075   7.513 -2.0580 -0.0385 -0.8831
  179MOL   H24646882   3.917   4.149   7.675 -0.3359  0.1137 -1.2263
  179MOL   H24746883   4.060   3.924   7.839  0.1950  4.0144 -0.4044
  179MOL   H24846884   4.224   3.931   7.792 -0.4722  3.1031 -1.1047
  179MOL   C24946885   4.125   3.786   7.663  0.4075  0.4590  0.3572
  179MOL   C25046886   4.134   3.654   7.739  0.1540 -0.5507  0.7689
  179MOL   C25146887   4.235   3.570   7.740  0.8376  0.5305  0.1465
  179MOL   C25246888   4.369   3.588   7.671  0.5011 -0.2799 -0.1788
  179MOL   C25346889   4.225   3.429   7.801  0.1039 -0.4203 -0.0768
  179MOL   H25446890   4.204   3.795   7.589  0.2239  0.2407  0.1331
  179MOL   H25546891   4.028   3.777   7.614 -0.7802  0.6464  2.6202
  179MOL   H25646892   4.037   3.628   7.780 -1.1711  1.7033 -0.7842
  179MOL   H25746893   4.442   3.587   7.752 -0.0272 -0.4532  0.2971
  179MOL   H25846894   4.382   3.688   7.629  0.0784  0.1639  0.7295
  179MOL   H25946895   4.386   3.514   7.592  0.5636  1.3646 -1.7385
  179MOL   H26046896   4.147   3.424   7.876  0.2751  3.8835  0.5130
  179MOL   H26146897   4.320   3.404   7.849 -0.1878 -0.4383  0.4898
  179MOL   H26246898   4.218   3.354   7.722  0.7191 -0.0680 -0.4768
  180MOL     C146899   4.707   7.332   7.142 -0.5601 -0.3634 -0.1868
  180MOL     C246900   4.782   7.266   7.022  0.1926  0.3427 -0.4184
  180MOL     C346901   4.748   7.272   6.893  0.3893  0.1237  0.1328
  180MOL     C446902   4.639   7.359   6.840 -0.5024 -0.1983 -0.1448
  180MOL     C546903   4.826   7.193   6.796  0.0759 -0.9835 -0.2940
  180MOL     H646904   4.601   7.325   7.116 -0.7325 -1.0189  0.6719
  180MOL     H746905   4.743   7.287   7.235  1.7656  0.6788 -0.5564
  180MOL     H846906   4.866   7.203   7.048 -0.8799  0.3330  3.1896
  180MOL     H946907   4.546   7.305   6.825  0.0605 -0.2615 -3.9080
  180MOL    H1046908   4.660   7.392   6.738 -0.3130 -0.3938 -0.1692
  180MOL    H1146909   4.609   7.436   6.910 -1.7824  0.2092 -1.1235
  180MOL    H1246910   4.926   7.170   6.832 -0.5484 -0.4315  1.9066
  180MOL    H1346911   4.828   7.266   6.715  0.2802 -0.5125  0.1253
  180MOL    H1446912   4.739   7.436   7.149 -1.8842  0.0183  0.4585
  180MOL    C1546913   4.750   7.067   6.754 -0.3896  0.4291  0.3594
  180MOL    C1646914   4.813   7.002   6.629 -0.8636  0.0236 -0.6384
  180MOL    C1746915   4.915   6.913   6.633  0.2417  0.3809 -0.5711
  180MOL    C1846916   4.984   6.864   6.758  0.2418 -0.2971 -0.3753
  180MOL    C1946917   4.983   6.856   6.511  0.1413 -0.1002 -0.0901
  180MOL    H2046918   4.642   7.079   6.744 -0.4082  0.3758  0.4885
  180MOL    H2146919   4.748   6.994   6.835  2.3462 -1.7738 -1.4401
  180MOL    H2246920   4.780   7.037   6.532 -0.1769 -0.0215 -0.8887
  180MOL    H2346921   5.007   6.758   6.749  0.8780 -0.1140 -0.9937
  180MOL    H2446922   4.919   6.891   6.841  1.2612 -0.3263  0.4271
  180MOL    H2546923   5.079   6.916   6.759  0.2045 -0.2475  0.3118
  180MOL    H2646924   4.899   6.856   6.441 -0.6674 -2.3461  0.8355
  180MOL    H2746925   5.011   6.756   6.544 -0.0300 -0.4318 -0.9377
  180MOL    C2846926   5.091   6.940   6.444 -0.1779  0.0519 -0.5420
  180MOL    C2946927   5.112   6.875   6.304 -0.7251 -0.1943  0.1378
  180MOL    C3046928   5.233   6.847   6.251  0.1182 -0.5296  0.1300
  180MOL    C3146929   5.363   6.886   6.319 -0.3286 -0.4883  0.6355
  180MOL    C3246930   5.246   6.777   6.119 -0.6759 -0.5595  0.4733
  180MOL    H3346931   5.180   6.932   6.505  0.1280 -1.0190 -1.1065
  180MOL    H3446932   5.054   7.041   6.427 -0.1194  0.5821  2.3541
  180MOL    H3546933   5.022   6.862   6.246 -0.7730 -0.1329  0.1981
  180MOL    H3646934   5.363   6.994   6.335  1.8551 -0.1551 -1.3664
  180MOL    H3746935   5.448   6.866   6.253  0.5171  2.8533  0.6152
  180MOL    H3846936   5.392   6.843   6.415 -0.5482 -2.9981 -0.4083
  180MOL    H3946937   5.149   6.737   6.089 -0.0022 -0.0352 -2.5992
  180MOL    H4046938   5.327   6.704   6.126  1.3864  1.5135 -0.9046
  180MOL    C4146939   5.281   6.876   6.000  0.1348 -0.3249 -0.4839
  180MOL    C4246940   5.271   6.811   5.858 -0.5368 -0.5060  0.4301
  180MOL    C4346941   5.150   6.784   5.803 -0.2703  0.5812  0.0215
  180MOL    C4446942   5.017   6.809   5.868  0.4497  0.6662 -0.5519
  180MOL    C4546943   5.142   6.712   5.669 -0.6782 -0.2446 -0.9176
  180MOL    H4646944   5.387   6.897   6.010 -0.2253  1.5258 -0.3169
  180MOL    H4746945   5.219   6.965   6.016 -0.5054 -0.3443 -2.6883
  180MOL    H4846946   5.357   6.786   5.798 -1.6805  0.0852 -1.4831
  180MOL    H4946947   4.981   6.708   5.886  1.5063  0.2879 -0.4885
  180MOL    H5046948   4.948   6.865   5.806  2.7974  3.6011 -0.6382
  180MOL    H5146949   5.025   6.859   5.965 -2.1963 -1.1465  0.6729
  180MOL    H5246950   5.095   6.616   5.691 -0.5731 -0.3571 -1.1842
  180MOL    H5346951   5.240   6.681   5.632 -1.2829 -1.3850 -1.6002
  180MOL    C5446952   5.063   6.796   5.569 -0.0306  0.4758 -0.4254
  180MOL    C5546953   5.060   6.739   5.425  0.0530  0.6591  0.0168
  180MOL    C5646954   4.992   6.787   5.322 -0.2779  0.7442 -0.1045
  180MOL    C5746955   4.918   6.920   5.322  0.2734 -0.1088  0.6466
  180MOL    C5846956   4.987   6.709   5.195  0.6079  1.0392  0.1525
  180MOL    H5946957   5.103   6.897   5.575  0.3314  0.1551  3.8037
  180MOL    H6046958   4.959   6.796   5.603  0.2031 -0.5058  0.3016
  180MOL    H6146959   5.113   6.645   5.417 -2.0604 -0.7420  2.0894
  180MOL    H6246960   4.949   6.983   5.405  1.8673 -0.0365  0.0232
  180MOL    H6346961   4.811   6.901   5.335  0.6417 -0.7715  2.9381
  180MOL    H6446962   4.951   6.975   5.233 -1.0599  1.3906  1.0624
  180MOL    H6546963   5.020   6.607   5.213 -0.6500 -0.0005 -3.1467
  180MOL    H6646964   5.043   6.753   5.113  0.1023  3.0402  0.8464
  180MOL    C6746965   4.845   6.679   5.138 -0.6042 -0.3369  0.0751
  180MOL    C6846966   4.859   6.583   5.021 -0.4174  0.4429  0.2420
  180MOL    C6946967   4.829   6.449   5.022  0.3939 -0.2335  0.0481
  180MOL    C7046968   4.800   6.377   5.154 -0.0861  0.1784  0.4507
  180MOL    C7146969   4.838   6.350   4.905 -0.5589  0.6337 -0.5396
  180MOL    H7246970   4.799   6.770   5.099 -1.4416 -2.0275 -3.0515
  180MOL    H7346971   4.777   6.641   5.215 -1.1601  1.2454  0.3942
  180MOL    H7446972   4.893   6.615   4.923  0.6847 -0.8007  0.1969
  180MOL    H7546973   4.728   6.433   5.213  0.8553  2.8956 -0.8860
  180MOL    H7646974   4.890   6.350   5.210  0.1435 -0.3964 -0.1978
  180MOL    H7746975   4.756   6.278   5.142  2.2144 -0.8148  0.0094
  180MOL    H7846976   4.900   6.268   4.940 -1.7007  0.1108  0.2763
  180MOL    H7946977   4.900   6.404   4.833  2.5145 -1.3883  0.4874
  180MOL    C8046978   4.710   6.308   4.856  0.4829 -0.2654 -0.2210
  180MOL    C8146979   4.721   6.190   4.766 -0.1586 -0.2701 -0.2742
  180MOL    C8246980   4.691   6.176   4.638 -0.2035  0.0133  0.0009
  180MOL    C8346981   4.633   6.293   4.561 -0.1311 -0.0627 -0.3778
  180MOL    C8446982   4.726   6.053   4.562 -0.2256  0.2812  0.4156
  180MOL    H8546983   4.660   6.399   4.823 -0.2323  1.0588  4.2092
  180MOL    H8646984   4.639   6.286   4.936 -0.4760  2.2888 -0.3154
  180MOL    H8746985   4.760   6.100   4.812  0.6128  0.4198  0.4312
  180MOL    H8846986   4.579   6.255   4.475  2.2101 -0.9537 -1.4982
  180MOL    H8946987   4.713   6.359   4.528 -0.0142  0.8850  1.6721
  180MOL    H9046988   4.563   6.346   4.626 -1.3415 -1.1864 -0.7496
  180MOL    H9146989   4.787   5.990   4.626 -1.8955 -1.2986  0.5001
  180MOL    H9246990   4.792   6.085   4.481  0.8855 -0.2208  1.1127
  180MOL    C9346991   4.609   5.971   4.532  0.3069 -0.1631 -0.3729
  180MOL    C9446992   4.633   5.854   4.442 -0.9438 -0.1211 -0.0242
  180MOL    C9546993   4.652   5.856   4.311  0.8036 -0.1659  0.0312
  180MOL    C9646994   4.650   5.988   4.231 -0.6047  0.4651 -0.4739
  180MOL    C9746995   4.658   5.724   4.230 -0.1261 -0.7502  0.4413
  180MOL    H9846996   4.539   6.038   4.483 -0.9933 -0.8104  0.5762
  180MOL    H9946997   4.553   5.947   4.622 -0.0635  1.9017 -0.0124
  180MOL   H10046998   4.630   5.758   4.492  0.8130  0.5074  1.2898
  180MOL   H10146999   4.731   6.057   4.253 -0.5420  0.3887 -0.4670
  180MOL   H10247000   4.556   6.037   4.257 -0.7085 -0.2580  0.5307
  180MOL   H10347001   4.659   5.963   4.125  2.9800 -1.4961  0.1979
  180MOL   H10447002   4.579   5.720   4.156  2.6106  0.7996 -2.7062
  180MOL   H10547003   4.627   5.647   4.301 -1.1019  1.3430  2.3610
  180MOL   C10647004   4.793   5.703   4.156 -0.5479  0.3127 -0.5913
  180MOL   C10747005   4.788   5.570   4.079  1.0397 -0.2920  0.3640
  180MOL   C10847006   4.805   5.555   3.946 -0.1172 -0.7190 -0.1205
  180MOL   C10947007   4.825   5.665   3.848 -0.3197 -0.0948 -0.5488
  180MOL   C11047008   4.802   5.413   3.895 -0.4918 -0.1222  0.2833
  180MOL   H11147009   4.880   5.714   4.221 -0.8183  2.5396 -0.5635
  180MOL   H11247010   4.799   5.789   4.090 -2.0665  0.4800 -0.5149
  180MOL   H11347011   4.774   5.484   4.143 -1.3146 -0.5533 -0.4574
  180MOL   H11447012   4.921   5.663   3.797 -0.5401 -1.1288 -0.9332
  180MOL   H11547013   4.833   5.766   3.889 -0.2477  0.9221 -2.9990
  180MOL   H11647014   4.746   5.670   3.772 -0.3708  0.2746 -0.4755
  180MOL   H11747015   4.833   5.341   3.972  2.1970 -0.4206 -0.9992
  180MOL   H11847016   4.880   5.417   3.819 -0.0588 -0.5455  0.6989
  180MOL   C11947017   4.670   5.370   3.827 -0.3495 -0.4449 -0.0750
  180MOL   C12047018   4.684   5.237   3.754 -0.5087  0.1207 -0.4988
  180MOL   C12147019   4.625   5.123   3.792 -0.5998 -0.3401 -0.0747
  180MOL   C12247020   4.549   5.094   3.923  0.0033 -0.6817  0.8560
  180MOL   C12347021   4.650   5.000   3.709  0.1224 -0.2730  0.4313
  180MOL   H12447022   4.644   5.450   3.757 -2.8004 -0.7325  0.4585
  180MOL   H12547023   4.593   5.368   3.904  0.4336  1.3678  0.7890
  180MOL   H12647024   4.747   5.240   3.666 -2.8602  0.5697 -2.1989
  180MOL   H12747025   4.593   5.035   4.003 -2.4528  0.4306  3.1010
  180MOL   H12847026   4.461   5.034   3.897 -0.0310  0.0709 -0.8135
  180MOL   H12947027   4.504   5.181   3.970 -1.0499 -0.7772  0.0508
  180MOL   H13047028   4.658   5.039   3.608 -2.3228  0.6845  0.5632
  180MOL   H13147029   4.562   4.936   3.715  0.8729 -1.4631 -1.0403
  180MOL   C13247030   4.774   4.919   3.754  0.1741  0.3930 -0.4280
  180MOL   C13347031   4.765   4.780   3.703  0.2127  0.4711  0.3366
  180MOL   C13447032   4.808   4.668   3.770 -0.0362  0.1148  0.2868
  180MOL   C13547033   4.873   4.665   3.905  0.0891 -0.0881  0.4856
  180MOL   C13647034   4.816   4.538   3.692 -0.2815  0.5884 -0.0877
  180MOL   H13747035   4.792   4.917   3.862  0.4328 -3.4204 -0.4652
  180MOL   H13847036   4.857   4.971   3.708  0.4031  1.6767  1.3911
  180MOL   H13947037   4.733   4.776   3.600  1.7049  3.0495 -0.2820
  180MOL   H14047038   4.833   4.740   3.973 -0.4056 -0.8673  1.0569
  180MOL   H14147039   4.979   4.687   3.888  0.1250 -1.1430 -0.7056
  180MOL   H14247040   4.869   4.568   3.954  0.5006 -0.8905 -1.0587
  180MOL   H14347041   4.804   4.457   3.764  0.8050 -1.5938 -2.2790
  180MOL   H14447042   4.912   4.527   3.641 -0.8971 -1.3648 -0.8696
  180MOL   C14547043   4.714   4.521   3.580 -0.1707 -0.1842  0.8683
  180MOL   C14647044   4.697   4.370   3.543  0.2907 -0.8132  0.1702
  180MOL   C14747045   4.692   4.324   3.418  0.3018  0.6212 -0.3435
  180MOL   C14847046   4.682   4.412   3.296 -0.8162 -0.0539  0.0491
  180MOL   C14947047   4.671   4.173   3.390 -0.4037  1.2516  0.3952
  180MOL   H15047048   4.740   4.585   3.495 -0.6592  0.2009  1.0043
  180MOL   H15147049   4.616   4.549   3.618  0.5089  0.8580  1.8833
  180MOL   H15247050   4.693   4.299   3.624 -1.1852  0.3299  1.1228
  180MOL   H15347051   4.631   4.372   3.208 -0.4082 -0.2550 -0.0962
  180MOL   H15447052   4.780   4.444   3.262 -1.1994 -1.8366 -2.9829
  180MOL   H15547053   4.637   4.511   3.302  0.6958  0.6226  0.2428
  180MOL   H15647054   4.704   4.119   3.479 -1.4214 -2.3550 -1.3025
  180MOL   H15747055   4.742   4.137   3.315 -1.1149  2.0091 -0.6600
  180MOL   C15847056   4.528   4.135   3.352  0.2587 -0.1454  1.0024
  180MOL   C15947057   4.499   3.989   3.343 -0.6202  0.4987  0.4427
  180MOL   C16047058   4.405   3.920   3.273  0.4179  0.2461 -0.1619
  180MOL   C16147059   4.301   3.986   3.188  0.3704 -0.2199 -0.1735
  180MOL   C16247060   4.390   3.770   3.287 -0.1833  0.8305 -0.6950
  180MOL   H16347061   4.496   4.182   3.259  0.1865 -1.8404  0.1489
  180MOL   H16447062   4.461   4.186   3.421 -0.5613  3.0659 -2.0215
  180MOL   H16547063   4.572   3.927   3.393 -2.2282 -0.0428  2.1549
  180MOL   H16647064   4.326   4.085   3.151  1.8452 -0.3127  0.5477
  180MOL   H16747065   4.213   3.994   3.252  0.4301  0.1495 -0.1356
  180MOL   H16847066   4.276   3.923   3.102 -1.1418 -0.6929  0.5863
  180MOL   H16947067   4.490   3.733   3.308 -0.9971 -1.6788 -0.9858
  180MOL   H17047068   4.368   3.721   3.192  1.0784 -0.4130 -0.3738
  180MOL   C17147069   4.297   3.749   3.408 -0.3632  0.1658 -0.3903
  180MOL   C17247070   4.287   3.601   3.449 -0.1792 -0.1150 -0.5889
  180MOL   C17347071   4.189   3.516   3.413 -0.0915  0.6451 -0.1884
  180MOL   C17447072   4.081   3.563   3.312  0.3169 -0.5105  0.0664
  180MOL   C17547073   4.186   3.369   3.459  0.6543  0.0181  0.8567
  180MOL   H17647074   4.195   3.780   3.384 -0.4726  0.2421  0.1692
  180MOL   H17747075   4.314   3.815   3.493 -1.7475 -3.1974  2.6326
  180MOL   H17847076   4.370   3.567   3.509 -0.2850  2.5938  1.1883
  180MOL   H17947077   4.024   3.648   3.348 -1.4068 -1.0606 -1.2967
  180MOL   H18047078   4.025   3.476   3.277  0.0247 -0.6099  0.7788
  180MOL   H18147079   4.134   3.589   3.221 -0.6257  1.1216 -0.0222
  180MOL   H18247080   4.097   3.353   3.520  1.2936 -2.6307  1.1671
  180MOL   H18347081   4.264   3.355   3.533  0.5164  1.0894  1.2099
  180MOL   C18447082   4.201   3.255   3.356  0.9693 -0.3886  0.3598
  180MOL   C18547083   4.335   3.250   3.296  0.4963  0.2777  0.0218
  180MOL   C18647084   4.430   3.154   3.317  1.1028  0.5915  0.2253
  180MOL   C18747085   4.418   3.031   3.407  0.1427 -0.4415  0.0828
  180MOL   C18847086   4.573   3.174   3.258  0.3278 -0.3235 -0.1864
  180MOL   H18947087   4.130   3.271   3.276 -0.3042 -1.4379  1.2588
  180MOL   H19047088   4.170   3.161   3.400  1.6901 -0.2606  1.1670
  180MOL   H19147089   4.365   3.331   3.230 -3.9776  0.7745 -1.5535
  180MOL   H19247090   4.478   2.953   3.361 -1.1282 -1.4395  0.0826
  180MOL   H19347091   4.313   3.004   3.418  0.3482 -0.5253  2.1138
  180MOL   H19447092   4.440   3.054   3.512  0.2522 -1.1942  0.2233
  180MOL   H19547093   4.567   3.213   3.157 -3.0978  2.5085  0.9876
  180MOL   H19647094   4.619   3.076   3.258  1.9121  0.3699  2.1675
  180MOL   C19747095   4.672   3.264   3.327  0.7415 -0.0301  0.1032
  180MOL   C19847096   4.790   3.300   3.237  0.0259  0.0917 -0.1683
  180MOL   C19947097   4.790   3.398   3.143  0.3523  0.1621  0.3466
  180MOL   C20047098   4.660   3.476   3.120 -0.5633 -0.0517 -0.0702
  180MOL   C20147099   4.907   3.414   3.045  0.5857 -0.1111 -0.4177
  180MOL   H20247100   4.708   3.220   3.420 -1.8970 -0.7397  0.8250
  180MOL   H20347101   4.627   3.362   3.346 -2.5840 -1.8654  2.1165
  180MOL   H20447102   4.871   3.228   3.241  1.7136  1.9714  0.5694
  180MOL   H20547103   4.570   3.418   3.138 -0.9088  0.3231 -0.5610
  180MOL   H20647104   4.667   3.514   3.018 -0.0169 -0.1202 -0.0580
  180MOL   H20747105   4.670   3.566   3.181 -1.0776  1.4315 -2.1112
  180MOL   H20847106   4.915   3.521   3.028  2.1057 -0.1219  0.1526
  180MOL   H20947107   4.902   3.373   2.944  1.6654 -0.8066 -0.2023
  180MOL   C21047108   5.040   3.347   3.087 -0.3301  0.2287  0.2333
  180MOL   C21147109   5.160   3.407   3.020 -0.6465 -0.0261 -0.0520
  180MOL   C21247110   5.261   3.331   2.975 -0.4033  0.7943 -0.5678
  180MOL   C21347111   5.283   3.183   2.990  0.3369 -0.0182  0.2210
  180MOL   C21447112   5.378   3.386   2.892  0.4993  0.2596  0.2153
  180MOL   H21547113   5.030   3.238   3.091 -1.9055  0.3780  0.5906
  180MOL   H21647114   5.066   3.373   3.189  1.1169 -1.7279  0.4171
  180MOL   H21747115   5.147   3.514   3.009 -2.6414 -0.3998 -1.8411
  180MOL   H21847116   5.337   3.130   2.911  0.2578  1.7253 -1.0362
  180MOL   H21947117   5.194   3.131   3.025 -1.8592  2.9800 -0.7326
  180MOL   H22047118   5.358   3.191   3.069 -0.6243  0.9882  1.0499
  180MOL   H22147119   5.349   3.481   2.848 -0.2434  0.2671  0.7216
  180MOL   H22247120   5.393   3.322   2.805  2.0069  0.5109  0.2700
  180MOL   C22347121   5.512   3.398   2.958 -0.3549 -0.6131 -0.5165
  180MOL   C22447122   5.613   3.483   2.866  0.1731  0.3503  0.1565
  180MOL   C22547123   5.658   3.606   2.885  0.9181  0.0464  0.0580
  180MOL   C22647124   5.644   3.670   3.019 -1.0819  0.3770 -0.2302
  180MOL   C22747125   5.718   3.693   2.774 -0.3603 -0.0886  0.1779
  180MOL   H22847126   5.558   3.302   2.978 -3.0367 -2.0131 -0.8043
  180MOL   H22947127   5.481   3.442   3.053 -1.7823 -0.8643 -0.8485
  180MOL   H23047128   5.632   3.432   2.773 -2.3839 -1.1782  0.3970
  180MOL   H23147129   5.606   3.599   3.092 -1.7196 -0.1712 -1.0732
  180MOL   H23247130   5.562   3.741   3.029 -1.0682  0.3368  0.1729
  180MOL   H23347131   5.730   3.716   3.065 -1.9119 -1.2939  3.1826
  180MOL   H23447132   5.815   3.732   2.805  0.1783 -1.0642 -0.2594
  180MOL   H23547133   5.658   3.784   2.760  1.2166  0.8627 -0.4841
  180MOL   C23647134   5.733   3.609   2.640 -1.1080  0.3023  0.0118
  180MOL   C23747135   5.793   3.692   2.531 -0.5990  0.6685 -0.5842
  180MOL   C23847136   5.771   3.700   2.396  0.5069 -0.0385  0.4944
  180MOL   C23947137   5.667   3.619   2.320  0.2211 -0.4291 -0.4190
  180MOL   C24047138   5.855   3.805   2.314 -0.1750  0.5758 -0.1555
  180MOL   H24147139   5.639   3.570   2.602 -1.5359 -1.1925  2.5280
  180MOL   H24247140   5.805   3.528   2.656  0.1902  0.9287 -2.3727
  180MOL   H24347141   5.871   3.757   2.567 -0.8136  1.3835 -1.3767
  180MOL   H24447142   5.615   3.691   2.256 -0.0499 -1.6191 -1.5672
  180MOL   H24547143   5.598   3.558   2.377 -1.7457  0.4323 -1.8197
  180MOL   H24647144   5.715   3.546   2.255 -0.2226 -2.2791  1.3099
  180MOL   H24747145   5.932   3.854   2.373 -0.2037  1.3709 -0.7810
  180MOL   H24847146   5.793   3.881   2.266  0.4325  0.3651 -1.2925
  180MOL   C24947147   5.944   3.744   2.214  0.1061  0.5899  0.1821
  180MOL   C25047148   6.021   3.851   2.144  0.5748  0.1097  0.2350
  180MOL   C25147149   6.146   3.891   2.158  0.4753 -0.6573 -0.5218
  180MOL   C25247150   6.224   3.846   2.285 -0.5366  0.7387  0.5416
  180MOL   C25347151   6.225   3.989   2.077  0.0607 -0.6829 -0.3366
  180MOL   H25447152   5.903   3.674   2.141  0.5590 -0.0233  0.5104
  180MOL   H25547153   6.014   3.675   2.262  0.2184  1.7891  1.7876
  180MOL   H25647154   5.965   3.883   2.057  0.6302  0.0299  0.1699
  180MOL   H25747155   6.267   3.923   2.349  1.6182  0.6847 -0.7975
  180MOL   H25847156   6.317   3.800   2.250 -1.3724 -1.2301  0.8445
  180MOL   H25947157   6.173   3.775   2.351  0.8855 -0.0990  0.7640
  180MOL   H26047158   6.261   4.074   2.134 -1.4856  0.3570 -0.8981
  180MOL   H26147159   6.152   4.032   2.008  0.3893  1.8471  0.8333
  180MOL   H26247160   6.315   3.944   2.034 -0.0432 -1.2272  0.0186
  181MOL     C147161   4.106   6.054   2.350 -0.2873 -0.0871  0.5576
  181MOL     C247162   4.196   6.178   2.343 -0.2102  0.2013  0.9893
  181MOL     C347163   4.310   6.176   2.274 -1.1634 -0.5863 -0.5570
  181MOL     C447164   4.374   6.059   2.201 -0.4015 -0.1913 -0.0561
  181MOL     C547165   4.391   6.302   2.270  0.0251  0.1718  0.0921
  181MOL     H647166   4.007   6.086   2.318  0.8018  0.5507 -2.2450
  181MOL     H747167   4.133   5.963   2.296 -0.1595  0.6246 -0.5793
  181MOL     H847168   4.157   6.266   2.391  0.7815 -0.3599  2.8656
  181MOL     H947169   4.417   5.984   2.267  1.5714 -0.6437 -1.8144
  181MOL    H1047170   4.444   6.102   2.130  1.1455 -1.7038  0.5199
  181MOL    H1147171   4.302   6.013   2.134 -2.4971  1.3912  1.0403
  181MOL    H1247172   4.492   6.280   2.302  0.0042 -0.0825 -0.0184
  181MOL    H1347173   4.359   6.377   2.342 -0.7324  0.1090 -0.1657
  181MOL    H1447174   4.109   6.031   2.457 -2.2478  0.3492  0.7301
  181MOL    C1547175   4.390   6.375   2.133 -0.1272 -0.4373  0.0650
  181MOL    C1647176   4.432   6.517   2.140  0.0150  0.2994 -0.0762
  181MOL    C1747177   4.457   6.594   2.035  0.0662  0.2885 -0.1533
  181MOL    C1847178   4.427   6.544   1.895 -0.4134  1.0534 -0.0908
  181MOL    C1947179   4.497   6.740   2.053  1.1631 -0.2675  0.1044
  181MOL    H2047180   4.295   6.373   2.080  0.2852  0.8232 -0.7543
  181MOL    H2147181   4.465   6.335   2.064  0.8270  2.2067 -0.5009
  181MOL    H2247182   4.427   6.565   2.237  2.0621  2.6348 -1.0879
  181MOL    H2347183   4.320   6.552   1.882 -0.1841  1.2510 -1.8648
  181MOL    H2447184   4.460   6.440   1.896  0.0629  1.1618  3.0351
  181MOL    H2547185   4.469   6.599   1.811 -0.3577  0.1175 -0.6835
  181MOL    H2647186   4.582   6.763   1.989  3.0253 -1.2611  2.1435
  181MOL    H2747187   4.544   6.754   2.150 -1.3936  2.0418  1.0823
  181MOL    C2847188   4.379   6.841   2.038 -0.2879  0.5384 -0.2930
  181MOL    C2947189   4.410   6.982   2.076 -0.8427  0.6326 -0.0811
  181MOL    C3047190   4.337   7.069   2.148 -0.4389 -0.2577 -0.0731
  181MOL    C3147191   4.208   7.042   2.210  1.1417  0.4232 -0.2160
  181MOL    C3247192   4.386   7.218   2.156 -0.2512  0.2524 -0.1805
  181MOL    H3347193   4.305   6.797   2.106  1.9296 -2.3798  0.3435
  181MOL    H3447194   4.330   6.830   1.941 -2.0157 -0.8903  0.7042
  181MOL    H3547195   4.506   7.022   2.047  1.4057 -3.4788  1.2421
  181MOL    H3647196   4.212   7.060   2.318  3.1454 -1.8581  0.1433
  181MOL    H3747197   4.161   6.944   2.204 -4.4984  2.8829  0.8096
  181MOL    H3847198   4.134   7.108   2.166  1.5987  1.6391  0.7981
  181MOL    H3947199   4.489   7.207   2.122  0.2493  0.0269  1.3357
  181MOL    H4047200   4.391   7.247   2.261 -2.1479 -0.0462  0.0213
  181MOL    C4147201   4.306   7.328   2.072 -0.0889  0.1919 -0.4566
  181MOL    C4247202   4.307   7.462   2.146  0.9076  0.3642  0.2654
  181MOL    C4347203   4.210   7.559   2.144 -0.0843 -0.3628 -0.6863
  181MOL    C4447204   4.081   7.551   2.070  0.3287  0.2760  0.0504
  181MOL    C4547205   4.234   7.686   2.227 -0.3815  0.3843 -0.2156
  181MOL    H4647206   4.206   7.290   2.053 -0.1226 -0.4746  1.0175
  181MOL    H4747207   4.352   7.363   1.979  3.1272  0.4761  1.1499
  181MOL    H4847208   4.400   7.479   2.199  0.3348 -0.4302  1.5440
  181MOL    H4947209   4.010   7.528   2.150 -0.3832  3.0664  0.2533
  181MOL    H5047210   4.087   7.464   2.005  1.0195 -0.4558  1.0677
  181MOL    H5147211   4.074   7.648   2.021  2.0073  1.2811  1.7084
  181MOL    H5247212   4.228   7.652   2.330 -0.2073  0.6662 -0.1147
  181MOL    H5347213   4.146   7.750   2.216 -1.2913 -0.5735  1.2545
  181MOL    C5447214   4.357   7.770   2.193 -0.4462 -0.2803  0.0028
  181MOL    C5547215   4.348   0.022   2.258 -0.0220 -0.5055 -0.5016
  181MOL    C5647216   4.383   0.055   2.387  0.6590  0.3361 -0.1249
  181MOL    C5747217   4.440   7.832   2.489 -0.7484  0.1236 -0.0112
  181MOL    C5847218   4.360   0.188   2.449  0.1565  0.4044  0.4371
  181MOL    H5947219   4.352   7.784   2.085 -1.6543 -0.1792  0.0618
  181MOL    H6047220   4.449   7.718   2.219 -1.3681 -2.0786 -0.2493
  181MOL    H6147221   4.306   0.095   2.191  0.6904  0.3079 -0.0716
  181MOL    H6247222   4.483   7.741   2.447  1.8129  0.6721  1.3176
  181MOL    H6347223   4.380   7.797   2.572 -0.3282 -0.8304 -0.0913
  181MOL    H6447224   4.517   0.003   2.544 -0.7513 -0.2023  0.3078
  181MOL    H6547225   4.314   0.250   2.372  2.0031  2.6744  1.0896
  181MOL    H6647226   4.460   0.230   2.462  0.9105 -0.3284 -2.6277
  181MOL    C6747227   4.277   0.171   2.570 -0.0648  0.4794 -0.2433
  181MOL    C6847228   4.136   0.132   2.548  0.3679 -0.1937 -0.3227
  181MOL    C6947229   4.064   0.058   2.642 -0.4122  0.3331  0.5552
  181MOL    C7047230   4.121   0.017   2.780 -0.1746  0.1175  0.5652
  181MOL    C7147231   3.920   0.014   2.618  0.0531  0.4490  0.2491
  181MOL    H7247232   4.264   0.276   2.597 -0.5696  0.6449 -1.1114
  181MOL    H7347233   4.315   0.123   2.660  0.5523 -1.6221 -1.5961
  181MOL    H7447234   4.096   0.162   2.452 -0.5744 -0.5459 -0.0438
  181MOL    H7547235   4.197   7.823   2.769 -1.0484 -0.5985 -0.6341
  181MOL    H7647236   4.049   7.853   2.847 -1.5837 -0.0029 -0.9943
  181MOL    H7747237   4.184   0.097   2.819  2.8201 -1.8252 -0.1334
  181MOL    H7847238   3.891   0.068   2.528 -2.3851 -1.0251  0.1087
  181MOL    H7947239   3.862   0.056   2.701 -0.0105  0.1441  0.3620
  181MOL    C8047240   3.907   7.750   2.606  0.0810  0.0311 -0.0506
  181MOL    C8147241   3.772   7.707   2.545 -1.0522  0.1368 -0.4712
  181MOL    C8247242   3.667   7.646   2.605 -0.1074 -0.0005 -0.3768
  181MOL    C8347243   3.665   7.609   2.755 -0.2699 -0.4346  0.8091
  181MOL    C8447244   3.535   7.609   2.546 -0.2583  0.4369  0.3835
  181MOL    H8547245   3.911   7.698   2.702 -2.6009 -0.0342  0.0540
  181MOL    H8647246   3.993   7.715   2.549 -0.9108  2.0670 -2.9047
  181MOL    H8747247   3.749   7.738   2.444  0.1911 -0.6077 -0.9933
  181MOL    H8847248   3.710   7.510   2.770  0.3821 -0.2580  0.0718
  181MOL    H8947249   3.564   7.622   2.793 -0.7783  1.6516 -1.1186
  181MOL    H9047250   3.718   7.691   2.803 -1.0282  1.1163 -0.9101
  181MOL    H9147251   3.466   7.674   2.599 -2.1979 -1.8043  0.6847
  181MOL    H9247252   3.502   7.507   2.568 -4.1762  2.0541  2.4655
  181MOL    C9347253   3.509   7.635   2.399  0.6963 -0.0429 -0.3016
  181MOL    C9447254   3.363   7.598   2.380  0.4225  0.4550 -0.1163
  181MOL    C9547255   3.265   7.662   2.309 -0.4988 -0.2096 -0.2694
  181MOL    C9647256   3.278   7.795   2.243  0.0289  0.1257 -0.1664
  181MOL    C9747257   3.120   7.604   2.300 -0.5672  0.3401  0.2356
  181MOL    H9847258   3.570   7.574   2.331  2.2116 -1.6850  2.4419
  181MOL    H9947259   3.511   7.741   2.376 -0.5888  0.0291 -0.0773
  181MOL   H10047260   3.336   7.505   2.427  2.8344  0.6999  1.8559
  181MOL   H10147261   3.248   7.774   2.141 -3.4530  1.4727  0.5251
  181MOL   H10247262   3.382   7.821   2.222  0.2725  0.5956  1.5224
  181MOL   H10347263   3.209   7.871   2.279  0.6450  1.0779 -0.9747
  181MOL   H10447264   3.114   7.497   2.323  0.5173 -0.5450 -3.3033
  181MOL   H10547265   3.064   7.628   2.210 -0.1438  1.0715  0.1631
  181MOL   C10647266   3.040   7.676   2.415  0.3552 -0.0748  0.4121
  181MOL   C10747267   2.891   7.640   2.418 -0.0231  0.6596 -0.2016
  181MOL   C10847268   2.826   7.586   2.523  0.1786 -0.3871 -0.4832
  181MOL   C10947269   2.900   7.533   2.656 -0.2454  0.1500 -0.2162
  181MOL   C11047270   2.674   7.559   2.523  0.0296  0.2207  0.5550
  181MOL   H11147271   3.054   7.783   2.400  1.2163 -0.2527 -0.0828
  181MOL   H11247272   3.084   7.658   2.513 -1.3459 -2.1048  0.8443
  181MOL   H11347273   2.827   7.679   2.340 -0.4686  1.3580  0.4965
  181MOL   H11447274   3.008   7.536   2.662 -0.3818  0.9455  2.2568
  181MOL   H11547275   2.882   7.426   2.671  0.6184  0.1659  0.9520
  181MOL   H11647276   2.874   7.591   2.744 -2.0016 -0.5309 -0.2668
  181MOL   H11747277   2.646   7.454   2.530  1.5727 -0.4088 -1.8780
  181MOL   H11847278   2.636   7.585   2.424  0.5708 -0.6607  0.1086
  181MOL   C11947279   2.613   7.646   2.637  0.7893 -0.3865  0.4553
  181MOL   C12047280   2.613   7.793   2.614  0.2106  0.9107 -1.0583
  181MOL   C12147281   2.495   7.864   2.624  0.3078  0.8295  0.3022
  181MOL   C12247282   2.357   7.815   2.661 -0.7902  0.1298  0.1037
  181MOL   C12347283   2.496   0.129   2.588  0.0358 -0.2978 -0.5760
  181MOL   H12447284   2.674   7.625   2.725 -0.4477 -0.2099  1.3712
  181MOL   H12547285   2.513   7.604   2.648 -0.0212  1.2288 -0.4824
  181MOL   H12647286   2.707   7.844   2.599  1.5472 -0.3306  2.6391
  181MOL   H12747287   2.307   7.780   2.571 -0.5442 -1.4476  0.5733
  181MOL   H12847288   2.306   0.019   2.703 -1.8292 -1.1936  1.6465
  181MOL   H12947289   2.363   7.741   2.741 -0.3576 -2.0572 -1.9096
  181MOL   H13047290   2.413   0.134   2.518 -2.1063 -0.9880  1.8284
  181MOL   H13147291   2.587   0.148   2.531  0.3756  1.2608  0.4795
  181MOL   C13247292   2.478   0.230   2.709 -0.4153  0.7081 -0.2761
  181MOL   C13347293   2.499   0.379   2.665 -0.1743 -0.2682 -0.6129
  181MOL   C13447294   2.466   0.489   2.733 -0.1376 -0.6015  0.1363
  181MOL   C13547295   2.425   0.494   2.875 -0.0180  0.1086 -0.0699
  181MOL   C13647296   2.493   0.622   2.668 -0.2351 -0.0867 -0.1716
  181MOL   H13747297   2.557   0.213   2.782 -0.2970  2.2508 -0.0348
  181MOL   H13847298   2.386   0.224   2.766 -0.1521  2.4842  0.3530
  181MOL   H13947299   2.550   0.379   2.570 -1.0784 -3.0960 -1.1736
  181MOL   H14047300   2.481   0.569   2.931 -0.5836  2.1235 -2.1471
  181MOL   H14147301   2.424   0.404   2.937  0.8150 -0.0848 -0.3353
  181MOL   H14247302   2.321   0.526   2.871  0.1739  0.9687  1.5474
  181MOL   H14347303   2.590   0.659   2.702 -0.4606  2.0161 -1.6984
  181MOL   H14447304   2.411   0.686   2.699  0.7143  0.3236  1.5370
  181MOL   C14547305   2.513   0.620   2.514  0.3884  0.6685 -0.1402
  181MOL   C14647306   2.505   0.753   2.444  0.1577 -0.1736  0.2800
  181MOL   C14747307   2.602   0.820   2.376 -0.9221  0.2271  0.1617
  181MOL   C14847308   2.744   0.767   2.355  0.5085 -0.1525 -0.1192
  181MOL   C14947309   2.575   0.954   2.315 -0.2062  0.2511 -0.2329
  181MOL   H15047310   2.437   0.559   2.466  2.1994 -0.3704 -1.7262
  181MOL   H15147311   2.612   0.581   2.490 -0.6336 -0.1950 -3.1708
  181MOL   H15247312   2.413   0.807   2.460 -1.0898 -2.7173  2.0968
  181MOL   H15347313   2.761   0.762   2.248  4.1170  2.5831  0.2336
  181MOL   H15447314   2.772   0.671   2.400 -0.6317 -0.4278  0.0158
  181MOL   H15547315   2.814   0.843   2.390 -2.6423  2.3077  1.0965
  181MOL   H15647316   2.652   1.027   2.341 -0.9443  1.1164 -0.4484
  181MOL   H15747317   2.484   1.001   2.352  0.8347  1.2516  1.0965
  181MOL   C15847318   2.555   0.960   2.159 -0.2060 -0.0086  0.4270
  181MOL   C15947319   2.580   1.095   2.101  0.4666 -1.1037  0.0945
  181MOL   C16047320   2.491   1.172   2.035 -0.3358 -0.5615  0.1795
  181MOL   C16147321   2.347   1.137   2.007  0.6635 -0.0474 -0.1952
  181MOL   C16247322   2.543   1.298   1.973 -0.6527 -0.2065 -0.2381
  181MOL   H16347323   2.464   0.911   2.126 -0.3533  1.1870 -0.9935
  181MOL   H16447324   2.641   0.913   2.113  0.1326  0.8402  0.1780
  181MOL   H16547325   2.685   1.114   2.120  0.5754 -1.5013 -0.1049
  181MOL   H16647326   2.295   1.131   2.102  2.5290 -2.3292  0.7199
  181MOL   H16747327   2.345   1.044   1.950 -0.3737 -0.3952  0.4015
  181MOL   H16847328   2.290   1.205   1.943  2.4639  0.3440 -1.4171
  181MOL   H16947329   2.487   1.380   2.018 -2.0095 -1.1156 -0.2377
  181MOL   H17047330   2.500   1.290   1.873 -0.3100 -2.1974 -0.2300
  181MOL   C17147331   2.701   1.316   1.983  0.6140 -0.3709  0.4903
  181MOL   C17247332   2.747   1.451   1.929 -0.7471  0.2957 -0.9316
  181MOL   C17347333   2.840   1.464   1.835 -0.7643 -0.3940  0.7379
  181MOL   C17447334   2.885   1.350   1.749 -0.2215  0.0220  0.8063
  181MOL   C17547335   2.887   1.602   1.785 -0.1815  0.7838  0.2188
  181MOL   H17647336   2.753   1.235   1.932  0.5745  0.1774 -0.4231
  181MOL   H17747337   2.734   1.317   2.087  0.2623  2.6713  0.6355
  181MOL   H17847338   2.740   1.541   1.988  1.6107  1.0992 -1.8097
  181MOL   H17947339   2.973   1.379   1.691 -1.2404  0.6009 -0.4975
  181MOL   H18047340   2.800   1.340   1.681  0.8909  0.5510 -0.6793
  181MOL   H18147341   2.898   1.256   1.802  1.1379 -0.8699 -1.0618
  181MOL   H18247342   2.818   1.671   1.833  0.4522  1.6676 -0.1423
  181MOL   H18347343   2.872   1.607   1.678  0.9624  2.1356  0.1216
  181MOL   C18447344   3.032   1.640   1.830  0.1333  1.0278  0.0027
  181MOL   C18547345   3.064   1.604   1.971  0.9380 -0.6818  0.4099
  181MOL   C18647346   3.092   1.687   2.078  0.0664 -0.6706  0.2686
  181MOL   C18747347   3.106   1.838   2.068  0.1842  0.4322  0.2210
  181MOL   C18847348   3.115   1.632   2.218 -0.3491 -0.2249  0.3959
  181MOL   H18947349   3.050   1.748   1.824 -1.3619  1.2532 -0.7660
  181MOL   H19047350   3.101   1.586   1.765 -0.3151  0.8363 -0.3160
  181MOL   H19147351   3.070   1.498   1.987 -0.5041 -1.2406 -2.5080
  181MOL   H19247352   3.041   1.873   1.988  0.0978 -2.3888 -1.0091
  181MOL   H19347353   3.208   1.872   2.048 -0.3493  1.1755 -1.3050
  181MOL   H19447354   3.076   1.885   2.162 -0.7292  1.3530 -0.5180
  181MOL   H19547355   3.100   1.524   2.217  2.4897 -0.6749  0.8178
  181MOL   H19647356   3.041   1.677   2.285 -1.0879  0.0917 -0.6189
  181MOL   C19747357   3.268   1.650   2.259  0.4200  0.1607  0.6043
  181MOL   C19847358   3.306   1.586   2.384 -0.8019  0.3005 -0.0937
  181MOL   C19947359   3.399   1.489   2.402 -0.2394  0.1449  0.1902
  181MOL   C20047360   3.469   1.427   2.282  0.4886  0.6604 -1.0047
  181MOL   C20147361   3.436   1.432   2.543  0.4966 -0.3293  0.7945
  181MOL   H20247362   3.291   1.756   2.270  1.9250 -0.2334  1.2649
  181MOL   H20347363   3.322   1.617   2.170 -0.3073  0.7338 -0.0618
  181MOL   H20447364   3.258   1.624   2.472 -0.6031 -1.5695  0.8557
  181MOL   H20547365   3.485   1.510   2.214 -1.5514  2.7053  0.9049
  181MOL   H20647366   3.415   1.341   2.243 -1.3720  1.0276  0.6589
  181MOL   H20747367   3.572   1.394   2.294  0.0813  0.6122  3.0851
  181MOL   H20847368   3.390   1.503   2.612 -2.1842 -0.7944 -0.4745
  181MOL   H20947369   3.545   1.439   2.544  0.3740  2.0585  0.4267
  181MOL   C21047370   3.383   1.293   2.566 -0.4365 -0.3545 -0.2377
  181MOL   C21147371   3.227   1.288   2.563 -0.1892 -0.1218 -0.2194
  181MOL   C21247372   3.147   1.209   2.487 -0.2450 -0.3396 -0.3104
  181MOL   C21347373   3.193   1.112   2.378  0.0227 -0.2112  0.6132
  181MOL   C21447374   2.999   1.219   2.511  0.0342 -0.6092  0.4517
  181MOL   H21547375   3.430   1.255   2.656  0.5393  1.4487  0.0378
  181MOL   H21647376   3.414   1.233   2.480 -1.6545 -1.8638  0.3426
  181MOL   H21747377   3.174   1.353   2.631  2.4676 -0.1409  1.9637
  181MOL   H21847378   3.200   1.009   2.413  0.2717 -0.2364  0.4941
  181MOL   H21947379   3.292   1.124   2.332  1.0709  1.3787  3.1544
  181MOL   H22047380   3.125   1.097   2.294 -1.8010 -1.2773  2.2371
  181MOL   H22147381   2.974   1.226   2.617  0.5235  2.5151  0.4188
  181MOL   H22247382   2.949   1.127   2.481  0.1719 -1.1796  1.9476
  181MOL   C22347383   2.934   1.336   2.435  0.3881  0.1385  0.0929
  181MOL   C22447384   2.789   1.322   2.390  0.2072 -0.3581  0.6352
  181MOL   C22547385   2.699   1.422   2.383  0.1002  0.0266  0.6905
  181MOL   C22647386   2.743   1.567   2.394  0.5101 -0.3362 -0.7214
  181MOL   C22747387   2.556   1.392   2.343  0.2982 -0.8705 -0.5818
  181MOL   H22847388   2.986   1.354   2.341 -0.9767  1.4731 -0.4216
  181MOL   H22947389   2.942   1.432   2.485  0.0849  0.8441 -1.1851
  181MOL   H23047390   2.761   1.219   2.376  1.1977 -0.7984  1.8467
  181MOL   H23147391   2.780   1.594   2.493  1.6697 -0.3866 -1.1333
  181MOL   H23247392   2.657   1.633   2.380 -0.5062 -1.3135  0.7846
  181MOL   H23347393   2.815   1.599   2.319  2.3095 -1.8591  0.3004
  181MOL   H23447394   2.555   1.284   2.332  2.0965 -1.1457  1.5053
  181MOL   H23547395   2.533   1.443   2.250  2.6424 -0.4622 -0.9699
  181MOL   C23647396   2.444   1.422   2.447 -0.4942  0.3981  0.2456
  181MOL   C23747397   2.308   1.368   2.422 -0.4640  0.2318  0.6426
  181MOL   C23847398   2.230   1.311   2.517 -0.2169 -0.2603  0.9165
  181MOL   C23947399   2.260   1.316   2.664 -0.1203  0.4160 -0.0374
  181MOL   C24047400   2.104   1.243   2.477  0.5603  0.0899 -0.1823
  181MOL   H24147401   2.436   1.531   2.445  2.5591  0.6723 -1.9924
  181MOL   H24247402   2.479   1.391   2.545 -0.7445 -2.9929 -0.6651
  181MOL   H24347403   2.273   1.376   2.321  1.5799  1.7725  0.0219
  181MOL   H24447404   2.290   1.416   2.696 -2.4340  0.5773  1.7863
  181MOL   H24547405   2.340   1.247   2.689 -0.6288  0.6671  2.4807
  181MOL   H24647406   2.169   1.288   2.719 -0.5892  0.1832 -0.9315
  181MOL   H24747407   2.060   1.277   2.383  1.1752 -1.7530 -1.1690
  181MOL   H24847408   2.032   1.261   2.557  0.9644  2.1384 -0.2498
  181MOL   C24947409   2.129   1.096   2.475  0.2305  0.0842  0.4932
  181MOL   C25047410   2.015   1.022   2.418  0.1943  0.5507  0.6931
  181MOL   C25147411   2.026   0.899   2.365 -0.1316  0.4672 -0.0858
  181MOL   C25247412   2.157   0.816   2.367 -0.3611  0.1726  0.1341
  181MOL   C25347413   1.899   0.833   2.312  0.1643 -0.5289  0.2801
  181MOL   H25447414   2.166   1.051   2.567  0.2390  3.6074  2.2761
  181MOL   H25547415   2.218   1.095   2.413  0.3230 -1.6962  0.6333
  181MOL   H25647416   1.921   1.074   2.430 -0.1502 -0.2899  1.6380
  181MOL   H25747417   2.131   0.727   2.424 -1.6317  0.6524  0.3208
  181MOL   H25847418   2.233   0.878   2.415  1.5786 -0.7707 -1.6475
  181MOL   H25947419   2.196   0.773   2.275  1.3227 -4.3712  2.8279
  181MOL   H26047420   1.922   0.768   2.228  1.6026  0.3259 -0.0132
  181MOL   H26147421   1.841   0.916   2.273 -1.3275 -1.2928  0.8412
  181MOL   H26247422   1.836   0.787   2.388 -0.5057  0.0656  0.0847
  182MOL     C147423   2.373   0.042   5.056  0.1054  0.1266 -0.3385
  182MOL     C247424   2.229   0.092   5.070  0.0629 -0.2572 -0.3095
  182MOL     C347425   2.167   0.156   5.169  0.3096 -0.0889 -0.6333
  182MOL     C447426   2.240   0.194   5.298 -0.3059 -0.0411  0.3909
  182MOL     C547427   2.021   0.208   5.162 -0.1557 -0.5302  0.5548
  182MOL     H647428   2.422   0.028   5.153 -0.0514  1.1779 -0.0968
  182MOL     H747429   2.370   7.833   4.998 -0.8406  0.7622 -1.2992
  182MOL     H847430   2.168   0.085   4.980  0.2142 -0.8196 -0.3718
  182MOL     H947431   2.215   0.290   5.342  1.6009  0.7168 -0.1210
  182MOL    H1047432   2.347   0.204   5.281  0.3453 -4.3336  1.3689
  182MOL    H1147433   2.226   0.125   5.381  1.3293 -0.3644  0.4141
  182MOL    H1247434   1.994   0.173   5.062  0.0138  0.8875  0.0032
  182MOL    H1347435   2.035   0.315   5.176  1.6264 -0.7022  0.2761
  182MOL    H1447436   2.436   0.104   4.992  0.0110  1.1461  0.5499
  182MOL    C1547437   1.923   0.162   5.272  0.7497  0.6684  0.2652
  182MOL    C1647438   1.781   0.209   5.251 -0.2017 -0.4879 -0.1389
  182MOL    C1747439   1.665   0.145   5.270 -0.1972  0.3673 -0.1396
  182MOL    C1847440   1.649   7.876   5.285  0.1940 -0.1147  0.3067
  182MOL    C1947441   1.536   0.214   5.268 -0.1555 -0.8253  0.2758
  182MOL    H2047442   1.958   0.196   5.370  3.1572 -1.8363  0.3459
  182MOL    H2147443   1.932   0.055   5.289  3.0420  0.7129 -0.4894
  182MOL    H2247444   1.782   0.316   5.239  2.5137 -0.0024  3.5153
  182MOL    H2347445   1.734   7.833   5.339  0.7296 -0.1394 -0.5541
  182MOL    H2447446   1.639   7.823   5.190 -0.3832  0.0377  0.2800
  182MOL    H2547447   1.562   7.853   5.347  1.2378 -0.6226  1.6242
  182MOL    H2647448   1.551   0.322   5.259 -2.4390 -0.2642  2.5518
  182MOL    H2747449   1.485   0.206   5.364  1.3557 -2.1408  0.9912
  182MOL    C2847450   1.446   0.178   5.153 -0.2193 -0.4630 -0.0877
  182MOL    C2947451   1.316   0.267   5.133 -1.0560 -0.5742  0.6193
  182MOL    C3047452   1.196   0.254   5.185  0.7502 -0.0096 -0.1640
  182MOL    C3147453   1.171   0.158   5.300 -0.1200  0.1432 -0.4874
  182MOL    C3247454   1.066   0.330   5.137  0.2038  0.2965 -0.3989
  182MOL    H3347455   1.422   0.073   5.166  2.1236 -1.0538 -0.2127
  182MOL    H3447456   1.495   0.181   5.056  0.4739 -1.6546  0.2243
  182MOL    H3547457   1.332   0.352   5.068  0.1422  0.4080  2.1406
  182MOL    H3647458   1.101   0.085   5.260 -1.9051  1.6546 -0.1981
  182MOL    H3747459   1.131   0.205   5.390 -0.3617  0.6177 -0.8387
  182MOL    H3847460   1.254   0.093   5.327 -0.9101  0.4292  2.8272
  182MOL    H3947461   1.089   0.384   5.045 -1.0751 -0.1613 -0.9992
  182MOL    H4047462   1.048   0.402   5.216  0.7765  0.2284 -0.2005
  182MOL    C4147463   0.929   0.246   5.119 -0.5108 -0.0425 -0.9326
  182MOL    C4247464   0.834   0.339   5.049  0.8600 -0.4177 -0.3440
  182MOL    C4347465   0.696   0.322   5.037 -0.1784  0.3659  0.0702
  182MOL    C4447466   0.623   0.208   5.105  0.0458  0.4166  0.1435
  182MOL    C4547467   0.609   0.409   4.945  0.4817  0.4936 -0.2372
  182MOL    H4647468   0.888   0.218   5.217 -0.4249  4.3371  0.4689
  182MOL    H4747469   0.949   0.160   5.056  2.4409  1.6611 -2.4283
  182MOL    H4847470   0.878   0.424   5.000  2.2321 -1.6849 -1.3430
  182MOL    H4947471   0.664   0.199   5.205  4.8098 -1.2273 -1.8520
  182MOL    H5047472   0.642   0.111   5.060 -1.4212  1.1817 -2.2348
  182MOL    H5147473   0.517   0.230   5.118  0.1123  0.4545  0.6167
  182MOL    H5247474   0.543   0.335   4.900 -0.6132  0.1812  1.7938
  182MOL    H5347475   0.670   0.441   4.861  0.7315 -0.8464 -0.5743
  182MOL    C5447476   0.546   0.527   5.019 -0.0668 -0.2974 -0.3851
  182MOL    C5547477   0.421   0.593   4.949 -0.5977  0.2972 -0.5584
  182MOL    C5647478   0.418   0.708   4.884 -0.3700  0.0640 -0.8496
  182MOL    C5747479   0.538   0.800   4.861  0.0307 -0.0721 -0.2378
  182MOL    C5847480   0.294   0.757   4.826  0.1687 -0.1013  0.2009
  182MOL    H5947481   0.631   0.591   5.043 -0.5007  0.1719 -0.0970
  182MOL    H6047482   0.508   0.486   5.112 -3.9145  0.8363 -1.3388
  182MOL    H6147483   0.333   0.532   4.965  0.2505 -0.7220  0.3193
  182MOL    H6247484   0.623   0.743   4.822  0.7901  1.3956 -0.7594
  182MOL    H6347485   0.567   0.863   4.945 -1.0637  1.0137 -0.6718
  182MOL    H6447486   0.514   0.868   4.779  1.1566 -2.0282 -2.2519
  182MOL    H6547487   0.228   0.670   4.825 -1.2469  0.9378  1.2152
  182MOL    H6647488   0.314   0.785   4.722  0.9219  1.1021  0.6709
  182MOL    C6747489   0.223   0.864   4.899 -0.2369  0.0790 -0.6892
  182MOL    C6847490   0.109   0.919   4.811  0.2480 -0.7660 -0.1639
  182MOL    C6947491   0.092   1.041   4.760  0.2294  0.3780 -0.8095
  182MOL    C7047492   0.189   1.155   4.782  0.6488  0.2560 -0.6894
  182MOL    C7147493   7.839   1.082   4.698  0.8714 -0.2977 -0.4923
  182MOL    H7247494   0.296   0.944   4.915 -1.9575  1.9212 -1.7383
  182MOL    H7347495   0.199   0.834   5.001  1.0505 -0.6834 -0.5923
  182MOL    H7447496   0.031   0.846   4.798 -1.3192  0.1719  3.5144
  182MOL    H7547497   0.224   1.188   4.684  2.2691  0.9629  0.1054
  182MOL    H7647498   0.287   1.134   4.825 -0.2259 -1.8070  0.3551
  182MOL    H7747499   0.144   1.243   4.829  2.0435  0.7716 -0.2744
  182MOL    H7847500   7.769   0.998   4.692 -0.3601  0.5870  1.1179
  182MOL    H7947501   7.853   1.098   4.591 -0.5076 -0.3949 -0.6917
  182MOL    C8047502   7.767   1.207   4.760  1.0732 -0.0405  0.3220
  182MOL    C8147503   7.761   1.215   4.918  0.7500  0.4230  0.2307
  182MOL    C8247504   7.648   1.234   4.986 -0.2975  0.7140  0.7877
  182MOL    C8347505   7.510   1.270   4.938  0.0412 -0.1653 -0.2569
  182MOL    C8447506   7.664   1.216   5.134  0.0539  0.6348  0.5232
  182MOL    H8547507   7.663   1.205   4.726  0.7342  0.6556  1.3067
  182MOL    H8647508   7.808   1.298   4.717 -2.5375  0.7649 -1.6122
  182MOL    H8747509   7.856   1.199   4.967  0.8015 -0.1934 -0.0640
  182MOL    H8847510   7.503   1.378   4.925  3.0360  0.0995 -0.0319
  182MOL    H8947511   7.424   1.245   5.000 -0.6235  2.3655 -0.0863
  182MOL    H9047512   7.488   1.222   4.843 -0.2668 -0.7524  0.1057
  182MOL    H9147513   7.632   1.302   5.192 -1.2861  1.4224 -1.3350
  182MOL    H9247514   7.771   1.204   5.156 -0.0456  0.2969  0.8340
  182MOL    C9347515   7.594   1.094   5.191  0.8103  0.1546  0.1179
  182MOL    C9447516   7.642   0.966   5.122 -0.7382 -0.0496  0.2157
  182MOL    C9547517   7.604   0.838   5.155  0.7870 -0.6875 -0.3312
  182MOL    C9647518   7.517   0.810   5.272 -0.2427  0.3357  0.4001
  182MOL    C9747519   7.648   0.714   5.083  0.4523 -0.0392  0.5529
  182MOL    H9847520   7.487   1.103   5.175  0.7647 -0.3829  0.1041
  182MOL    H9947521   7.611   1.090   5.299 -0.6118 -2.7851  0.2807
  182MOL   H10047522   7.704   0.975   5.035 -1.4853 -1.8447 -0.5291
  182MOL   H10147523   7.500   0.900   5.332 -0.3344 -0.5681  1.7471
  182MOL   H10247524   7.566   0.748   5.348  0.6186 -0.3363 -0.6868
  182MOL   H10347525   7.419   0.769   5.249 -0.6429  0.4506  1.8268
  182MOL   H10447526   7.680   0.744   4.984 -0.2640  0.6605  0.5294
  182MOL   H10547527   7.557   0.660   5.059  0.1191  0.4335  0.7371
  182MOL   C10647528   7.750   0.630   5.158  0.6638 -0.2762 -0.5040
  182MOL   C10747529   7.807   0.507   5.079  0.0009  0.3457  0.4244
  182MOL   C10847530   7.863   0.394   5.133 -0.2621  0.6226 -0.4413
  182MOL   C10947531   7.866   0.368   5.284  0.1958  0.6663  0.8943
  182MOL   C11047532   0.041   0.283   5.045 -0.1211  0.5804  1.2424
  182MOL   H11147533   7.707   0.597   5.253 -2.3458  4.1786 -0.1145
  182MOL   H11247534   7.836   0.684   5.196 -0.4137 -0.5455  2.4725
  182MOL   H11347535   7.807   0.523   4.972  1.6361  0.7647  0.4741
  182MOL   H11447536   7.857   0.261   5.298 -1.2263  0.5066 -1.1338
  182MOL   H11547537   7.789   0.430   5.330  0.5395  2.1029 -0.4351
  182MOL   H11647538   0.079   0.410   5.317  0.6555  0.4404 -0.1360
  182MOL   H11747539   0.019   0.315   4.943  1.4080 -0.4788  0.5696
  182MOL   H11847540   7.862   0.194   5.057  2.2572 -1.0909  1.2734
  182MOL   C11947541   0.190   0.253   5.072 -0.1764 -0.7175  0.0423
  182MOL   C12047542   0.232   0.130   4.985 -0.1866 -0.5782  0.7850
  182MOL   C12147543   0.281   0.013   5.025  0.1629  0.0345  0.2663
  182MOL   C12247544   0.284   7.855   5.172  0.0522 -0.2794  0.2603
  182MOL   C12347545   0.328   7.787   4.927  0.2295 -0.2386  0.0953
  182MOL   H12447546   0.210   0.236   5.178  0.0919 -0.7631 -0.0154
  182MOL   H12547547   0.256   0.335   5.045 -0.4473 -0.9490 -1.3383
  182MOL   H12647548   0.232   0.155   4.880  1.2413 -0.3422  0.8229
  182MOL   H12747549   0.251   0.053   5.237  1.3616  0.1792  0.3709
  182MOL   H12847550   0.389   7.835   5.196 -0.3055 -2.3360  0.2274
  182MOL   H12947551   0.212   7.774   5.184  0.1823 -0.7134 -1.6809
  182MOL   H13047552   0.256   7.707   4.949  0.3464  0.0530  1.5730
  182MOL   H13147553   0.432   7.772   4.954  1.2524  1.9410 -2.5616
  182MOL   C13247554   0.319   7.823   4.778 -0.3989  0.3311 -0.3157
  182MOL   C13347555   0.367   7.722   4.680  0.3023 -0.3811 -0.0814
  182MOL   C13447556   0.418   7.742   4.557  0.3225  0.3896 -0.1097
  182MOL   C13547557   0.462   7.878   4.499 -0.1315 -0.6940 -0.2366
  182MOL   C13647558   0.444   7.629   4.460  0.0769  0.1740  0.0729
  182MOL   H13747559   0.363   0.037   4.753 -2.2694  1.1982 -0.2754
  182MOL   H13847560   0.214   7.835   4.754 -0.7426 -0.7053  0.6358
  182MOL   H13947561   0.356   7.616   4.701  0.6890 -0.6534 -1.1931
  182MOL   H14047562   0.498   0.056   4.582  2.4635 -1.3164 -0.8445
  182MOL   H14147563   0.382   0.037   4.438 -0.0764  1.6951  1.2737
  182MOL   H14247564   0.553   7.872   4.438 -1.8240 -1.6606 -2.7525
  182MOL   H14347565   0.550   7.640   4.439 -0.1023  0.4739 -0.6704
  182MOL   H14447566   0.400   7.648   4.363  0.2501  0.2989  0.0186
  182MOL   C14547567   0.404   7.483   4.495 -0.4945  0.3600 -0.1323
  182MOL   C14647568   0.472   7.380   4.408  0.0171 -0.1082  0.1429
  182MOL   C14747569   0.419   7.301   4.313  0.0608 -0.7887 -0.1486
  182MOL   C14847570   0.273   7.295   4.275  0.0145 -0.3640  0.1249
  182MOL   C14947571   0.507   7.221   4.222 -0.2821 -0.5198  0.3168
  182MOL   H15047572   0.298   7.458   4.507 -0.3441 -1.2200 -1.7539
  182MOL   H15147573   0.452   7.470   4.592 -2.0212  2.5640  0.9431
  182MOL   H15247574   0.580   7.378   4.415  0.0508 -1.3697 -0.6775
  182MOL   H15347575   0.227   7.203   4.311  0.3739 -0.1945  1.0208
  182MOL   H15447576   0.275   7.288   4.166  1.6836  1.0294  0.0413
  182MOL   H15547577   0.225   7.385   4.312  0.8242 -0.1844  0.7648
  182MOL   H15647578   0.607   7.263   4.215 -1.0845  1.4236  0.0620
  182MOL   H15747579   0.464   7.228   4.122  0.6824 -3.7380 -0.3719
  182MOL   C15847580   0.515   7.078   4.266 -0.2382 -0.0647 -0.2432
  182MOL   C15947581   0.612   6.989   4.177  0.9815  0.2280  0.2654
  182MOL   C16047582   0.700   6.897   4.222 -0.3763 -0.9663  0.3306
  182MOL   C16147583   0.716   6.857   4.368 -0.5109  0.2069  0.4221
  182MOL   C16247584   0.771   6.807   4.117 -0.1985  0.7347  0.0119
  182MOL   H16347585   0.414   7.037   4.255 -0.5568  0.8542 -0.7318
  182MOL   H16447586   0.543   7.081   4.371 -1.1288 -2.4015  0.1165
  182MOL   H16547587   0.609   7.006   4.071 -4.5162  0.1288  0.2531
  182MOL   H16647588   0.818   6.876   4.403  0.3467 -2.9365 -0.2484
  182MOL   H16747589   0.691   6.752   4.383 -0.1688 -0.5719 -3.9124
  182MOL   H16847590   0.653   6.912   4.438 -1.8728 -1.0198  0.1789
  182MOL   H16947591   0.879   6.813   4.131 -0.1597  0.1100 -0.0127
  182MOL   H17047592   0.752   6.845   4.017 -1.0136  0.5852  0.1101
  182MOL   C17147593   0.733   6.660   4.109 -0.0859  0.3032  0.7707
  182MOL   C17247594   0.811   6.582   4.009  0.4437  0.4776  0.1909
  182MOL   C17347595   0.764   6.506   3.908 -1.0561  0.5608 -0.4821
  182MOL   C17447596   0.617   6.477   3.885  0.1384  0.6989  0.3382
  182MOL   C17547597   0.854   6.424   3.813  1.0577  0.2114  0.1186
  182MOL   H17647598   0.626   6.661   4.093 -0.2306  1.0426  1.7584
  182MOL   H17747599   0.743   6.603   4.201 -0.3221  2.8006  2.3691
  182MOL   H17847600   0.917   6.586   4.028  0.5838 -1.1887 -0.1639
  182MOL   H17947601   0.594   6.516   3.786 -4.3958 -0.1036  0.9784
  182MOL   H18047602   0.549   6.507   3.965 -0.7708  0.8840 -0.5006
  182MOL   H18147603   0.606   6.369   3.887 -1.0591  0.8240  0.9946
  182MOL   H18247604   0.801   6.423   3.717  1.3938 -3.8553 -0.0885
  182MOL   H18347605   0.847   6.318   3.836 -0.3934  0.2909  0.1170
  182MOL   C18447606   0.996   6.466   3.813  0.1578  0.1662 -0.1794
  182MOL   C18547607   1.089   6.389   3.721  0.6039  0.2148  0.0722
  182MOL   C18647608   1.188   6.428   3.639  0.0348  0.3093  0.6510
  182MOL   C18747609   1.234   6.570   3.628  0.3343 -0.0609 -0.3162
  182MOL   C18847610   1.257   6.325   3.545  0.3706 -0.4800  0.5970
  182MOL   H18947611   1.040   6.452   3.912  1.0233 -2.1667 -0.8623
  182MOL   H19047612   1.011   6.573   3.799 -0.8492  0.4952  1.1324
  182MOL   H19147613   1.080   6.282   3.737 -1.0445  0.3307  0.0566
  182MOL   H19247614   1.212   6.625   3.537 -1.5363  0.1333  0.2394
  182MOL   H19347615   1.342   6.567   3.642  0.1897  0.8305  1.1186
  182MOL   H19447616   1.191   6.629   3.709 -2.1224  2.2710 -3.1779
  182MOL   H19547617   1.331   6.375   3.482  0.2570  2.5580  2.7500
  182MOL   H19647618   1.172   6.302   3.481  1.1573  1.7076 -1.3433
  182MOL   C19747619   1.323   6.209   3.621  0.6738  0.0215 -0.3871
  182MOL   C19847620   1.414   6.263   3.732  0.5210  0.1638 -0.1503
  182MOL   C19947621   1.426   6.217   3.858 -0.9089 -0.1409 -0.0557
  182MOL   C20047622   1.353   6.099   3.907  0.1348 -0.0758 -0.2285
  182MOL   C20147623   1.531   6.277   3.949 -0.5336  0.1906  0.1954
  182MOL   H20247624   1.382   6.153   3.548  2.8063  0.3357  1.0596
  182MOL   H20347625   1.245   6.144   3.659 -0.0412  0.6604 -0.7521
  182MOL   H20447626   1.478   6.346   3.707  2.2447 -0.8818  0.7345
  182MOL   H20547627   1.261   6.139   3.948  0.3116  1.8852 -1.6821
  182MOL   H20647628   1.404   6.040   3.983  0.5757  0.4230 -0.1387
  182MOL   H20747629   1.331   6.032   3.823 -0.1240 -1.2441  0.7608
  182MOL   H20847630   1.597   6.334   3.882  1.6151 -2.3660  0.0708
  182MOL   H20947631   1.588   6.188   3.976  0.4271  0.8850  0.5021
  182MOL   C21047632   1.486   6.330   4.080 -0.4090 -0.1670 -0.2149
  182MOL   C21147633   1.596   6.390   4.163 -1.3351 -0.5861 -0.2399
  182MOL   C21247634   1.627   6.365   4.290  0.0829  0.6346  0.4132
  182MOL   C21347635   1.558   6.268   4.380  0.1033  0.1717 -0.5550
  182MOL   C21447636   1.744   6.425   4.361 -0.4503 -0.1715  0.1270
  182MOL   H21547637   1.437   6.254   4.140  1.3772  1.2924  3.1939
  182MOL   H21647638   1.404   6.400   4.065 -0.3993 -0.1772 -0.3182
  182MOL   H21747639   1.662   6.453   4.105 -1.4071  1.4203  1.8015
  182MOL   H21847640   1.622   6.226   4.458 -0.7600  0.5934  0.3970
  182MOL   H21947641   1.517   6.186   4.321  0.0439  0.4370 -0.8897
  182MOL   H22047642   1.473   6.310   4.434 -0.6027 -0.0441 -1.4739
  182MOL   H22147643   1.797   6.500   4.301 -4.4323  4.3469  2.0074
  182MOL   H22247644   1.818   6.345   4.359  0.0709  0.2681  1.2701
  182MOL   C22347645   1.708   6.495   4.495  0.7360  0.2711  0.2840
  182MOL   C22447646   1.830   6.549   4.572  0.2896  0.2926  0.0634
  182MOL   C22547647   1.832   6.662   4.642 -0.5945 -0.2106 -0.1752
  182MOL   C22647648   1.715   6.765   4.634 -0.5147 -0.5330 -0.0997
  182MOL   C22747649   1.953   6.714   4.718 -0.4552  0.3113  0.1036
  182MOL   H22847650   1.658   6.430   4.567  1.0106  1.4085  1.5293
  182MOL   H22947651   1.630   6.570   4.483 -0.4212 -1.1614 -1.3405
  182MOL   H23047652   1.920   6.490   4.565 -0.1683 -0.2615 -1.3754
  182MOL   H23147653   1.619   6.720   4.658 -1.6141  1.9038  0.2374
  182MOL   H23247654   1.715   6.823   4.541 -2.4221 -1.4230 -0.6757
  182MOL   H23347655   1.735   6.842   4.709 -0.1570 -0.3372 -0.3925
  182MOL   H23447656   1.969   6.817   4.687  0.4506  0.6771  1.7057
  182MOL   H23547657   2.045   6.665   4.685 -0.9626  0.2054 -1.1645
  182MOL   C23647658   1.937   6.703   4.865 -0.3054  0.3816 -0.0170
  182MOL   C23747659   1.898   6.568   4.918 -0.1346 -0.2645 -0.0704
  182MOL   C23847660   1.969   6.472   4.974  0.1150  0.1629  0.4518
  182MOL   C23947661   2.114   6.487   4.997 -0.6846  0.1995 -0.2639
  182MOL   C24047662   1.903   6.343   5.030  0.3419 -0.1479 -0.4845
  182MOL   H24147663   1.860   6.771   4.901 -1.1136 -0.4269 -0.2136
  182MOL   H24247664   2.031   6.729   4.914  0.1941  1.2887 -1.4099
  182MOL   H24347665   1.793   6.544   4.908 -0.6505  1.9500 -0.2314
  182MOL   H24447666   2.162   6.397   4.958 -2.2094 -1.1737  0.9588
  182MOL   H24547667   2.129   6.492   5.105 -0.7178 -1.5927 -0.1644
  182MOL   H24647668   2.162   6.565   4.938 -0.2853 -0.3828 -0.7090
  182MOL   H24747669   1.800   6.360   5.001 -0.2160  0.1194  1.5834
  182MOL   H24847670   1.905   6.339   5.139 -0.7526  4.2325 -0.2009
  182MOL   C24947671   1.952   6.205   4.981  0.4582 -0.1703 -0.4755
  182MOL   C25047672   1.843   6.096   4.997 -0.2657 -0.2697  0.1485
  182MOL   C25147673   1.736   6.090   4.920  0.5243  0.0938  0.4734
  182MOL   C25247674   1.708   6.180   4.805 -0.1402 -0.2295 -0.4172
  182MOL   C25347675   1.628   5.991   4.960 -0.1602  0.2031 -0.3769
  182MOL   H25447676   2.046   6.180   5.029 -0.7684  0.7907  2.5251
  182MOL   H25547677   1.978   6.219   4.876 -1.9572  2.6359 -0.7607
  182MOL   H25647678   1.843   6.038   5.088 -0.7083 -1.5842 -0.6728
  182MOL   H25747679   1.793   6.195   4.739 -1.9327  1.4376 -2.4279
  182MOL   H25847680   1.664   6.276   4.832  1.0089  0.1407  0.1613
  182MOL   H25947681   1.636   6.130   4.740  1.4268 -1.5768 -1.1370
  182MOL   H26047682   1.669   5.909   5.020  3.5324  2.0056 -0.2997
  182MOL   H26147683   1.581   5.949   4.871 -1.3201 -1.2548  0.9039
  182MOL   H26247684   1.547   6.052   5.001  1.4026  0.5683  2.2714
  183MOL     C147685   7.347   6.664   3.113 -0.0416  0.6052  0.1184
  183MOL     C247686   7.346   6.510   3.107 -0.2455 -0.0199 -0.0198
  183MOL     C347687   7.352   6.429   3.215  0.3516  0.4706  0.1061
  183MOL     C447688   7.355   6.475   3.361  0.7275  0.0177  0.4584
  183MOL     C547689   7.373   6.285   3.185 -0.9058 -0.1217 -0.1094
  183MOL     H647690   7.433   6.711   3.066  0.6664 -0.5536  0.2359
  183MOL     H747691   7.265   6.703   3.051  0.1466  3.3042  1.4902
  183MOL     H847692   7.351   6.477   3.005  0.2978 -1.7672  0.5584
  183MOL     H947693   7.293   6.564   3.372  1.9702  1.0256 -0.5982
  183MOL    H1047694   7.460   6.499   3.376  1.1136 -0.7921 -0.8854
  183MOL    H1147695   7.326   6.406   3.440  1.7433  0.3360  1.1177
  183MOL    H1247696   7.456   6.248   3.246  0.1978 -2.2398 -2.8003
  183MOL    H1347697   7.421   6.275   3.088  1.2357  1.1375  0.7716
  183MOL    H1447698   7.334   6.707   3.212 -1.5232  0.3301  0.0671
  183MOL    C1547699   7.255   6.186   3.200 -0.5596 -0.3554  1.2330
  183MOL    C1647700   7.284   6.036   3.165 -0.6853 -0.2014  0.6336
  183MOL    C1747701   7.236   5.985   3.050  0.1874 -0.0257 -0.5058
  183MOL    C1847702   7.167   6.064   2.943  0.3461 -0.7265 -0.1943
  183MOL    C1947703   7.261   5.835   3.012 -0.3967 -0.3983 -0.2792
  183MOL    H2047704   7.171   6.222   3.141 -1.2178 -1.6597  1.3561
  183MOL    H2147705   7.213   6.188   3.300  3.0104  1.3821  2.7742
  183MOL    H2247706   7.346   5.974   3.228 -1.1281  1.1475  2.4263
  183MOL    H2347707   7.148   6.000   2.857  0.0780 -3.1656  1.6413
  183MOL    H2447708   7.221   6.152   2.908  0.2490 -0.3892  0.4907
  183MOL    H2547709   7.074   6.106   2.982  1.3798  0.3857  1.1518
  183MOL    H2647710   7.164   5.787   3.007 -1.3085  1.0152  2.5215
  183MOL    H2747711   7.298   5.789   3.104 -0.5337  0.2352  0.0884
  183MOL    C2847712   7.356   5.823   2.895  0.2960 -0.9361 -0.3043
  183MOL    C2947713   7.422   5.682   2.892 -0.1805 -0.1447  0.0575
  183MOL    C3047714   7.551   5.660   2.926  0.0745  0.4962  0.1536
  183MOL    C3147715   7.638   5.775   2.961 -0.1045  0.3917  0.3661
  183MOL    C3247716   7.625   5.529   2.893  0.4033 -0.2071  0.5682
  183MOL    H3347717   7.425   5.907   2.906  0.8593 -1.4026 -0.2605
  183MOL    H3447718   7.306   5.829   2.798  1.4596 -0.0212 -0.8668
  183MOL    H3547719   7.361   5.605   2.847  0.3908 -0.4930 -0.1322
  183MOL    H3647720   7.730   5.745   3.011 -0.2791  1.6594  1.4869
  183MOL    H3747721   7.575   5.838   3.024 -0.2290  0.8221 -0.1914
  183MOL    H3847722   7.665   5.830   2.871 -0.7586  2.1122  1.2090
  183MOL    H3947723   7.665   5.501   2.990 -1.0046 -2.5376  0.5089
  183MOL    H4047724   7.706   5.559   2.827 -0.3373  0.8907  0.1512
  183MOL    C4147725   7.534   5.410   2.841  0.5715  0.2951 -0.4106
  183MOL    C4247726   7.617   5.289   2.806  0.5409  0.0992 -0.7340
  183MOL    C4347727   7.600   5.224   2.697 -0.0871  0.1515  0.4914
  183MOL    C4447728   7.499   5.260   2.590 -0.9228  0.1055  0.0702
  183MOL    C4547729   7.679   5.091   2.674 -0.1981  0.4394 -0.7317
  183MOL    H4647730   7.480   5.444   2.752  2.1813 -0.2958 -1.6398
  183MOL    H4747731   7.458   5.382   2.914  0.3409  2.6890  0.3020
  183MOL    H4847732   7.686   5.272   2.887 -1.3444 -0.6116  0.7453
  183MOL    H4947733   7.401   5.302   2.613 -1.0537 -0.0839 -0.1377
  183MOL    H5047734   7.489   5.176   2.521  0.8481 -1.9620  2.2466
  183MOL    H5147735   7.556   5.326   2.525 -0.3262 -1.7720 -1.3829
  183MOL    H5247736   7.597   5.019   2.676 -0.7766  1.0493 -2.0408
  183MOL    H5347737   7.750   5.073   2.755  0.2013  1.2305 -0.8952
  183MOL    C5447738   7.754   5.080   2.543  0.0051 -0.3160  0.5086
  183MOL    C5547739   7.825   4.946   2.539  0.2694  0.3581  0.0583
  183MOL    C5647740   7.839   4.855   2.442 -0.6353  0.0900 -0.1173
  183MOL    C5747741   7.801   4.874   2.294  0.5794 -0.0638 -0.0297
  183MOL    C5847742   0.046   4.731   2.456  0.0919 -0.3191 -0.0405
  183MOL    H5947743   7.838   5.149   2.535 -0.4586  0.0598 -1.1861
  183MOL    H6047744   7.694   5.092   2.453  0.8351  0.2443  0.0155
  183MOL    H6147745   7.873   4.917   2.632 -1.0481  0.3517  0.7516
  183MOL    H6247746   7.797   4.772   2.257  1.1575 -0.6279  1.4270
  183MOL    H6347747   7.871   4.931   2.233  1.4976 -1.3157 -0.1763
  183MOL    H6447748   7.700   4.915   2.297 -0.8245 -3.0639 -2.9450
  183MOL    H6547749   0.113   4.750   2.540  1.7605  0.0926 -1.4503
  183MOL    H6647750   0.114   4.721   2.372  1.6121  1.7561  0.8879
  183MOL    C6747751   7.841   4.605   2.470  0.1055  0.4752  0.2557
  183MOL    C6847752   0.028   4.481   2.529 -0.0587 -0.8636  0.8553
  183MOL    C6947753   0.077   4.378   2.456 -0.2300 -0.2640  0.0306
  183MOL    C7047754   0.089   4.383   2.303 -0.5912  0.0254 -0.5434
  183MOL    C7147755   0.154   4.269   2.524 -0.5720  0.2276 -0.1634
  183MOL    H7247756   7.800   4.579   2.372  2.9704  1.7812 -1.3742
  183MOL    H7347757   7.764   4.619   2.545 -1.4827  0.6330 -1.3859
  183MOL    H7447758   0.045   4.477   2.635 -1.0406 -1.8222  0.9863
  183MOL    H7547759   0.020   4.451   2.253  0.0728  1.1786  0.0982
  183MOL    H7647760   0.078   4.285   2.256  0.0904 -2.0851  3.4910
  183MOL    H7747761   0.190   4.412   2.275 -0.4375  0.3382  0.3307
  183MOL    H7847762   0.173   4.285   2.630  2.2976 -0.1189 -0.5999
  183MOL    H7947763   0.254   4.269   2.481  0.4560  0.1995  2.1364
  183MOL    C8047764   0.087   4.131   2.514 -0.3300  0.6654 -0.3553
  183MOL    C8147765   0.163   4.042   2.611  0.6143 -0.1284  0.0635
  183MOL    C8247766   0.189   3.910   2.593  0.2447  0.5456  0.1274
  183MOL    C8347767   0.162   3.832   2.464  0.3731 -0.3958  0.1057
  183MOL    C8447768   0.265   3.830   2.699 -0.3109  0.1530  0.5872
  183MOL    H8547769   0.105   4.097   2.412 -1.3625 -1.3574  0.1233
  183MOL    H8647770   7.862   4.121   2.527 -0.0417  0.2803  1.9202
  183MOL    H8747771   0.181   4.088   2.707 -0.9137 -0.4562  0.5202
  183MOL    H8847772   0.087   3.754   2.479  1.1312 -0.9349  1.0496
  183MOL    H8947773   0.250   3.789   2.417  0.3642  1.9260 -2.1876
  183MOL    H9047774   0.109   3.884   2.383  2.7564  0.7401 -0.7487
  183MOL    H9147775   0.300   3.906   2.769  1.4939 -0.6877  0.5988
  183MOL    H9247776   0.355   3.803   2.645 -1.0348 -0.4403 -0.3527
  183MOL    C9347777   0.175   3.725   2.765 -0.1505  0.0272 -0.1404
  183MOL    C9447778   0.193   3.716   2.914  0.2103  0.0246  0.3867
  183MOL    C9547779   0.215   3.602   2.988  0.2255  0.5789 -0.7628
  183MOL    C9647780   0.215   3.464   2.930 -0.3865 -0.3248 -0.2892
  183MOL    C9747781   0.251   3.610   3.139 -0.3435 -0.2483 -0.8898
  183MOL    H9847782   0.187   3.629   2.714  0.9604 -1.6022  3.0621
  183MOL    H9947783   0.068   3.732   2.747 -0.1224 -2.6593 -1.6653
  183MOL   H10047784   0.191   3.806   2.973  3.1076 -0.6227  1.5602
  183MOL   H10147785   0.159   3.459   2.837 -0.2059 -1.7455 -0.3222
  183MOL   H10247786   0.175   3.396   3.005 -0.3255 -1.3472 -1.1696
  183MOL   H10347787   0.315   3.437   2.897 -0.4854 -0.0566 -0.8201
  183MOL   H10447788   0.346   3.561   3.160 -0.4065 -0.2806 -0.6799
  183MOL   H10547789   0.174   3.553   3.191 -0.6625  2.3296  1.5800
  183MOL   C10647790   0.241   3.745   3.204 -0.5381  0.0044 -0.3951
  183MOL   C10747791   0.269   3.739   3.355  0.4182 -0.5295  0.0721
  183MOL   C10847792   0.202   3.809   3.445 -0.4537 -0.1509 -0.1715
  183MOL   C10947793   0.082   3.891   3.416  0.0059 -0.2969  0.6515
  183MOL   C11047794   0.237   3.818   3.593  0.2571 -0.1624 -0.0105
  183MOL   H11147795   0.137   3.777   3.194  0.1085  1.7973 -1.4695
  183MOL   H11247796   0.307   3.825   3.171 -1.7710  1.0201 -0.4588
  183MOL   H11347797   0.351   3.678   3.390 -0.0220 -1.6921 -0.8793
  183MOL   H11447798   0.023   3.923   3.502 -1.5863  1.1222 -0.9197
  183MOL   H11547799   0.012   3.855   3.340  1.6839 -0.9594 -0.5993
  183MOL   H11647800   0.106   3.987   3.370  1.7791 -1.8159 -1.6820
  183MOL   H11747801   0.202   3.913   3.633  0.8982  1.1031 -2.3835
  183MOL   H11847802   0.345   3.813   3.608  0.3184 -0.7628 -0.6060
  183MOL   C11947803   0.165   3.704   3.672 -0.1296  0.9210  0.2383
  183MOL   C12047804   0.187   3.715   3.823  0.4218 -0.5043  0.9082
  183MOL   C12147805   0.187   3.616   3.917 -0.4042  0.0341 -0.2148
  183MOL   C12247806   0.166   3.469   3.888 -0.3758  0.4243 -0.4218
  183MOL   C12347807   0.194   3.646   4.063  0.4584 -0.4581 -0.0302
  183MOL   H12447808   0.182   3.606   3.627  0.4577  1.4398 -0.6653
  183MOL   H12547809   0.059   3.725   3.661 -0.0811  0.1313 -1.8190
  183MOL   H12647810   0.203   3.817   3.854 -0.8308  0.3314 -1.1057
  183MOL   H12747811   0.154   3.447   3.782 -4.7208 -0.5185  0.1530
  183MOL   H12847812   0.074   3.431   3.933 -1.9257  3.0153 -1.2293
  183MOL   H12947813   0.247   3.405   3.923 -3.1208 -1.8156  2.1090
  183MOL   H13047814   0.178   3.558   4.126  2.5741 -0.9286 -0.1035
  183MOL   H13147815   0.116   3.718   4.088  1.5374  0.0201  2.0586
  183MOL   C13247816   0.328   3.714   4.090  0.0770  0.4269 -0.1487
  183MOL   C13347817   0.363   3.732   4.235 -0.0709  0.4362 -0.0072
  183MOL   C13447818   0.436   3.823   4.300  0.1192  0.1754 -0.1190
  183MOL   C13547819   0.499   3.937   4.228  0.3346  0.2915  0.3050
  183MOL   C13647820   0.443   3.828   4.451 -0.3635  0.4452 -0.3418
  183MOL   H13747821   0.321   3.816   4.052  1.1785  0.7914  0.5745
  183MOL   H13847822   0.414   3.670   4.040 -0.6685  0.0471 -1.1093
  183MOL   H13947823   0.312   3.663   4.301  1.3134  0.4730  1.1155
  183MOL   H14047824   0.460   4.032   4.264 -1.1978 -0.2583  0.1082
  183MOL   H14147825   0.500   3.927   4.119  1.1860 -0.3084  0.3644
  183MOL   H14247826   0.600   3.947   4.267 -0.2221 -1.8223  2.3537
  183MOL   H14347827   0.349   3.871   4.486 -1.5700 -1.8341 -0.7192
  183MOL   H14447828   0.516   3.908   4.467 -0.7871  0.8491 -0.4053
  183MOL   C14547829   0.480   3.700   4.518 -0.5867  0.5047 -0.5689
  183MOL   C14647830   0.500   3.728   4.671  0.1460 -0.5193  0.7037
  183MOL   C14747831   0.506   3.634   4.767 -0.3071 -1.1610 -0.2692
  183MOL   C14847832   0.491   3.483   4.753  0.1516 -1.1861  0.0235
  183MOL   C14947833   0.540   3.679   4.906  0.1029 -0.2251  0.6147
  183MOL   H15047834   0.570   3.660   4.472 -0.4026  0.5493 -0.2467
  183MOL   H15147835   0.404   3.622   4.508 -0.6086  0.2777  1.2440
  183MOL   H15247836   0.531   3.828   4.696 -1.4838 -0.0759  0.9842
  183MOL   H15347837   0.439   3.447   4.841  0.1005  0.0030  0.4843
  183MOL   H15447838   0.591   3.439   4.741  1.5516  2.2256 -1.4210
  183MOL   H15547839   0.431   3.460   4.665 -0.4155 -0.1065  0.1327
  183MOL   H15647840   0.594   3.773   4.905  1.8003 -1.1849  0.2652
  183MOL   H15747841   0.610   3.609   4.952 -1.2768 -1.8839  0.2302
  183MOL   C15847842   0.415   3.691   4.999  0.1355 -0.2003 -0.0620
  183MOL   C15947843   0.338   3.818   4.985 -0.3515  0.7736 -0.4149
  183MOL   C16047844   0.309   3.906   5.073 -0.0708 -0.5805  0.2998
  183MOL   C16147845   0.352   3.927   5.212 -0.5923 -0.4914 -1.0470
  183MOL   C16247846   0.205   4.012   5.031  0.6061  0.2780  0.3440
  183MOL   H16347847   0.445   3.677   5.103 -1.2503 -1.0266  0.2269
  183MOL   H16447848   0.349   3.609   4.973  1.0741 -1.5501  1.6751
  183MOL   H16547849   0.285   3.823   4.891 -0.5120 -0.1530 -0.3841
  183MOL   H16647850   0.406   4.021   5.216 -1.0469 -0.2345 -0.8761
  183MOL   H16747851   0.399   3.838   5.256  1.2983  1.5773  1.2510
  183MOL   H16847852   0.269   3.954   5.277  0.7382  0.7278  0.1888
  183MOL   H16947853   0.137   4.034   5.113 -0.5260  0.4678 -0.6317
  183MOL   H17047854   0.137   3.979   4.952 -0.6059 -2.2894  2.3383
  183MOL   C17147855   0.271   4.145   4.994 -0.4043 -0.4877  0.7618
  183MOL   C17247856   0.326   4.147   4.854  0.1029  0.1463  0.0926
  183MOL   C17347857   0.267   4.190   4.739  0.0639 -0.3635 -0.3196
  183MOL   C17447858   0.123   4.239   4.738  0.3388  0.0849 -0.3345
  183MOL   C17547859   0.331   4.200   4.599  0.4957  0.4309  0.2371
  183MOL   H17647860   0.338   4.182   5.071 -0.2270  0.2055  0.2772
  183MOL   H17747861   0.203   4.230   4.986 -0.6803 -0.7870 -0.1765
  183MOL   H17847862   0.422   4.100   4.843  1.4125  2.1408  2.6165
  183MOL   H17947863   0.056   4.200   4.815 -2.9145  2.0065 -2.0990
  183MOL   H18047864   0.076   4.212   4.644  0.1119  0.6003 -0.3698
  183MOL   H18147865   0.125   4.346   4.761  0.8001  0.1441 -0.6385
  183MOL   H18247866   0.272   4.149   4.523 -0.5098  2.1472 -0.1533
  183MOL   H18347867   0.406   4.124   4.621 -2.2857 -2.1915  0.9555
  183MOL   C18447868   0.372   4.338   4.551  0.5661 -0.5006 -0.1734
  183MOL   C18547869   0.412   4.333   4.405 -0.8094 -0.0757  0.6964
  183MOL   C18647870   0.334   4.355   4.300  0.2990 -0.1045  0.2111
  183MOL   C18747871   0.187   4.357   4.308 -0.2020 -1.0619 -0.7084
  183MOL   C18847872   0.385   4.352   4.160 -0.3935 -0.1506 -0.0323
  183MOL   H18947873   0.459   4.369   4.608 -0.9471  1.6381  1.0727
  183MOL   H19047874   0.297   4.415   4.571  1.5383 -0.0424  1.8794
  183MOL   H19147875   0.518   4.322   4.394 -0.9501  0.5489 -1.5922
  183MOL   H19247876   0.157   4.306   4.399 -1.2882 -1.3868 -1.2406
  183MOL   H19347877   0.135   4.316   4.222 -2.0008 -1.5294  0.5855
  183MOL   H19447878   0.157   4.460   4.325 -0.1604 -1.5617  2.8124
  183MOL   H19547879   0.360   4.257   4.112 -0.1398  0.4199 -1.2911
  183MOL   H19647880   0.493   4.340   4.154 -0.5521 -0.2020 -3.2990
  183MOL   C19747881   0.342   4.474   4.078 -0.2325 -0.0586  0.3043
  183MOL   C19847882   0.432   4.496   3.951 -0.3496  0.2927 -0.0169
  183MOL   C19947883   0.432   4.427   3.837  0.9123 -0.5993  0.1359
  183MOL   C20047884   0.328   4.325   3.806  0.3180  0.2491 -0.5576
  183MOL   C20147885   0.518   4.468   3.721 -0.1115 -0.2806  0.5159
  183MOL   H20247886   0.350   4.562   4.142  0.7059  0.5683 -0.6651
  183MOL   H20347887   0.235   4.459   4.060 -0.0164 -0.6610 -0.4799
  183MOL   H20447888   0.513   4.567   3.948  1.5698 -1.8899 -3.4579
  183MOL   H20547889   0.284   4.283   3.896 -0.1837 -0.5217 -1.1483
  183MOL   H20647890   0.379   4.245   3.752 -0.2532 -0.4528 -0.0728
  183MOL   H20747891   0.252   4.360   3.735 -2.4975 -0.0030  2.2007
  183MOL   H20847892   0.580   4.551   3.755 -1.1648  1.0041 -0.6203
  183MOL   H20947893   0.464   4.517   3.641 -0.1767 -0.4813  0.4370
  183MOL   C21047894   0.598   4.357   3.658  0.4488 -0.1833 -0.2013
  183MOL   C21147895   0.690   4.416   3.552 -0.2723 -0.0388 -0.3435
  183MOL   C21247896   0.814   4.381   3.520  0.4065  0.2031  0.1210
  183MOL   C21347897   0.890   4.274   3.592 -0.6188 -0.3741 -0.1973
  183MOL   C21447898   0.880   4.445   3.402  0.1321  0.2631 -0.2248
  183MOL   H21547899   0.539   4.281   3.608 -0.2000 -0.4358  0.9383
  183MOL   H21647900   0.654   4.307   3.736  2.4362  1.7970 -0.2981
  183MOL   H21747901   0.637   4.493   3.497 -0.2248  0.4882  0.3393
  183MOL   H21847902   0.882   4.184   3.531 -1.1161 -0.7082  0.3534
  183MOL   H21947903   0.855   4.251   3.693  1.8894 -1.1314  0.5260
  183MOL   H22047904   0.996   4.299   3.589 -0.1040 -2.1637  1.3952
  183MOL   H22147905   0.987   4.451   3.422 -0.0703  0.1879  0.9127
  183MOL   H22247906   0.850   4.548   3.384 -1.1307 -0.3092 -1.4849
  183MOL   C22347907   0.865   4.356   3.280 -0.5537  0.3077  0.7727
  183MOL   C22447908   0.908   4.427   3.150  0.5205  0.1082  0.7286
  183MOL   C22547909   1.008   4.394   3.069 -0.1746 -0.3940  0.4222
  183MOL   C22647910   1.083   4.259   3.075  0.2851  0.6075 -0.3861
  183MOL   C22747911   1.057   4.496   2.954 -0.1935  0.2427  0.0469
  183MOL   H22847912   0.765   4.312   3.268 -1.8684  2.2284  3.8820
  183MOL   H22947913   0.932   4.272   3.300 -1.3324 -0.0095  2.1214
  183MOL   H23047914   0.866   4.523   3.127  1.4632 -0.1370 -2.2073
  183MOL   H23147915   0.999   4.192   3.062 -0.3556  0.2652  4.5701
  183MOL   H23247916   1.135   4.241   3.169 -1.2251  1.5077  0.6515
  183MOL   H23347917   1.153   4.245   2.993  3.3887  1.7700  1.9244
  183MOL   H23447918   1.165   4.506   2.969 -0.1870 -1.3844  1.3103
  183MOL   H23547919   1.010   4.593   2.967  0.0680  0.2834  0.7349
  183MOL   C23647920   1.020   4.446   2.810 -0.5092  0.4866 -0.2237
  183MOL   C23747921   1.026   4.562   2.705 -0.2847  0.0320  0.2128
  183MOL   C23847922   1.070   4.551   2.577 -0.2151 -0.3193  0.3980
  183MOL   C23947923   1.124   4.421   2.508  0.1766 -0.6667 -0.0203
  183MOL   C24047924   1.092   4.677   2.493  0.0468 -0.0894 -0.0199
  183MOL   H24147925   0.916   4.414   2.804 -0.7172  0.9669  0.8000
  183MOL   H24247926   1.095   4.373   2.780  0.1471  0.6890  0.8832
  183MOL   H24347927   0.990   4.657   2.743  1.6750  0.5411  0.8546
  183MOL   H24447928   1.230   4.411   2.487  0.2790  2.7623 -1.3670
  183MOL   H24547929   1.073   4.407   2.413  1.5500 -0.9996 -0.7104
  183MOL   H24647930   1.097   4.337   2.573 -4.4048  0.9627  0.3655
  183MOL   H24747931   1.050   4.763   2.545 -0.2268 -0.3882  0.2574
  183MOL   H24847932   1.022   4.673   2.410  1.3856 -3.2502 -1.0777
  183MOL   C24947933   1.237   4.699   2.442  0.0960 -0.5102  0.7335
  183MOL   C25047934   1.227   4.832   2.362 -1.0361 -0.3588 -0.0578
  183MOL   C25147935   1.319   4.942   2.367 -1.1206  0.2154 -0.7391
  183MOL   C25247936   1.450   4.941   2.436  0.4222 -0.3207 -0.2679
  183MOL   C25347937   1.297   5.063   2.282 -0.6558 -0.3618  0.2253
  183MOL   H25447938   1.271   4.624   2.370 -1.6238 -1.7746  1.1780
  183MOL   H25547939   1.299   4.702   2.532  1.8023  0.8539 -0.4734
  183MOL   H25647940   1.141   4.848   2.299 -0.4605  1.0502 -0.5208
  183MOL   H25747941   1.530   4.971   2.369 -2.0720 -0.6132 -3.5027
  183MOL   H25847942   1.472   4.841   2.474 -2.4199 -1.0048 -0.3473
  183MOL   H25947943   1.444   5.005   2.525  0.9115  0.6261 -0.9103
  183MOL   H26047944   1.290   5.147   2.350 -0.6773 -0.3839  0.2507
  183MOL   H26147945   1.198   5.063   2.237 -0.6525 -1.1638  0.2108
  183MOL   H26247946   1.377   5.091   2.213  0.5457 -0.1328  1.6984
  184MOL     C147947   4.512   3.879   0.980  0.0078 -0.8129 -0.3151
  184MOL     C247948   4.645   3.849   1.041  0.1887  0.3049 -0.3240
  184MOL     C347949   4.682   3.883   1.165 -0.1199 -0.2170  0.3268
  184MOL     C447950   4.608   3.979   1.251  0.0530  0.6803  0.0102
  184MOL     C547951   4.819   3.849   1.220  0.0707 -0.7848  0.1781
  184MOL     H647952   4.468   3.977   0.990 -1.2815 -1.4669  0.4980
  184MOL     H747953   4.521   3.862   0.872 -0.3860  2.3201 -0.8702
  184MOL     H847954   4.710   3.787   0.981 -0.0463  0.0137 -0.2764
  184MOL     H947955   4.500   3.974   1.238  0.1699  0.5354 -0.9326
  184MOL    H1047956   4.648   4.077   1.226 -0.6032  0.3913 -2.2846
  184MOL    H1147957   4.640   3.977   1.355 -1.0003 -2.4706  0.3084
  184MOL    H1247958   4.864   3.760   1.175 -0.6986 -0.5146 -1.1378
  184MOL    H1347959   4.796   3.828   1.325  1.4929 -0.5444  0.5524
  184MOL    H1447960   4.436   3.806   1.009  0.8977 -0.7481  2.2856
  184MOL    C1547961   4.924   3.959   1.222 -0.2967 -0.1231 -0.1832
  184MOL    C1647962   5.042   3.925   1.304 -0.2130 -0.1171 -1.0780
  184MOL    C1747963   5.095   3.979   1.414  0.4784  0.0300  0.1481
  184MOL    C1847964   5.037   4.102   1.471  0.6605  0.1596  0.0317
  184MOL    C1947965   5.228   3.940   1.470 -0.1856 -0.0015 -0.5463
  184MOL    H2047966   4.883   4.057   1.247  1.3636  0.2687  1.1092
  184MOL    H2147967   4.970   3.990   1.128 -1.3355  0.9114 -0.3643
  184MOL    H2247968   5.089   3.834   1.272 -2.2012 -0.6792 -2.5120
  184MOL    H2347969   5.068   4.100   1.575 -0.8855  0.8418  0.5093
  184MOL    H2447970   4.928   4.101   1.476  0.2519  0.2164 -5.3240
  184MOL    H2547971   5.075   4.190   1.419  0.6849  1.6805  2.5263
  184MOL    H2647972   5.294   4.022   1.442 -1.7850  1.2039 -0.8585
  184MOL    H2747973   5.278   3.854   1.425  0.6457 -0.4178  1.1239
  184MOL    C2847974   5.227   3.908   1.624 -0.8708 -0.6463 -0.2155
  184MOL    C2947975   5.132   3.791   1.644 -0.2613 -0.0424  0.5746
  184MOL    C3047976   5.049   3.769   1.746 -0.2195  0.0405  0.6084
  184MOL    C3147977   5.064   3.835   1.873 -0.0625  0.0002 -0.2342
  184MOL    C3247978   4.949   3.664   1.740  0.9880 -0.1417  0.6647
  184MOL    H3347979   5.193   3.995   1.681 -1.0196 -2.5452  2.7320
  184MOL    H3447980   5.328   3.886   1.660 -0.1274 -0.5620 -2.1979
  184MOL    H3547981   5.124   3.728   1.556  1.4677  1.7207 -0.8965
  184MOL    H3647982   5.116   3.930   1.861 -0.9409  0.0594 -4.7228
  184MOL    H3747983   5.109   3.774   1.950  0.0803  0.9847  0.4718
  184MOL    H3847984   4.968   3.859   1.919 -0.9328 -2.2572 -0.7967
  184MOL    H3947985   4.933   3.626   1.841 -0.3556 -0.9557  0.1596
  184MOL    H4047986   4.984   3.577   1.685  2.6764  1.8858 -1.5412
  184MOL    C4147987   4.826   3.726   1.680 -0.1000  0.2179  0.3783
  184MOL    C4247988   4.705   3.644   1.703 -0.6040  0.2303  0.4932
  184MOL    C4347989   4.688   3.521   1.651  0.8326 -0.5162 -0.0706
  184MOL    C4447990   4.779   3.458   1.545 -0.7825  0.1724 -0.4111
  184MOL    C4547991   4.567   3.424   1.696  0.4819  0.1405 -0.0952
  184MOL    H4647992   4.839   3.729   1.572  2.3380  0.3663  0.6433
  184MOL    H4747993   4.809   3.818   1.735  3.6358  1.3559 -0.2471
  184MOL    H4847994   4.631   3.684   1.771 -1.7200  0.9465 -1.1149
  184MOL    H4947995   4.851   3.388   1.585 -1.1351  0.5590  0.9325
  184MOL    H5047996   4.846   3.536   1.509 -0.5950 -0.0352 -0.5079
  184MOL    H5147997   4.736   3.404   1.461  2.0366 -2.5277 -0.1738
  184MOL    H5247998   4.502   3.471   1.769 -0.3042  1.2249 -1.4677
  184MOL    H5347999   4.595   3.327   1.738  0.6709  1.0206  1.8622
  184MOL    C5448000   4.475   3.396   1.579 -0.3630 -0.2226  0.1473
  184MOL    C5548001   4.400   3.519   1.537 -0.0679 -0.0240 -0.2749
  184MOL    C5648002   4.420   3.597   1.425 -0.3254  0.3028 -0.2580
  184MOL    C5748003   4.516   3.572   1.312  0.8004 -0.3819  0.1332
  184MOL    C5848004   4.325   3.719   1.402  1.0556  0.1938 -0.0496
  184MOL    H5948005   4.408   3.313   1.602 -1.0810 -0.2789 -2.0172
  184MOL    H6048006   4.530   3.343   1.501  1.2624 -0.7123  1.6022
  184MOL    H6148007   4.308   3.550   1.584 -0.3974  1.1613 -1.6394
  184MOL    H6248008   4.463   3.581   1.218  0.0376 -0.5512  0.5428
  184MOL    H6348009   4.542   3.466   1.317  0.8956 -0.3936 -0.5661
  184MOL    H6448010   4.604   3.637   1.315 -1.2474  2.4828  0.4970
  184MOL    H6548011   4.379   3.813   1.387  1.2906  0.2468  1.0700
  184MOL    H6648012   4.271   3.730   1.496 -1.7728 -0.7186 -1.5254
  184MOL    C6748013   4.220   3.694   1.289  0.1524 -0.0517  0.4775
  184MOL    C6848014   4.098   3.788   1.294 -0.4316 -0.5018  0.8038
  184MOL    C6948015   4.078   3.893   1.211 -0.2278 -0.1730 -0.1513
  184MOL    C7048016   4.183   3.946   1.120  0.2481  0.2702 -0.0359
  184MOL    C7148017   3.955   3.978   1.219  0.4829  0.3190 -0.4561
  184MOL    H7248018   4.183   3.593   1.304 -0.4095 -0.0168 -0.5900
  184MOL    H7348019   4.263   3.692   1.188  1.4351  1.3353  0.9657
  184MOL    H7448020   4.029   3.756   1.370 -0.1314  0.6649  1.5898
  184MOL    H7548021   4.270   3.882   1.106 -0.7636 -0.7388 -1.7858
  184MOL    H7648022   4.202   4.053   1.131 -0.2553  0.2445  1.1660
  184MOL    H7748023   4.142   3.954   1.020 -2.6359  0.8060  1.1513
  184MOL    H7848024   3.974   4.084   1.234 -0.9140  0.4445  0.4993
  184MOL    H7948025   3.900   3.953   1.309  0.8596  2.8954  0.5164
  184MOL    C8048026   3.863   3.970   1.093 -0.1170 -0.2164 -0.1433
  184MOL    C8148027   3.743   4.056   1.130 -0.4459 -0.1160 -0.8309
  184MOL    C8248028   3.742   4.191   1.119  0.5404  0.0713  0.4986
  184MOL    C8348029   3.849   4.263   1.043 -0.7077 -0.1350  0.2950
  184MOL    C8448030   3.630   4.276   1.184  0.0768 -0.5165 -0.3091
  184MOL    H8548031   3.820   3.871   1.075  0.2323 -0.4731  0.4256
  184MOL    H8648032   3.906   4.012   1.002 -1.4125 -0.8575 -1.0713
  184MOL    H8748033   3.660   4.005   1.178 -1.8242  1.3838 -1.5734
  184MOL    H8848034   3.945   4.257   1.095 -1.1718 -0.4568  1.1231
  184MOL    H8948035   3.816   4.366   1.032 -0.4898  0.1151  1.8586
  184MOL    H9048036   3.851   4.222   0.942  0.2426  1.4293 -0.3358
  184MOL    H9148037   3.683   4.334   1.260 -1.5798 -2.2537  2.2435
  184MOL    H9248038   3.564   4.221   1.250 -0.9465  0.5944 -0.3802
  184MOL    C9348039   3.559   4.381   1.103 -0.3502  0.4516 -0.5065
  184MOL    C9448040   3.421   4.416   1.151  0.4565  0.1937  0.2573
  184MOL    C9548041   3.309   4.405   1.077 -0.4469  0.1133 -0.0766
  184MOL    C9648042   3.296   4.356   0.934 -0.1463 -0.7673 -0.4251
  184MOL    C9748043   3.185   4.458   1.140  0.4694  0.2182 -0.2904
  184MOL    H9848044   3.566   4.344   1.000 -0.0650 -0.8960 -0.0208
  184MOL    H9948045   3.630   4.464   1.095  0.0502  0.2484  0.7857
  184MOL   H10048046   3.408   4.455   1.251 -1.9527  0.2903 -0.0568
  184MOL   H10148047   3.392   4.330   0.889  0.4792 -2.3220  1.6985
  184MOL   H10248048   3.257   4.438   0.873 -0.6548  0.6058  1.6762
  184MOL   H10348049   3.226   4.274   0.923  0.5955 -1.6692  1.3900
  184MOL   H10448050   3.137   4.519   1.063 -2.1930 -2.8810 -1.1745
  184MOL   H10548051   3.201   4.528   1.222 -2.8627  0.9252 -0.1826
  184MOL   C10648052   3.098   4.356   1.189  0.5193 -0.0196  0.4631
  184MOL   C10748053   2.978   4.407   1.273 -0.0079 -0.6123  0.0825
  184MOL   C10848054   2.849   4.433   1.237 -0.3728  0.6567  1.2875
  184MOL   C10948055   2.783   4.409   1.099  0.5863 -0.3198  0.0562
  184MOL   C11048056   2.744   4.488   1.338 -0.0482 -0.6442 -0.3305
  184MOL   H11148057   3.151   4.277   1.242  3.8590  0.6852 -1.7108
  184MOL   H11248058   3.059   4.304   1.102  3.3094  1.0340 -1.4932
  184MOL   H11348059   3.015   4.438   1.370 -0.0835 -1.5279  0.4183
  184MOL   H11448060   2.753   4.501   1.049  0.5979 -0.4523 -0.1895
  184MOL   H11548061   2.704   4.336   1.113 -1.0711  1.6100  1.1637
  184MOL   H11648062   2.855   4.365   1.031 -0.4009 -0.1853 -1.0841
  184MOL   H11748063   2.785   4.463   1.436  0.7456 -0.6702 -0.6591
  184MOL   H11848064   2.652   4.429   1.336  1.8981 -3.9353  1.6012
  184MOL   C11948065   2.730   4.638   1.323 -0.2608  0.1429 -0.1972
  184MOL   C12048066   2.656   4.708   1.438 -0.3945 -0.2712  0.4264
  184MOL   C12148067   2.566   4.805   1.437  0.3454 -0.6904 -0.9508
  184MOL   C12248068   2.530   4.887   1.314  0.4392 -0.3320  0.4516
  184MOL   C12348069   2.496   4.850   1.567  0.5460  0.0647 -0.2394
  184MOL   H12448070   2.697   4.667   1.223  0.3688  3.7025  0.5572
  184MOL   H12548071   2.833   4.671   1.335 -0.0454  0.2425 -2.2254
  184MOL   H12648072   2.674   4.668   1.536  0.8051 -1.2530 -0.1864
  184MOL   H12748073   2.553   4.992   1.334  0.5020  0.0872 -1.7545
  184MOL   H12848074   2.424   4.883   1.288  0.3962 -0.2731  0.6164
  184MOL   H12948075   2.585   4.862   1.224  1.8461  0.2520  1.1300
  184MOL   H13048076   2.535   4.949   1.588  0.8199  0.3388 -1.9136
  184MOL   H13148077   2.511   4.783   1.651  0.9044  1.2221  0.6247
  184MOL   C13248078   2.345   4.848   1.559 -0.0462  0.3089  0.0449
  184MOL   C13348079   2.285   4.875   1.693  0.8061  0.5682  0.1117
  184MOL   C13448080   2.222   4.984   1.737 -0.2494 -0.5906  0.0183
  184MOL   C13548081   2.209   5.109   1.644  0.6437  0.3257 -0.0367
  184MOL   C13648082   2.156   4.990   1.875 -0.0485  0.1249 -0.0804
  184MOL   H13748083   2.325   4.747   1.520 -2.0577  0.3360  0.9210
  184MOL   H13848084   2.307   4.919   1.486 -0.5379 -1.1147 -1.1339
  184MOL   H13948085   2.302   4.811   1.779  0.5780 -0.4075 -0.5588
  184MOL   H14048086   2.128   5.093   1.573  1.0576 -0.2467 -0.3817
  184MOL   H14148087   2.306   5.105   1.594  0.4464  2.2853 -0.6216
  184MOL   H14248088   2.196   5.200   1.702  1.5247 -0.3271  1.1950
  184MOL   H14348089   2.142   4.891   1.917  1.0667  0.2569  0.6360
  184MOL   H14448090   2.060   5.033   1.849 -1.0995 -0.4645  2.7412
  184MOL   C14548091   2.240   5.073   1.974  0.1770  0.6413  0.1194
  184MOL   C14648092   2.201   5.061   2.122 -0.0659 -0.0776  0.6633
  184MOL   C14748093   2.238   4.966   2.206  0.2752  0.1287 -0.1415
  184MOL   C14848094   2.317   4.840   2.180 -1.0088  0.5683  0.0115
  184MOL   C14948095   2.194   4.980   2.351 -0.2798 -0.1474 -0.7085
  184MOL   H15048096   2.233   5.176   1.939  1.9374  1.3564  1.7961
  184MOL   H15148097   2.344   5.044   1.968  0.0457  0.2315 -0.2164
  184MOL   H15248098   2.144   5.141   2.166  0.2553 -1.1716  3.1434
  184MOL   H15348099   2.385   4.805   2.257  2.0724  0.5604 -2.5825
  184MOL   H15448100   2.378   4.849   2.090 -0.9147 -0.2436 -0.0139
  184MOL   H15548101   2.245   4.758   2.169  1.3128 -1.6752  1.0762
  184MOL   H15648102   2.179   5.085   2.373  0.8426  0.0145 -0.6829
  184MOL   H15748103   2.276   4.937   2.410  1.3769 -0.1036 -2.9247
  184MOL   C15848104   2.070   4.894   2.392  0.3844  0.9320  0.5653
  184MOL   C15948105   2.047   4.907   2.543 -0.4160  0.5967  0.0156
  184MOL   C16048106   1.935   4.944   2.615 -0.2582  0.3587 -0.2954
  184MOL   C16148107   1.808   4.992   2.551 -0.0361 -0.0043  0.1827
  184MOL   C16248108   1.927   4.943   2.766  0.7539  0.5486 -0.1467
  184MOL   H16348109   2.094   4.789   2.374 -3.1970  0.3498 -1.1681
  184MOL   H16448110   1.984   4.915   2.329 -1.1765 -2.4864  1.4421
  184MOL   H16548111   2.129   4.873   2.605 -0.6549  0.1796  0.1055
  184MOL   H16648112   1.814   4.992   2.442  1.5109  0.6627  0.2460
  184MOL   H16748113   1.784   5.097   2.571  0.8041  0.5565 -1.5800
  184MOL   H16848114   1.726   4.927   2.579  0.6422  0.1340  2.6247
  184MOL   H16948115   2.020   4.897   2.799  0.4396  0.2153  0.2760
  184MOL   H17048116   1.838   4.887   2.795  0.5478  1.0340  0.1781
  184MOL   C17148117   1.934   5.091   2.822 -0.0221 -0.1238  0.1234
  184MOL   C17248118   1.969   5.085   2.973 -0.8206 -0.5049  0.1618
  184MOL   C17348119   2.081   5.138   3.033  0.0513  0.3302 -0.2802
  184MOL   C17448120   2.183   5.220   2.959  0.4382 -0.0978  0.6400
  184MOL   C17548121   2.102   5.135   3.179  0.9808 -0.7808 -0.0592
  184MOL   H17648122   1.840   5.139   2.799 -2.5311 -3.6584  2.4086
  184MOL   H17748123   2.015   5.138   2.766 -0.8555  1.2840  0.0954
  184MOL   H17848124   1.899   5.025   3.031 -0.6838 -1.5187 -0.7167
  184MOL   H17948125   2.133   5.316   2.953  1.2417  0.1778 -2.3685
  184MOL   H18048126   2.210   5.189   2.858  0.3387 -2.3362  1.2793
  184MOL   H18148127   2.279   5.228   3.010  1.2597 -0.3814 -0.8345
  184MOL   H18248128   2.009   5.098   3.222  0.0752  2.7416  1.1828
  184MOL   H18348129   2.122   5.233   3.221 -0.0823 -0.7965  0.5125
  184MOL   C18448130   2.215   5.038   3.226 -0.1991 -0.1526 -0.0365
  184MOL   C18548131   2.186   4.893   3.191 -0.0003  0.2439 -0.0644
  184MOL   C18648132   2.241   4.827   3.092  0.0449  0.1079  0.3177
  184MOL   C18748133   2.352   4.889   2.999 -0.2888  0.6320  0.3381
  184MOL   C18848134   2.198   4.683   3.045  0.4367  0.0651  0.6017
  184MOL   H18948135   2.216   5.043   3.335 -0.0828 -1.1711  0.0176
  184MOL   H19048136   2.314   5.068   3.191  0.3082 -2.0337 -0.2867
  184MOL   H19148137   2.100   4.845   3.236 -1.6130  1.5710 -1.6781
  184MOL   H19248138   2.421   4.811   2.965 -1.3745 -0.0263 -0.3705
  184MOL   H19348139   2.417   4.961   3.049 -1.7506  1.6861  0.7588
  184MOL   H19448140   2.294   4.936   2.920 -0.5739  2.0816  1.3975
  184MOL   H19548141   2.143   4.630   3.123  1.2827  1.4514  2.1893
  184MOL   H19648142   2.277   4.613   3.018 -2.3800 -2.0576 -2.3759
  184MOL   C19748143   2.117   4.694   2.922 -0.5641  0.0692  0.1895
  184MOL   C19848144   2.083   4.554   2.879 -0.1276  0.0843  0.4935
  184MOL   C19948145   1.958   4.504   2.880  0.8258 -0.0340 -0.0217
  184MOL   C20048146   1.837   4.574   2.945 -0.3634 -0.2264  0.3541
  184MOL   C20148147   1.920   4.362   2.849  0.0532 -0.4300  0.4775
  184MOL   H20248148   2.177   4.736   2.841 -2.5101  1.4007 -0.5776
  184MOL   H20348149   2.032   4.758   2.945 -0.9757 -0.2121 -0.5542
  184MOL   H20448150   2.169   4.498   2.844  0.7085  2.1983 -0.8847
  184MOL   H20548151   1.793   4.651   2.883  1.5199 -1.6559 -2.9179
  184MOL   H20648152   1.867   4.611   3.043 -0.2894 -2.4475  1.2085
  184MOL   H20748153   1.762   4.497   2.959 -1.0436  0.5443  0.9696
  184MOL   H20848154   1.829   4.365   2.788  0.8389  0.0792 -0.6952
  184MOL   H20948155   1.889   4.307   2.938  0.3625 -0.4229  0.5868
  184MOL   C21048156   2.014   4.285   2.751  0.5539  0.0578  0.1837
  184MOL   C21148157   2.044   4.368   2.626 -0.0216 -0.6014  0.4427
  184MOL   C21248158   2.140   4.351   2.533  0.5686 -0.7528  0.0312
  184MOL   C21348159   2.232   4.229   2.535  0.1139 -0.8866 -0.1238
  184MOL   C21448160   2.143   4.451   2.413  0.6898 -0.8868  0.2426
  184MOL   H21548161   1.977   4.185   2.731 -0.9497  0.0922  2.5694
  184MOL   H21648162   2.102   4.265   2.812  1.4969  1.3036 -0.7263
  184MOL   H21748163   1.993   4.462   2.612 -1.0219 -1.2666 -0.4554
  184MOL   H21848164   2.338   4.258   2.536  0.0131 -0.5250  0.4722
  184MOL   H21948165   2.217   4.172   2.443  1.0677  1.6986 -1.9566
  184MOL   H22048166   2.211   4.166   2.621  0.3155  0.9159  1.2746
  184MOL   H22148167   2.074   4.530   2.442  0.6101 -0.5164 -0.9670
  184MOL   H22248168   2.105   4.403   2.323 -0.2825  0.3430 -0.0148
  184MOL   C22348169   2.280   4.519   2.390 -0.2503  0.2190 -0.7782
  184MOL   C22448170   2.329   4.609   2.508  1.1941  0.5678  0.9398
  184MOL   C22548171   2.440   4.608   2.582 -0.1583 -0.0820  0.0642
  184MOL   C22648172   2.555   4.513   2.563 -0.3476 -0.2448 -0.1515
  184MOL   C22748173   2.464   4.720   2.673  0.4581  0.2326 -0.4578
  184MOL   H22848174   2.290   4.566   2.292  1.7776 -0.8250 -1.0992
  184MOL   H22948175   2.357   4.443   2.378  0.5025  1.2982 -3.1032
  184MOL   H23048176   2.270   4.697   2.530  2.4818  1.7475 -0.2288
  184MOL   H23148177   2.539   4.414   2.522 -1.1780 -0.7634  1.3939
  184MOL   H23248178   2.622   4.513   2.650 -0.6430  2.2481  0.1259
  184MOL   H23348179   2.622   4.551   2.486  0.1027 -0.6652  0.0276
  184MOL   H23448180   2.535   4.689   2.750 -0.0697  1.8865  0.7452
  184MOL   H23548181   2.371   4.742   2.726  0.9137 -0.2982  0.5789
  184MOL   C23648182   2.526   4.843   2.605 -0.4091 -0.2154 -0.0862
  184MOL   C23748183   2.551   4.958   2.705 -0.2764  0.5695  0.7039
  184MOL   C23848184   2.529   5.092   2.687  0.2365  0.7482 -0.0125
  184MOL   C23948185   2.468   5.145   2.557  0.7565 -0.0877  0.5546
  184MOL   C24048186   2.541   5.188   2.804 -0.0220  0.5196  0.5220
  184MOL   H24148187   2.459   4.885   2.530 -0.6210 -1.0652 -0.3813
  184MOL   H24248188   2.617   4.802   2.560  0.3042  1.6795 -0.3961
  184MOL   H24348189   2.590   4.925   2.800  3.2695  1.4804 -0.3475
  184MOL   H24448190   2.528   5.233   2.535  0.0598  0.6521  1.5790
  184MOL   H24548191   2.362   5.168   2.570  0.6302  1.0244 -1.9786
  184MOL   H24648192   2.484   5.085   2.467  2.1771 -2.6049  2.4495
  184MOL   H24748193   2.545   5.126   2.893  3.5388 -1.6216 -1.0251
  184MOL   H24848194   2.450   5.248   2.811  0.4312  1.8034 -3.4071
  184MOL   C24948195   2.656   5.289   2.788 -0.5748 -0.5978 -0.4050
  184MOL   C25048196   2.695   5.371   2.912 -0.1853  0.4180  0.5910
  184MOL   C25148197   2.819   5.420   2.944  0.3201 -0.5430  0.1177
  184MOL   C25248198   2.944   5.391   2.861 -0.1013 -0.4236 -0.5475
  184MOL   C25348199   2.833   5.524   3.059 -0.1458 -0.2255  0.7802
  184MOL   H25448200   2.619   5.366   2.721 -1.9635 -1.2294 -0.3761
  184MOL   H25548201   2.743   5.229   2.761 -0.8955  0.1203 -3.1339
  184MOL   H25648202   2.608   5.407   2.966 -2.2516  0.9586 -2.9267
  184MOL   H25748203   3.021   5.464   2.887 -0.7784  0.1021  0.0175
  184MOL   H25848204   2.929   5.388   2.753  4.1010 -2.7333 -1.1581
  184MOL   H25948205   2.981   5.293   2.890 -2.9292 -1.6694 -1.0159
  184MOL   H26048206   2.742   5.562   3.104 -1.0635 -0.7176 -0.6436
  184MOL   H26148207   2.888   5.611   3.024 -1.8690  0.2455 -0.7990
  184MOL   H26248208   2.891   5.475   3.138 -1.9030 -3.2319  0.2840
  185MOL     C148209   5.706   4.284   5.056 -0.0333 -0.2648  0.5465
  185MOL     C248210   5.706   4.377   4.936  0.4236  0.1705  0.1983
  185MOL     C348211   5.734   4.510   4.943  0.1276 -0.1259  0.3511
  185MOL     C448212   5.771   4.585   5.067 -0.4739 -0.6481  0.1611
  185MOL     C548213   5.725   4.601   4.818  0.8029  0.1339 -0.5944
  185MOL     H648214   5.674   4.183   5.032 -0.2379 -0.1724  0.4265
  185MOL     H748215   5.797   4.279   5.116  0.5573  2.4984 -0.0381
  185MOL     H848216   5.686   4.335   4.838  0.0679 -1.0840  0.7973
  185MOL     H948217   5.712   4.676   5.058  1.4414  0.3024 -3.5089
  185MOL    H1048218   5.877   4.608   5.082 -0.4871  0.2618 -1.1300
  185MOL    H1148219   5.754   4.533   5.162 -2.7060  1.0867  0.7501
  185MOL    H1248220   5.641   4.666   4.840 -0.0047 -0.4234 -1.9748
  185MOL    H1348221   5.698   4.538   4.734 -1.7893 -2.2714  1.9542
  185MOL    H1448222   5.637   4.319   5.132  0.7258  0.1406  1.0638
  185MOL    C1548223   5.859   4.680   4.786 -0.5289  0.4005 -0.4565
  185MOL    C1648224   5.863   4.764   4.660 -0.3628 -0.5455 -0.8858
  185MOL    C1748225   5.933   4.874   4.624 -0.0666 -0.4215  0.6647
  185MOL    C1848226   6.053   4.936   4.697  0.0564 -0.1314 -0.1518
  185MOL    C1948227   5.906   4.947   4.490 -0.0743  0.2620 -0.0677
  185MOL    H2048228   5.938   4.605   4.779 -3.5558 -3.0152  0.4454
  185MOL    H2148229   5.888   4.744   4.870 -0.3225  0.9329 -0.9332
  185MOL    H2248230   5.794   4.722   4.588 -0.2554  0.0660 -1.3454
  185MOL    H2348231   6.076   4.886   4.791 -0.6667  1.2513  0.7903
  185MOL    H2448232   6.012   5.036   4.716 -0.0343 -0.3851  1.0473
  185MOL    H2548233   6.143   4.955   4.639 -0.2861  0.8804 -0.3647
  185MOL    H2648234   5.828   4.893   4.437  0.1503  1.1923 -1.3656
  185MOL    H2748235   5.992   4.930   4.427 -0.2820  2.1676 -0.9000
  185MOL    C2848236   5.859   5.100   4.510  0.0155  0.5298 -0.1946
  185MOL    C2948237   5.727   5.118   4.579 -0.0259 -0.0438 -0.4370
  185MOL    C3048238   5.601   5.131   4.537 -0.0678 -0.7407 -0.1704
  185MOL    C3148239   5.570   5.096   4.399 -0.1102 -0.2200  0.3536
  185MOL    C3248240   5.484   5.157   4.627 -0.2644  0.7146  0.0669
  185MOL    H3348241   5.864   5.155   4.415  1.9823 -0.9518 -0.9739
  185MOL    H3448242   5.932   5.163   4.562  1.6222 -0.2117 -1.5034
  185MOL    H3548243   5.725   5.127   4.687 -2.3678  1.9777 -0.6122
  185MOL    H3648244   5.658   5.099   4.335 -0.5795 -0.2926 -0.3101
  185MOL    H3748245   5.498   5.173   4.371 -1.4700 -1.1325  1.2766
  185MOL    H3848246   5.521   5.000   4.381 -2.8394  1.1024  0.4590
  185MOL    H3948247   5.522   5.148   4.728  1.5316  0.0422 -0.6359
  185MOL    H4048248   5.415   5.075   4.610  2.2652 -1.7232  1.1579
  185MOL    C4148249   5.426   5.305   4.605 -0.5060 -0.1512  0.2514
  185MOL    C4248250   5.313   5.341   4.696 -0.1170 -0.0740 -0.4902
  185MOL    C4348251   5.306   5.429   4.800 -0.3751 -0.3981  0.7588
  185MOL    C4448252   5.428   5.507   4.848 -0.5662  0.0948 -0.5639
  185MOL    C4548253   5.169   5.457   4.863 -0.1165  1.0268  0.3990
  185MOL    H4648254   5.398   5.324   4.502  0.6168 -0.2331 -0.0791
  185MOL    H4748255   5.507   5.378   4.607  0.6481 -1.3879 -0.1627
  185MOL    H4848256   5.219   5.295   4.670 -0.2042  0.1597 -0.5964
  185MOL    H4948257   5.425   5.513   4.956 -3.0931 -0.7040 -0.5593
  185MOL    H5048258   5.411   5.606   4.806 -0.6285  0.4352  0.2566
  185MOL    H5148259   5.521   5.464   4.811 -0.8287 -0.7137 -0.2847
  185MOL    H5248260   5.188   5.433   4.968 -0.3030 -2.0889 -0.2091
  185MOL    H5348261   5.097   5.377   4.842 -0.1172  1.7389 -2.5001
  185MOL    C5448262   5.129   5.601   4.842  0.0687  0.6107  0.0723
  185MOL    C5548263   4.997   5.625   4.905  0.3311 -0.9004 -0.1065
  185MOL    C5648264   4.877   5.632   4.848 -0.1382  0.4238  0.0076
  185MOL    C5748265   4.856   5.603   4.699  0.8893 -0.0189  0.6545
  185MOL    C5848266   4.749   5.650   4.925  0.4991  0.8304  0.1476
  185MOL    H5948267   5.141   5.617   4.735 -1.5791 -0.2310 -0.2503
  185MOL    H6048268   5.203   5.660   4.897 -0.3867 -0.3780  1.7995
  185MOL    H6148269   5.006   5.640   5.012 -0.4442 -3.0768  0.2839
  185MOL    H6248270   4.930   5.527   4.672  1.5947  0.6627  0.6672
  185MOL    H6348271   4.863   5.690   4.634 -1.5836  0.0108  0.3796
  185MOL    H6448272   4.753   5.570   4.683  0.3152  1.6704  0.8422
  185MOL    H6548273   4.765   5.638   5.032  1.6623 -1.6846 -0.2698
  185MOL    H6648274   4.685   5.567   4.892  1.1893  1.0498 -1.8157
  185MOL    C6748275   4.692   5.793   4.906  0.8894  0.1586 -0.5106
  185MOL    C6848276   4.549   5.796   4.966 -0.5670 -0.6013  0.5516
  185MOL    C6948277   4.507   5.870   5.069 -0.1214  0.6107 -0.3376
  185MOL    C7048278   4.587   5.981   5.131  0.1528 -0.2466  0.1023
  185MOL    C7148279   4.365   5.845   5.124  0.4171 -0.2600  0.1544
  185MOL    H7248280   4.684   5.813   4.799 -2.8232  1.2582 -0.1270
  185MOL    H7348281   4.753   5.872   4.947  0.1079  0.6227 -0.2244
  185MOL    H7448282   4.474   5.725   4.935  0.4714 -1.0429 -1.0045
  185MOL    H7548283   4.694   5.960   5.125 -0.0620 -1.6967  0.9133
  185MOL    H7648284   4.573   5.992   5.239 -0.3153  1.0978 -0.0899
  185MOL    H7748285   4.559   6.074   5.082 -1.1218 -0.5749  0.2071
  185MOL    H7848286   4.357   5.855   5.232 -0.8100 -0.2273  0.0713
  185MOL    H7948287   4.335   5.743   5.103 -1.8824  1.0279 -3.3806
  185MOL    C8048288   4.256   5.936   5.071  0.2804 -0.0917 -0.8000
  185MOL    C8148289   4.127   5.903   5.142 -0.0719  0.3323  0.0117
  185MOL    C8248290   4.010   5.969   5.126 -0.1607 -0.0707  0.9379
  185MOL    C8348291   3.995   6.078   5.021  0.5477 -0.8041  0.6015
  185MOL    C8448292   3.893   5.961   5.217 -0.3399  0.3525 -0.1779
  185MOL    H8548293   4.237   5.919   4.965  0.5967 -0.2637 -0.8316
  185MOL    H8648294   4.280   6.041   5.083  0.6476 -0.5528  3.3568
  185MOL    H8748295   4.120   5.828   5.219 -3.6434  0.5836  0.0249
  185MOL    H8848296   4.003   6.175   5.070 -1.4942 -0.1870 -0.2445
  185MOL    H8948297   3.903   6.070   4.964  1.3203 -1.4517 -0.5732
  185MOL    H9048298   4.079   6.068   4.951  0.7960  1.0077  0.6200
  185MOL    H9148299   3.812   5.911   5.163 -0.3652  0.6144 -0.3874
  185MOL    H9248300   3.857   6.062   5.234 -0.8249  0.4493 -1.7176
  185MOL    C9348301   3.923   5.907   5.356  0.3278 -0.3186 -0.5542
  185MOL    C9448302   3.803   5.949   5.439 -0.0332  0.4626 -0.0179
  185MOL    C9548303   3.811   6.008   5.562 -0.4496  0.0184 -0.5178
  185MOL    C9648304   3.942   6.056   5.620 -0.2213  0.3459  0.2745
  185MOL    C9748305   3.686   6.038   5.644 -0.3410  1.0853  0.4225
  185MOL    H9848306   4.015   5.945   5.401 -1.6492  3.4454  0.4850
  185MOL    H9948307   3.922   5.798   5.353 -1.3414 -0.2803 -1.5162
  185MOL   H10048308   3.707   5.909   5.409  1.1063 -2.5650  0.1376
  185MOL   H10148309   3.980   5.997   5.703  0.1856 -2.1111 -1.6226
  185MOL   H10248310   3.939   6.156   5.665  0.5377  0.1373  0.8047
  185MOL   H10348311   4.030   6.075   5.558  0.6175 -0.6718  1.1214
  185MOL   H10448312   3.648   6.140   5.636 -0.8056  0.8773 -0.0008
  185MOL   H10548313   3.732   6.049   5.742  1.2770  0.7090 -0.2830
  185MOL   C10648314   3.589   5.925   5.657  0.0227  0.0831  0.1207
  185MOL   C10748315   3.478   5.950   5.755 -0.1093  1.0891 -0.2739
  185MOL   C10848316   3.431   5.859   5.847  0.2796 -0.0323  0.6975
  185MOL   C10948317   3.466   5.711   5.839 -0.1768  0.6202 -0.1815
  185MOL   C11048318   3.332   5.899   5.958 -0.0024  0.2174 -0.1021
  185MOL   H11148319   3.648   5.846   5.704  0.8513  1.3571  1.2549
  185MOL   H11248320   3.543   5.901   5.561  0.5198  1.8064 -0.5655
  185MOL   H11348321   3.445   6.053   5.754  1.6019  1.6663  0.2310
  185MOL   H11448322   3.561   5.686   5.888 -0.1474 -0.1106 -0.6062
  185MOL   H11548323   3.473   5.667   5.740  0.8116  2.1290 -0.8061
  185MOL   H11648324   3.393   5.651   5.892 -0.5705  1.4593  0.2430
  185MOL   H11748325   3.235   5.852   5.947 -0.6677  1.5210  0.1495
  185MOL   H11848326   3.324   6.007   5.945  1.1849  0.4036  0.6038
  185MOL   C11948327   3.402   5.879   6.099 -0.1696  0.9761  0.5902
  185MOL   C12048328   3.496   5.989   6.138  0.2755 -0.3815  0.2624
  185MOL   C12148329   3.626   5.986   6.149 -0.8267 -0.4887 -0.8745
  185MOL   C12248330   3.719   5.868   6.108  0.1080 -0.1235 -0.0212
  185MOL   C12348331   3.692   6.115   6.185  0.8809 -0.9011 -0.0247
  185MOL   H12448332   3.444   5.780   6.117  0.8220  0.5608 -3.5815
  185MOL   H12548333   3.320   5.892   6.170  0.2081  0.3105  1.1515
  185MOL   H12648334   3.449   6.086   6.147 -2.3544 -1.6170  0.1422
  185MOL   H12748335   3.658   5.797   6.052  0.8808  1.1640 -2.5387
  185MOL   H12848336   3.740   5.809   6.197  0.5821  1.6606  1.0740
  185MOL   H12948337   3.813   5.889   6.057 -0.2140  1.7769  0.1575
  185MOL   H13048338   3.772   6.104   6.258  1.8635 -1.7663 -1.1938
  185MOL   H13148339   3.624   6.172   6.247  1.3709 -1.6691  1.2432
  185MOL   C13248340   3.755   6.202   6.072 -0.5163 -0.0126 -0.0285
  185MOL   C13348341   3.662   6.258   5.966  0.6344  0.4003 -0.4294
  185MOL   C13448342   3.641   6.386   5.937 -0.4482  0.1836  0.8039
  185MOL   C13548343   3.705   6.496   6.019 -0.2370 -1.0453 -0.3349
  185MOL   C13648344   3.553   6.411   5.809 -0.1638 -1.0714  0.5197
  185MOL   H13748345   3.826   6.136   6.022  0.2532  0.5014  0.3858
  185MOL   H13848346   3.820   6.279   6.112 -1.2690 -0.3132  1.8129
  185MOL   H13948347   3.613   6.188   5.900 -0.3200 -1.5568  2.2368
  185MOL   H14048348   3.795   6.520   5.963 -0.4921 -0.6466 -0.5818
  185MOL   H14148349   3.726   6.465   6.122  0.3765 -0.2189 -0.1974
  185MOL   H14248350   3.635   6.580   6.026 -0.6317 -1.4395  0.5210
  185MOL   H14348351   3.467   6.475   5.831  1.5272  0.7756  1.8901
  185MOL   H14448352   3.515   6.324   5.755 -0.0919  0.0699 -1.4097
  185MOL   C14548353   3.634   6.475   5.697 -0.2702  0.0008  0.2093
  185MOL   C14648354   3.568   6.449   5.561  0.7488 -0.0114 -0.0974
  185MOL   C14748355   3.627   6.392   5.452  1.0322  0.1345  0.5645
  185MOL   C14848356   3.771   6.355   5.443 -0.7351  0.3088  0.5364
  185MOL   C14948357   3.551   6.369   5.324 -0.5516 -0.0370  0.2358
  185MOL   H15048358   3.734   6.431   5.693 -0.6050 -0.6243 -1.4715
  185MOL   H15148359   3.646   6.582   5.712  0.5847 -0.4700  3.3647
  185MOL   H15248360   3.464   6.476   5.553  0.5505 -1.4584 -2.9509
  185MOL   H15348361   3.819   6.337   5.539 -0.4963 -0.5119  0.2641
  185MOL   H15448362   3.836   6.428   5.394  2.0072 -1.3755  1.5242
  185MOL   H15548363   3.790   6.265   5.384  0.8047 -1.6086  3.8718
  185MOL   H15648364   3.616   6.408   5.246 -1.4117 -2.3286 -1.6895
  185MOL   H15748365   3.458   6.424   5.329  0.2566  1.3291  0.3750
  185MOL   C15848366   3.521   6.221   5.286 -0.5592 -0.4516  0.5461
  185MOL   C15948367   3.433   6.207   5.167  0.0525 -0.0902  0.6137
  185MOL   C16048368   3.474   6.181   5.038  0.1985 -0.2609  0.5113
  185MOL   C16148369   3.615   6.174   4.995 -0.4628 -0.0787  0.1085
  185MOL   C16248370   3.376   6.191   4.926  0.1933 -0.6360  0.3665
  185MOL   H16348371   3.486   6.170   5.375 -3.5020  0.0831 -0.2352
  185MOL   H16448372   3.609   6.162   5.260 -1.1987 -0.9634 -0.4982
  185MOL   H16548373   3.328   6.216   5.188  0.1878  1.4435  0.6648
  185MOL   H16648374   3.665   6.244   5.062 -1.0440  0.9072 -0.4719
  185MOL   H16748375   3.636   6.208   4.893  1.2349 -1.8143 -0.1493
  185MOL   H16848376   3.658   6.074   4.994 -0.9837 -0.3087  0.4776
  185MOL   H16948377   3.395   6.286   4.877 -0.1498 -0.6279  0.2468
  185MOL   H17048378   3.272   6.197   4.960  0.6529 -1.1782  1.9290
  185MOL   C17148379   3.394   6.073   4.817  0.2881 -0.8807 -0.3489
  185MOL   C17248380   3.308   6.106   4.694  0.2830  0.0332 -0.4287
  185MOL   C17348381   3.333   6.064   4.570 -0.1186 -0.3313  0.1131
  185MOL   C17448382   3.442   5.973   4.523 -0.6772  0.0117  0.8996
  185MOL   C17548383   3.248   6.107   4.451 -0.2556  0.4110  0.0449
  185MOL   H17648384   3.348   5.984   4.861  0.3623 -1.0686 -0.6549
  185MOL   H17748385   3.500   6.064   4.795  0.6417 -1.9091  1.6871
  185MOL   H17848386   3.209   6.148   4.704 -0.1790 -1.6029  2.3404
  185MOL   H17948387   3.483   5.924   4.611  1.1273 -2.0334 -1.0265
  185MOL   H18048388   3.517   6.036   4.476  0.5186 -1.0826  1.3007
  185MOL   H18148389   3.419   5.909   4.438  0.5464  1.5831 -0.6514
  185MOL   H18248390   3.174   6.172   4.497 -1.2477 -0.8993  0.3121
  185MOL   H18348391   3.194   6.019   4.419 -1.1836  0.3551  1.6861
  185MOL   C18448392   3.327   6.170   4.334  0.1459 -0.2883 -0.3131
  185MOL   C18548393   3.242   6.216   4.214  0.2197  0.1936 -0.3886
  185MOL   C18648394   3.256   6.332   4.149  0.0239  0.0357  0.0394
  185MOL   C18748395   3.370   6.436   4.179 -0.0897 -0.0652 -0.0477
  185MOL   C18848396   3.171   6.378   4.031  0.2548 -0.5925 -0.0673
  185MOL   H18948397   3.399   6.103   4.287 -2.2825 -0.6156 -3.7166
  185MOL   H19048398   3.386   6.258   4.361 -0.1878 -0.1894  0.1138
  185MOL   H19148399   3.180   6.136   4.174  0.7732  0.4079 -1.6771
  185MOL   H19248400   3.325   6.535   4.169 -0.2676 -0.1667 -0.2695
  185MOL   H19348401   3.454   6.419   4.113 -1.8699 -1.1186 -2.1117
  185MOL   H19448402   3.407   6.431   4.281  0.5243  2.4832 -0.1312
  185MOL   H19548403   3.110   6.302   3.983 -0.0473  0.1317 -0.8332
  185MOL   H19648404   3.237   6.407   3.950  1.3106 -1.7033  0.3656
  185MOL   C19748405   3.080   6.486   4.075 -0.0725 -0.1136  0.4797
  185MOL   C19848406   2.975   6.510   3.970 -0.1243  1.0208 -0.6028
  185MOL   C19948407   2.967   6.610   3.884 -0.5794 -0.3179  0.2533
  185MOL   C20048408   3.069   6.720   3.877  0.0055  0.8302  0.6105
  185MOL   C20148409   2.854   6.626   3.779  0.2180  0.2271  0.0365
  185MOL   H20248410   3.132   6.580   4.095 -1.2515  0.9072 -1.1763
  185MOL   H20348411   3.029   6.472   4.170 -1.3161  1.2028  0.0176
  185MOL   H20448412   2.899   6.433   3.971 -0.4028  1.2955  0.6886
  185MOL   H20548413   3.016   6.808   3.914 -0.9423  0.1590  0.9003
  185MOL   H20648414   3.099   6.738   3.774 -2.1776 -1.7594 -0.5553
  185MOL   H20748415   3.151   6.698   3.945  0.2150  2.0382  0.7556
  185MOL   H20848416   2.831   6.732   3.770  1.3011  0.7796  3.0070
  185MOL   H20948417   2.767   6.570   3.815  0.0720 -0.2575 -1.0642
  185MOL   C21048418   2.904   6.568   3.646 -0.4879  0.1443 -0.3122
  185MOL   C21148419   2.801   6.568   3.536 -0.2943  0.4476  0.1800
  185MOL   C21248420   2.762   6.469   3.449 -0.1466  0.4505 -0.3206
  185MOL   C21348421   2.813   6.322   3.462  0.5965 -0.0652  0.2122
  185MOL   C21448422   2.658   6.493   3.334  0.2533 -0.6901 -0.0472
  185MOL   H21548423   2.941   6.466   3.656  0.0114  0.4463  1.0338
  185MOL   H21648424   2.978   6.637   3.604 -0.7083  0.5388 -0.0629
  185MOL   H21748425   2.761   6.667   3.519  2.0903  1.7230  1.7790
  185MOL   H21848426   2.745   6.257   3.516 -1.0803  1.3260 -0.1761
  185MOL   H21948427   2.919   6.310   3.487  1.5120  2.6997 -2.0061
  185MOL   H22048428   2.816   6.288   3.358 -2.2484  2.3985 -0.7506
  185MOL   H22148429   2.703   6.476   3.237 -0.0327  0.9651 -0.4818
  185MOL   H22248430   2.643   6.601   3.332  0.9355 -0.6220 -1.6111
  185MOL   C22348431   2.531   6.412   3.358  0.4181 -0.0471  0.1324
  185MOL   C22448432   2.443   6.400   3.229  0.0961 -0.5154  0.4198
  185MOL   C22548433   2.327   6.462   3.200  0.1910 -0.4206 -0.7454
  185MOL   C22648434   2.257   6.562   3.295 -0.4925 -0.0238 -0.3147
  185MOL   C22748435   2.247   6.437   3.069 -0.1502 -0.9169  0.2105
  185MOL   H22848436   2.467   6.436   3.443  0.9333  4.6040 -0.6210
  185MOL   H22948437   2.557   6.308   3.376  1.2571 -0.1594 -1.6619
  185MOL   H23048438   2.488   6.340   3.151  0.8838  0.2345  0.2845
  185MOL   H23148439   2.155   6.526   3.306 -0.3967  0.2147  1.6421
  185MOL   H23248440   2.258   6.669   3.272  1.5041  0.5313  2.0327
  185MOL   H23348441   2.301   6.549   3.394  1.3962  1.0334 -0.9834
  185MOL   H23448442   2.148   6.399   3.094 -0.2134 -0.6428  0.3884
  185MOL   H23548443   2.299   6.369   3.001  1.8723  1.5559 -0.7899
  185MOL   C23648444   2.244   6.560   2.985  0.0452 -0.2093  0.5254
  185MOL   C23748445   2.202   6.525   2.840 -0.5679  0.0726 -0.1072
  185MOL   C23848446   2.101   6.571   2.764 -0.4632  0.3564 -0.1290
  185MOL   C23948447   2.002   6.676   2.813  0.6320  0.1422 -0.3283
  185MOL   C24048448   2.077   6.512   2.619  0.5181 -0.4119  0.1163
  185MOL   H24148449   2.348   6.591   2.982 -0.8330  2.9137  0.7628
  185MOL   H24248450   2.186   6.646   3.020 -0.5725  0.2965 -1.6589
  185MOL   H24348451   2.262   6.448   2.795  0.8592 -0.1468  2.1162
  185MOL   H24448452   1.896   6.650   2.812 -0.3345  3.6393  1.6456
  185MOL   H24548453   2.023   6.769   2.759  1.4430  1.8953  2.8726
  185MOL   H24648454   2.022   6.693   2.919 -0.8224  0.9759 -0.1571
  185MOL   H24748455   1.990   6.447   2.625  0.3903 -0.1588  1.0532
  185MOL   H24848456   2.164   6.448   2.602  1.6406  0.9470  0.6596
  185MOL   C24948457   2.077   6.620   2.510  0.6095 -0.0069  0.5664
  185MOL   C25048458   2.171   6.584   2.387  0.0159  0.9476 -0.3511
  185MOL   C25148459   2.137   6.522   2.273 -0.3740  0.0306  0.4545
  185MOL   C25248460   1.997   6.478   2.243 -0.5906  0.3682  0.0725
  185MOL   C25348461   2.229   6.503   2.152 -0.0998 -0.6504  0.5895
  185MOL   H25448462   2.111   6.714   2.553 -0.7178  1.4017 -1.3494
  185MOL   H25548463   1.975   6.637   2.475  1.3508  0.9328 -1.2187
  185MOL   H25648464   2.270   6.623   2.402  0.6471 -1.4833  2.2065
  185MOL   H25748465   1.999   6.374   2.208 -0.0406  0.5372 -0.3979
  185MOL   H25848466   1.957   6.542   2.165 -0.8032  0.5922  0.3670
  185MOL   H25948467   1.931   6.486   2.330 -1.5825  1.6069 -0.7772
  185MOL   H26048468   2.165   6.514   2.064 -0.3747  0.6520  0.9343
  185MOL   H26148469   2.273   6.404   2.158 -1.5099 -1.3569 -0.2899
  185MOL   H26248470   2.304   6.582   2.148 -1.1045  0.2754 -0.4406
  186MOL     C148471   7.628   5.348   5.430  0.2684  0.4250  0.1258
  186MOL     C248472   7.669   5.287   5.292 -0.3677  0.1777  0.1035
  186MOL     C348473   7.731   5.352   5.191  0.2542 -0.0864 -0.1853
  186MOL     C448474   7.794   5.493   5.190  0.3051  0.2702  0.1380
  186MOL     C548475   7.754   5.281   5.059 -0.9924 -0.2797 -0.2687
  186MOL     H648476   7.596   5.278   5.507  0.5933  1.6882  1.4358
  186MOL     H748477   7.709   5.402   5.479  1.3903 -1.2577  0.1588
  186MOL     H848478   7.634   5.189   5.265 -0.8330  0.4410 -0.2685
  186MOL     H948479   7.756   5.540   5.099 -0.2636 -2.8895 -1.3152
  186MOL    H1048480   0.018   5.476   5.175  0.1430  0.9369 -1.8894
  186MOL    H1148481   7.792   5.551   5.282 -0.9198 -1.0032  0.9352
  186MOL    H1248482   7.720   5.355   4.986 -2.0233  0.4364  0.9161
  186MOL    H1348483   7.673   5.208   5.052 -0.1637 -1.1820 -0.6347
  186MOL    H1448484   7.545   5.413   5.402 -0.1361  0.9191  2.3992
  186MOL    C1548485   0.006   5.227   5.019 -0.1162 -0.2138 -0.8069
  186MOL    C1648486   0.002   5.136   4.899 -0.4797 -0.1381  0.6371
  186MOL    C1748487   0.057   5.011   4.876  0.4368 -0.9585 -0.4681
  186MOL    C1848488   0.130   4.931   4.988 -0.0478 -0.0815 -0.1935
  186MOL    C1948489   0.052   4.939   4.743  0.3443  0.1389  0.4684
  186MOL    H2048490   0.050   5.183   5.109  2.0337 -1.9978 -2.6504
  186MOL    H2148491   0.081   5.299   4.987  0.7277 -1.0818 -0.8112
  186MOL    H2248492   7.841   5.186   4.814 -2.0359 -1.1585  0.8206
  186MOL    H2348493   0.237   4.919   4.979  0.4308  2.3256  1.5611
  186MOL    H2448494   0.084   4.833   5.004  1.0582 -0.3588  1.4466
  186MOL    H2548495   0.124   4.989   5.080 -2.7199  0.7176 -0.8143
  186MOL    H2648496   0.153   4.909   4.716 -0.2997 -0.5440 -1.2160
  186MOL    H2748497   0.024   5.012   4.667 -0.8395  0.3418  1.0931
  186MOL    C2848498   7.828   4.825   4.732 -0.4833  0.0392  0.3139
  186MOL    C2948499   7.781   4.801   4.596  0.1449  0.2134  0.1690
  186MOL    C3048500   7.799   4.684   4.526 -0.3447  0.0848  0.2901
  186MOL    C3148501   0.013   4.575   4.585 -0.2386 -0.7344  0.1015
  186MOL    C3248502   7.754   4.656   4.382 -0.7338  0.1680  0.1449
  186MOL    H3348503   7.741   4.847   4.794 -0.9914  0.5335 -0.5608
  186MOL    H3448504   7.861   4.732   4.778  0.1720 -1.1766 -2.5071
  186MOL    H3548505   7.725   4.886   4.559 -0.5358 -1.0076 -1.7007
  186MOL    H3648506   7.868   4.550   4.687 -0.3755  0.7946  0.4630
  186MOL    H3748507   0.113   4.619   4.588  0.8726 -3.1629 -0.5319
  186MOL    H3848508   0.018   4.487   4.521  1.2053 -0.1708 -0.5751
  186MOL    H3948509   7.843   4.621   4.331 -0.6089 -1.4172  1.4212
  186MOL    H4048510   7.723   4.754   4.345  1.1262  0.6355 -0.2442
  186MOL    C4148511   7.640   4.563   4.377 -0.6119  0.2713 -0.5140
  186MOL    C4248512   7.508   4.632   4.413  0.4447  0.2295 -0.0910
  186MOL    C4348513   7.410   4.604   4.501 -0.2433 -0.0956  0.5071
  186MOL    C4448514   7.408   4.478   4.587 -0.4690 -0.8578  0.5623
  186MOL    C4548515   7.279   4.696   4.508 -0.0470 -0.1802 -0.7478
  186MOL    H4648516   7.654   4.467   4.427 -2.4692  0.5559  0.6269
  186MOL    H4748517   7.618   4.531   4.275 -3.1072  1.0409 -0.2680
  186MOL    H4848518   7.490   4.722   4.355 -2.9604  0.0380  0.5514
  186MOL    H4948519   7.437   4.502   4.689  2.2142 -0.6207 -0.2093
  186MOL    H5048520   7.488   4.413   4.550  1.1220  1.0994  0.4871
  186MOL    H5148521   7.307   4.441   4.573 -1.9222  3.0696  0.1602
  186MOL    H5248522   7.196   4.627   4.493 -0.1472  0.0907 -1.4338
  186MOL    H5348523   7.292   4.765   4.425  2.0559 -0.9027 -1.0465
  186MOL    C5448524   7.264   4.774   4.639 -0.7464  0.2121  0.0045
  186MOL    C5548525   7.133   4.860   4.628 -0.5481  0.5988 -0.1980
  186MOL    C5648526   7.035   4.854   4.711 -0.1551 -0.7766  0.3471
  186MOL    C5748527   7.022   4.749   4.822  0.5720  0.3669 -0.4411
  186MOL    C5848528   6.914   4.943   4.684  0.0437 -0.1150 -0.5534
  186MOL    H5948529   7.348   4.841   4.658  0.6551 -1.2097 -1.0390
  186MOL    H6048530   7.261   4.705   4.724 -4.1548  0.6080  0.2775
  186MOL    H6148531   7.135   4.928   4.545 -0.6093 -1.3168 -1.8174
  186MOL    H6248532   7.026   4.652   4.773 -2.5801 -0.4307  0.7942
  186MOL    H6348533   6.935   4.766   4.886  1.7239  1.0037  0.9668
  186MOL    H6448534   7.108   4.740   4.888  0.3624  0.4854 -0.1511
  186MOL    H6548535   6.832   4.875   4.662 -0.4526 -0.3850  2.0341
  186MOL    H6648536   6.925   5.017   4.605  1.2272 -0.6906 -0.9557
  186MOL    C6748537   6.868   5.021   4.810  0.3723 -0.0720 -0.3160
  186MOL    C6848538   6.748   5.103   4.780 -0.0086  0.9987  0.5215
  186MOL    C6948539   6.745   5.236   4.781 -0.6117 -0.1321  0.1376
  186MOL    C7048540   6.869   5.322   4.806 -0.5053  0.3289  0.4695
  186MOL    C7148541   6.613   5.311   4.733  0.4234 -0.5924 -0.2192
  186MOL    H7248542   6.945   5.063   4.874  0.9771 -2.7558  0.7914
  186MOL    H7348543   6.816   4.954   4.879 -0.4786 -0.0740 -0.9572
  186MOL    H7448544   6.662   5.050   4.741  0.1785  0.3771  0.9548
  186MOL    H7548545   6.889   5.394   4.727  0.1854  1.6575  1.8161
  186MOL    H7648546   6.956   5.257   4.810  0.7379  2.0145  2.5219
  186MOL    H7748547   6.853   5.383   4.896  0.4182 -1.6513  2.0074
  186MOL    H7848548   6.626   5.364   4.638  1.0346  0.2008  0.3037
  186MOL    H7948549   6.601   5.390   4.806  0.1735  0.7561 -1.6889
  186MOL    C8048550   6.474   5.243   4.730  0.8486 -0.3238 -0.0920
  186MOL    C8148551   6.360   5.345   4.722  0.6979 -0.4302  0.9401
  186MOL    C8248552   6.281   5.361   4.615 -0.8410  0.6414 -0.7738
  186MOL    C8348553   6.291   5.290   4.483 -0.2015 -0.6532 -0.2851
  186MOL    C8448554   6.183   5.478   4.613  0.0657  0.1932  0.5992
  186MOL    H8548555   6.459   5.183   4.820  0.7137 -0.4236 -0.1804
  186MOL    H8648556   6.474   5.172   4.647  1.4749 -1.8893  1.2261
  186MOL    H8748557   6.356   5.413   4.806  0.1648 -2.2387  2.4131
  186MOL    H8848558   6.215   5.212   4.492 -0.4783 -0.3674 -0.1488
  186MOL    H8948559   6.388   5.241   4.474  0.7896  1.5024 -1.9176
  186MOL    H9048560   6.277   5.367   4.407  0.0751  0.2522  0.5704
  186MOL    H9148561   6.097   5.439   4.558 -0.1828  1.6261 -0.0470
  186MOL    H9248562   6.211   5.555   4.541 -0.1997  0.6479  0.9851
  186MOL    C9348563   6.133   5.548   4.745  0.1452  0.2025  0.7135
  186MOL    C9448564   6.240   5.646   4.801 -0.0635 -0.0800 -0.3431
  186MOL    C9548565   6.269   5.667   4.930 -0.3697  0.2310 -0.5942
  186MOL    C9648566   6.209   5.584   5.047 -0.2016  0.5128 -0.2649
  186MOL    C9748567   6.378   5.761   4.981  0.2842 -0.4423  0.1711
  186MOL    H9848568   6.087   5.478   4.814 -0.0712 -1.7368 -1.3133
  186MOL    H9948569   6.045   5.605   4.715 -0.2552 -1.6693 -1.8808
  186MOL   H10048570   6.293   5.707   4.729 -1.2324  0.4581 -0.7630
  186MOL   H10148571   6.130   5.636   5.101 -1.8267 -2.2784  0.1532
  186MOL   H10248572   6.286   5.553   5.118  0.4337  0.3654 -1.0081
  186MOL   H10348573   6.166   5.489   5.015 -0.9172  0.5246  0.6630
  186MOL   H10448574   6.333   5.842   5.039  2.6852  2.7717 -2.2018
  186MOL   H10548575   6.408   5.827   4.899  0.6563  0.5772  1.1196
  186MOL   C10648576   6.499   5.694   5.035 -0.7484  0.7300  0.0967
  186MOL   C10748577   6.617   5.784   5.064  0.1120 -0.0434 -0.1353
  186MOL   C10848578   6.728   5.798   4.991 -0.2915  0.1005 -0.2551
  186MOL   C10948579   6.769   5.732   4.858  0.3156  0.3137  0.5021
  186MOL   C11048580   6.830   5.897   5.051  0.2767 -1.1009 -0.5035
  186MOL   H11148581   6.535   5.613   4.971 -0.1732  0.1207  1.1605
  186MOL   H11248582   6.480   5.641   5.129  1.2946  1.1713  0.7856
  186MOL   H11348583   6.606   5.829   5.162  2.5160  0.0727  0.1075
  186MOL   H11448584   6.864   5.682   4.872  0.6438  0.8068  0.0544
  186MOL   H11548585   6.774   5.810   4.782  0.0541 -0.0084  0.1526
  186MOL   H11648586   6.694   5.661   4.823  0.8125 -0.0363  0.1421
  186MOL   H11748587   6.771   5.967   5.111 -1.6873 -1.3824 -2.0668
  186MOL   H11848588   6.857   5.969   4.973 -0.9898  1.5929  1.4603
  186MOL   C11948589   6.939   5.827   5.133 -0.0018  0.5511 -0.5889
  186MOL   C12048590   7.001   5.929   5.217  0.2950 -0.1337  0.5582
  186MOL   C12148591   6.964   5.970   5.342 -0.3552  0.4815 -0.7060
  186MOL   C12248592   6.855   5.905   5.422 -0.3700  0.0065  0.1123
  186MOL   C12348593   7.047   6.073   5.423  0.4775  0.0358  0.1816
  186MOL   H12448594   7.013   5.782   5.066  3.5156  0.9491  2.8509
  186MOL   H12548595   6.902   5.748   5.197  0.6459  1.3438  0.7982
  186MOL   H12648596   7.078   5.988   5.169 -1.0514  0.2291 -1.2205
  186MOL   H12748597   6.779   5.977   5.453  0.5940  0.9148  0.3767
  186MOL   H12848598   6.887   5.862   5.517 -0.3919 -2.0826 -0.8044
  186MOL   H12948599   6.802   5.829   5.364  1.1127  0.0147 -1.2820
  186MOL   H13048600   7.153   6.086   5.400  0.6315  1.4743  1.5902
  186MOL   H13148601   7.056   6.038   5.526  2.5096 -2.2582 -0.7380
  186MOL   C13248602   6.977   6.206   5.421 -0.1157  0.3987 -0.1230
  186MOL   C13348603   7.059   6.314   5.500 -0.4336  0.3972  0.3149
  186MOL   C13448604   7.129   6.415   5.442 -0.2352  0.2956  0.0501
  186MOL   C13548605   7.137   6.445   5.290  0.1751 -0.2685 -0.1861
  186MOL   C13648606   7.216   6.505   5.530 -0.0112  0.3039  0.0710
  186MOL   H13748607   6.875   6.211   5.457  0.6371  1.3022  1.9189
  186MOL   H13848608   6.967   6.233   5.316 -0.8910  0.3401 -0.0635
  186MOL   H13948609   7.053   6.307   5.607 -1.1004 -0.9360  0.1958
  186MOL   H14048610   7.220   6.513   5.270 -0.2580  0.3756  0.1655
  186MOL   H14148611   7.043   6.482   5.248 -0.8441 -2.9389 -0.3221
  186MOL   H14248612   7.148   6.363   5.219  0.4648  1.0407 -1.6809
  186MOL   H14348613   7.187   6.484   5.633 -1.3878  1.3816 -0.0933
  186MOL   H14448614   7.188   6.610   5.528  1.1584  0.6413  0.6312
  186MOL   C14548615   7.367   6.489   5.505 -1.1645  0.2979  0.6095
  186MOL   C14648616   7.393   6.340   5.512 -1.0606 -0.9607 -0.3683
  186MOL   C14748617   7.512   6.280   5.484  0.4345 -0.2123  0.0286
  186MOL   C14848618   7.626   6.357   5.418  0.0791  0.0765 -0.2630
  186MOL   C14948619   7.527   6.135   5.524  0.0593  0.4809 -0.5044
  186MOL   H15048620   7.435   6.547   5.567 -0.3767  0.1945 -0.1424
  186MOL   H15148621   7.381   6.525   5.402  1.7383  0.3623  0.9888
  186MOL   H15248622   7.317   6.280   5.560  0.5711 -1.9334  1.0626
  186MOL   H15348623   7.696   6.378   5.498  1.4952  0.3023 -1.5317
  186MOL   H15448624   7.600   6.453   5.373  1.5986  0.6153  0.0133
  186MOL   H15548625   7.659   6.306   5.327 -2.0587 -1.6130 -0.1540
  186MOL   H15648626   7.546   6.065   5.443 -1.5952 -1.1130  0.4559
  186MOL   H15748627   7.439   6.095   5.574 -0.5434  2.1583 -0.1806
  186MOL   C15848628   7.651   6.115   5.611  0.1554  0.1221 -0.1923
  186MOL   C15948629   7.644   5.981   5.684 -0.3394  0.1540  0.4580
  186MOL   C16048630   7.704   5.869   5.641 -0.6533  0.3267  0.0746
  186MOL   C16148631   7.797   5.863   5.526 -0.2934 -0.2069  0.6596
  186MOL   C16248632   7.692   5.742   5.716  0.1409  0.2834 -1.0448
  186MOL   H16348633   7.669   6.190   5.687 -1.4973  0.4366 -0.0896
  186MOL   H16448634   7.744   6.122   5.555  1.2223 -2.5171  1.1529
  186MOL   H16548635   7.567   5.964   5.758  1.5741 -1.7694  2.0557
  186MOL   H16648636   7.760   5.926   5.445 -4.2148  0.4258  2.8438
  186MOL   H16748637   7.805   5.759   5.494  0.5798 -1.0794  3.5735
  186MOL   H16848638   0.013   5.889   5.565 -0.2053 -0.0746  0.3525
  186MOL   H16948639   7.661   5.759   5.818  0.5028  0.2680 -0.9310
  186MOL   H17048640   7.791   5.697   5.727 -0.1700 -0.7114 -2.1331
  186MOL   C17148641   7.593   5.637   5.652  0.2138 -0.5437  0.2812
  186MOL   C17248642   7.454   5.672   5.688  0.8450 -0.5401 -0.4884
  186MOL   C17348643   7.344   5.699   5.610 -0.1211  0.5037 -0.2252
  186MOL   C17448644   7.353   5.701   5.463  0.1872  0.0901  0.1473
  186MOL   C17548645   7.204   5.722   5.673 -0.6459 -0.5354  0.0249
  186MOL   H17648646   7.615   5.536   5.686 -1.3198 -0.4258  1.6755
  186MOL   H17748647   7.604   5.643   5.544  0.2178  1.3536  0.3628
  186MOL   H17848648   7.435   5.665   5.795  1.1140  0.2466 -0.3876
  186MOL   H17948649   7.269   5.754   5.418 -0.7284 -0.9845  0.5646
  186MOL   H18048650   7.366   5.603   5.418 -1.9278 -0.9933  1.7861
  186MOL   H18148651   7.444   5.753   5.434  1.3332 -1.9269  0.0303
  186MOL   H18248652   7.177   5.825   5.653 -0.9154 -0.1591  2.1649
  186MOL   H18348653   7.213   5.716   5.782  0.5257  1.5636  0.0487
  186MOL   C18448654   7.096   5.630   5.611 -0.1247 -0.6299  0.7970
  186MOL   C18548655   7.117   5.480   5.625  0.1449  0.4863  0.3860
  186MOL   C18648656   7.052   5.385   5.693  0.7107  0.1449  0.4406
  186MOL   C18748657   6.937   5.414   5.786 -0.2460 -0.5825 -0.5058
  186MOL   C18848658   7.090   5.238   5.688  1.1633  0.1142 -0.0158
  186MOL   H18948659   7.088   5.657   5.506 -0.2067  2.3640  1.5256
  186MOL   H19048660   7.001   5.655   5.659 -0.1931  0.2636  0.1943
  186MOL   H19148661   7.204   5.451   5.568 -0.9906 -0.0011 -1.1209
  186MOL   H19248662   6.938   5.353   5.876  2.1910 -0.8930 -0.7075
  186MOL   H19348663   6.839   5.401   5.740  0.2389 -1.4038 -1.3376
  186MOL   H19448664   6.929   5.515   5.825  0.7731 -0.1506 -1.4106
  186MOL   H19548665   7.128   5.198   5.782  1.5303 -0.0106 -0.2179
  186MOL   H19648666   7.175   5.253   5.621  0.5684  1.2417 -0.5460
  186MOL   C19748667   6.983   5.153   5.629  0.5398  0.8968 -0.0272
  186MOL   C19848668   7.036   5.018   5.588 -0.0295 -0.5730  0.3986
  186MOL   C19948669   7.024   4.905   5.661 -0.2645 -0.3562 -0.5700
  186MOL   C20048670   6.955   4.902   5.793  0.5909  0.3857  0.5712
  186MOL   C20148671   7.058   4.771   5.606  0.0091 -0.5939 -0.3868
  186MOL   H20248672   6.954   5.213   5.543  1.6545  1.6057  0.0817
  186MOL   H20348673   6.895   5.144   5.693  1.0375 -3.3720  0.2127
  186MOL   H20448674   7.058   5.013   5.483 -0.7786  4.0048 -0.1089
  186MOL   H20548675   6.967   4.999   5.841  0.0239  0.5951  0.2892
  186MOL   H20648676   6.981   4.827   5.867 -0.7141 -2.8175 -2.1170
  186MOL   H20748677   6.849   4.901   5.769  0.8057  1.5017 -0.5083
  186MOL   H20848678   7.142   4.726   5.659  0.8674  1.3796 -0.0320
  186MOL   H20948679   7.096   4.781   5.505 -0.7237 -1.7189 -0.7903
  186MOL   C21048680   6.940   4.674   5.602  0.1363 -0.0252 -0.0209
  186MOL   C21148681   6.925   4.591   5.718  0.4819  0.7055 -0.2756
  186MOL   C21248682   6.812   4.563   5.788 -0.3403 -0.4714 -0.7692
  186MOL   C21348683   6.674   4.623   5.751  0.2314  0.1211 -0.4539
  186MOL   C21448684   6.802   4.472   5.905 -0.0486  0.7938 -0.0808
  186MOL   H21548685   6.969   4.604   5.524  0.9528  0.3436 -0.0595
  186MOL   H21648686   6.857   4.738   5.571  1.3662  2.2642  1.3259
  186MOL   H21748687   7.018   4.552   5.757  0.1967  0.7405  0.4507
  186MOL   H21848688   6.674   4.727   5.717  0.9915 -0.1409 -1.2486
  186MOL   H21948689   6.599   4.624   5.830  1.6668  0.9133  0.9372
  186MOL   H22048690   6.631   4.559   5.674 -2.6488 -0.2570  1.3754
  186MOL   H22148691   6.713   4.410   5.899  0.6576 -0.2277 -0.3615
  186MOL   H22248692   6.784   4.537   5.990  1.4951 -0.3594  1.1888
  186MOL   C22348693   6.924   4.382   5.932 -0.1397 -0.4202  0.5841
  186MOL   C22448694   6.902   4.299   6.053  0.3924 -0.5890  0.0625
  186MOL   C22548695   6.883   4.163   6.058  0.2830  0.1112  0.0174
  186MOL   C22648696   6.892   4.083   5.935  0.0554 -0.4937  0.5743
  186MOL   C22748697   6.855   4.084   6.187 -0.0240  0.4806 -0.0711
  186MOL   H22848698   7.002   4.454   5.956  0.7428 -0.9417 -0.6548
  186MOL   H22948699   6.975   4.329   5.851 -1.0575 -1.4190  0.6405
  186MOL   H23048700   6.891   4.351   6.146  0.5197 -0.7625  0.1740
  186MOL   H23148701   6.983   4.026   5.918 -0.5798 -1.1131 -0.7828
  186MOL   H23248702   6.869   4.139   5.845 -0.4020 -1.3448  0.1548
  186MOL   H23348703   6.810   4.012   5.929 -0.5628  0.3804 -1.5338
  186MOL   H23448704   6.890   4.131   6.279 -1.6533 -0.0096  0.8043
  186MOL   H23548705   6.925   4.001   6.196 -1.3650 -0.4930  1.7401
  186MOL   C23648706   6.707   4.041   6.199 -0.2369  0.2177  0.0538
  186MOL   C23748707   6.666   3.978   6.333 -0.0291 -0.9195  0.1245
  186MOL   C23848708   6.669   3.850   6.374 -0.1358  0.1822 -0.1788
  186MOL   C23948709   6.723   3.736   6.287  0.4899  0.0688 -0.1450
  186MOL   C24048710   6.603   3.821   6.507 -0.7448 -0.9066 -0.7791
  186MOL   H24148711   6.687   3.964   6.124  1.0978  0.8853 -0.9892
  186MOL   H24248712   6.644   4.128   6.181 -2.1059 -0.8285  1.2773
  186MOL   H24348713   6.623   4.059   6.389  0.0417 -1.1001  0.4415
  186MOL   H24448714   6.647   3.700   6.218 -0.1575  1.8456 -0.3734
  186MOL   H24548715   6.741   3.648   6.349 -1.5786 -2.0573 -2.4382
  186MOL   H24648716   6.818   3.759   6.238 -0.4570  0.7636 -1.6672
  186MOL   H24748717   6.583   3.909   6.568  0.7856 -0.3507 -1.0469
  186MOL   H24848718   6.672   3.765   6.570 -3.8280 -1.0167  2.6817
  186MOL   C24948719   6.469   3.745   6.488 -0.0124  0.4279  0.3328
  186MOL   C25048720   6.355   3.818   6.411 -0.7460  0.0041  0.2471
  186MOL   C25148721   6.264   3.894   6.475  0.1214  0.2880 -0.3401
  186MOL   C25248722   6.256   3.920   6.622  0.4513 -0.2729  1.1098
  186MOL   C25348723   6.142   3.951   6.402  0.2183  0.1862 -0.2542
  186MOL   H25448724   6.435   3.715   6.588  3.1931 -0.7427  1.1423
  186MOL   H25548725   6.476   3.642   6.451 -1.9376 -0.7076  2.9362
  186MOL   H25648726   6.355   3.813   6.303  0.5199 -0.2997  0.2556
  186MOL   H25748727   6.314   4.013   6.622  2.4941 -1.5096 -0.7552
  186MOL   H25848728   6.301   3.841   6.682  1.7616  0.8358  1.6313
  186MOL   H25948729   6.158   3.950   6.658  0.4113  1.2875 -0.2229
  186MOL   H26048730   6.165   3.954   6.296  1.8095  0.3500  0.0797
  186MOL   H26148731   6.119   4.052   6.433 -0.2850  0.4208 -1.3773
  186MOL   H26248732   6.064   3.880   6.430  1.4864 -1.2065 -0.1935
  187MOL     C148733   0.034   4.354   6.415 -0.0544 -0.5253 -0.8944
  187MOL     C248734   0.052   4.505   6.393 -0.2239 -0.3991 -0.1755
  187MOL     C348735   0.000   4.570   6.286  0.5137  0.7632 -0.4373
  187MOL     C448736   7.798   4.492   6.183 -0.2807 -0.1904 -0.6058
  187MOL     C548737   0.027   4.716   6.258  0.4338 -0.4955  0.8251
  187MOL     H648738   0.119   4.307   6.464  0.9633  0.7162 -1.4532
  187MOL     H748739   7.834   4.339   6.485  2.0321 -2.6849  1.1895
  187MOL     H848740   0.101   4.568   6.465 -0.5905  0.0735 -0.3388
  187MOL     H948741   7.859   4.449   6.104  1.8407  0.0155  0.8657
  187MOL    H1048742   7.719   4.553   6.142 -0.5346  0.5013  0.8693
  187MOL    H1148743   7.746   4.401   6.213  0.7042 -0.7349 -0.4891
  187MOL    H1248744   0.087   4.750   6.343 -0.5573  0.2368  1.2358
  187MOL    H1348745   7.818   4.775   6.260  1.4965  1.1808  0.3153
  187MOL    H1448746   0.002   4.297   6.328 -0.8396  0.8484 -1.5294
  187MOL    C1548747   0.113   4.734   6.127  0.5943 -0.2238  0.7559
  187MOL    C1648748   0.140   4.877   6.101 -0.4332 -0.1565 -0.8424
  187MOL    C1748749   0.076   4.963   6.020 -0.7225  0.2889 -0.4667
  187MOL    C1848750   7.825   4.929   5.947 -0.0787  0.0791 -0.4498
  187MOL    C1948751   0.130   5.096   5.981 -0.1687 -0.3941  0.4445
  187MOL    H2048752   0.053   4.683   6.052  0.2387 -0.0681  0.9325
  187MOL    H2148753   0.211   4.687   6.119  1.6079  1.7560  1.2254
  187MOL    H2248754   0.234   4.914   6.139 -1.0252  0.3431  0.1660
  187MOL    H2348755   7.751   5.008   5.959 -0.9014 -0.7812  0.2638
  187MOL    H2448756   7.781   4.836   5.983 -1.3261  1.4968  1.8718
  187MOL    H2548757   7.839   4.916   5.840  1.8647 -0.5212 -0.1454
  187MOL    H2648758   0.210   5.128   6.047  0.8215  1.6323 -1.6516
  187MOL    H2748759   0.049   5.168   5.989 -0.8148 -1.0022 -0.5344
  187MOL    C2848760   0.178   5.098   5.832 -0.3920 -0.2352 -0.0365
  187MOL    C2948761   0.248   5.229   5.788  0.6132 -0.1274  0.7052
  187MOL    C3048762   0.186   5.339   5.741 -0.8524 -0.5811  0.2137
  187MOL    C3148763   0.039   5.357   5.730 -0.6005  0.0526 -0.4438
  187MOL    C3248764   0.259   5.473   5.706 -0.1160  0.5799  0.1110
  187MOL    H3348765   0.096   5.089   5.761 -0.2555  0.9873 -0.3605
  187MOL    H3448766   0.249   5.018   5.808  2.4913  2.4371 -0.7525
  187MOL    H3548767   0.356   5.238   5.795  0.5852  3.6902 -1.9574
  187MOL    H3648768   7.865   5.264   5.734 -0.5858  0.1119  1.4730
  187MOL    H3748769   0.014   5.420   5.645  0.1993  0.4137 -0.4182
  187MOL    H3848770   7.877   5.406   5.817  1.2797 -0.6802  0.9786
  187MOL    H3948771   0.193   5.537   5.648  1.2279  0.8430 -1.1677
  187MOL    H4048772   0.349   5.437   5.656  1.5578 -0.5792  3.7607
  187MOL    C4148773   0.295   5.551   5.828  0.4066  0.0279 -0.8840
  187MOL    C4248774   0.374   5.678   5.803  0.7412 -0.4596 -0.5795
  187MOL    C4348775   0.428   5.753   5.905 -0.3725  0.0664 -0.0850
  187MOL    C4448776   0.426   5.722   6.056  0.1353  0.0390 -0.5756
  187MOL    C4548777   0.515   5.875   5.872 -0.5124 -0.0256 -0.1232
  187MOL    H4648778   0.363   5.491   5.889 -1.0860  1.0183  1.8384
  187MOL    H4748779   0.216   5.582   5.896  3.3830  3.6825  1.1122
  187MOL    H4848780   0.387   5.702   5.699 -0.0944 -0.6347 -0.7284
  187MOL    H4948781   0.522   5.686   6.095  0.3471  1.6835  0.4822
  187MOL    H5048782   0.351   5.645   6.069 -1.2803  1.4264 -0.3003
  187MOL    H5148783   0.391   5.805   6.117 -0.6078 -1.2279  0.7327
  187MOL    H5248784   0.513   5.951   5.950 -0.9729  1.7234 -1.8020
  187MOL    H5348785   0.442   5.922   5.806 -1.3429 -1.0362  0.0567
  187MOL    C5448786   0.651   5.848   5.812 -0.5404 -0.2071  0.1956
  187MOL    C5548787   0.755   5.940   5.869 -0.3311 -0.2117 -0.2684
  187MOL    C5648788   0.830   6.029   5.800 -0.3925 -0.1285  0.5756
  187MOL    C5748789   0.804   6.062   5.651  0.7226 -0.3012 -0.2374
  187MOL    C5848790   0.947   6.102   5.860  0.1109 -0.3903 -0.3303
  187MOL    H5948791   0.642   5.859   5.704 -2.6472 -0.3528  0.3313
  187MOL    H6048792   0.677   5.744   5.833 -1.1653 -0.2689  0.6801
  187MOL    H6148793   0.784   5.918   5.971  0.7566 -2.7238 -1.1103
  187MOL    H6248794   0.794   6.171   5.651 -2.1965 -0.5157  1.2196
  187MOL    H6348795   0.704   6.037   5.617 -0.4522  1.4743  1.7716
  187MOL    H6448796   0.880   6.026   5.583  0.6775  0.1496 -0.5268
  187MOL    H6548797   0.941   6.107   5.969 -2.0017  0.7642 -0.4916
  187MOL    H6648798   0.951   6.203   5.820  2.1670  0.2506  1.3394
  187MOL    C6748799   1.089   6.049   5.819 -0.0827  0.5568 -0.0981
  187MOL    C6848800   1.205   6.132   5.870  0.1004 -0.6400 -0.5844
  187MOL    C6948801   1.291   6.199   5.799 -0.1942  0.0075  0.0414
  187MOL    C7048802   1.275   6.213   5.647  0.0999  0.5394 -1.0306
  187MOL    C7148803   1.404   6.273   5.870  0.3274  0.3143 -0.2276
  187MOL    H7248804   1.095   6.033   5.712  0.4318  1.3317 -0.1845
  187MOL    H7348805   1.108   5.953   5.867  1.0415 -0.6459 -2.8803
  187MOL    H7448806   1.209   6.140   5.977 -0.3165  0.4661 -0.6475
  187MOL    H7548807   1.313   6.312   5.622  1.2678  0.1049 -1.0127
  187MOL    H7648808   1.169   6.215   5.621 -0.6031  0.0172  1.6149
  187MOL    H7748809   1.312   6.119   5.607  0.6804 -0.8038  2.4655
  187MOL    H7848810   1.377   6.270   5.976  0.1349 -1.7725 -0.3075
  187MOL    H7948811   1.410   6.377   5.838 -0.2376 -0.1987 -1.9968
  187MOL    C8048812   1.538   6.202   5.859  0.1511 -0.2349 -0.6663
  187MOL    C8148813   1.650   6.263   5.952  0.2257 -0.0014  0.9772
  187MOL    C8248814   1.773   6.213   5.971  0.1369 -0.9494  0.4807
  187MOL    C8348815   1.820   6.090   5.903 -0.4005 -0.1723 -0.2933
  187MOL    C8448816   1.873   6.278   6.058  0.1346  0.3982 -0.5774
  187MOL    H8548817   1.567   6.201   5.753  2.7757  0.6666  0.0126
  187MOL    H8648818   1.515   6.100   5.887 -1.1298 -0.1165 -1.2608
  187MOL    H8748819   1.612   6.350   6.005  2.6922  0.2916  2.3967
  187MOL    H8848820   1.741   6.033   5.854 -0.2557 -0.2202 -0.4678
  187MOL    H8948821   1.880   6.031   5.972  0.8403 -1.5318 -2.4748
  187MOL    H9048822   1.893   6.114   5.827 -0.9887 -1.7145 -1.3796
  187MOL    H9148823   1.901   6.198   6.126 -0.7030 -0.2901 -1.0370
  187MOL    H9248824   1.811   6.356   6.102 -0.8998  0.1662 -1.6223
  187MOL    C9348825   2.002   6.322   5.986 -0.1271 -0.5613 -0.2846
  187MOL    C9448826   2.097   6.381   6.082 -0.1741  1.1502  1.2596
  187MOL    C9548827   2.204   6.458   6.050 -0.3055  0.0086 -1.3235
  187MOL    C9648828   2.220   6.520   5.910 -0.2030 -0.0922  0.5680
  187MOL    C9748829   2.305   6.501   6.158  0.1911  0.0590 -0.1119
  187MOL    H9848830   1.968   6.393   5.911 -2.4400 -1.6225 -0.3008
  187MOL    H9948831   2.046   6.237   5.934 -0.0111 -1.1095  0.6990
  187MOL   H10048832   2.098   6.335   6.179  0.6088 -1.5222  0.0228
  187MOL   H10148833   2.156   6.606   5.893  1.1476  1.0118  0.9672
  187MOL   H10248834   2.199   6.446   5.833  0.2202  0.8863 -0.5013
  187MOL   H10348835   2.322   6.558   5.905 -0.9704  2.2120  1.8761
  187MOL   H10448836   2.276   6.467   6.258 -3.6618  3.1438 -0.0149
  187MOL   H10548837   2.310   6.610   6.167  1.8577 -0.0103 -0.0310
  187MOL   C10648838   2.447   6.455   6.129 -0.4084  0.0087  0.8097
  187MOL   C10748839   2.539   6.463   6.256 -0.5391  0.1177  0.0148
  187MOL   C10848840   2.655   6.529   6.267 -0.5922 -0.1968  0.5003
  187MOL   C10948841   2.722   6.593   6.146  0.9768 -0.3179  0.1371
  187MOL   C11048842   2.720   6.563   6.397  0.2946 -0.0040 -0.4435
  187MOL   H11148843   2.490   6.515   6.049 -2.8453  1.5614  0.6013
  187MOL   H11248844   2.445   6.352   6.094 -1.6858  0.4124 -0.3391
  187MOL   H11348845   2.498   6.413   6.343  0.9421  0.2093  0.7799
  187MOL   H11448846   2.827   6.594   6.175  0.8981  0.0210  0.4135
  187MOL   H11548847   2.700   6.699   6.134 -1.3408 -0.6097  1.5988
  187MOL   H11648848   2.707   6.541   6.051 -1.8904 -1.3080  1.1027
  187MOL   H11748849   2.646   6.531   6.470  0.8871  0.1377  0.2255
  187MOL   H11848850   2.717   6.671   6.414 -0.2916 -0.2390  0.9843
  187MOL   C11948851   2.854   6.496   6.429 -0.2952  0.1163 -0.1618
  187MOL   C12048852   2.894   6.528   6.578 -0.6519 -0.1071  0.0302
  187MOL   C12148853   2.965   6.440   6.654 -0.2314  0.3122  0.5184
  187MOL   C12248854   3.023   6.306   6.599 -0.2969 -0.1062  0.0748
  187MOL   C12348855   2.991   6.473   6.799 -0.5283  0.2684  0.7709
  187MOL   H12448856   2.933   6.545   6.372 -0.2732  0.2561 -0.0108
  187MOL   H12548857   2.837   6.388   6.425 -0.9248 -0.0094  3.4842
  187MOL   H12648858   2.861   6.624   6.614  0.7634  0.8596 -1.1933
  187MOL   H12748859   3.130   6.290   6.593 -0.4989 -0.8652 -1.7134
  187MOL   H12848860   2.985   6.281   6.500 -1.0961  1.2902  0.0235
  187MOL   H12948861   2.983   6.230   6.668  0.6354  0.1425  0.8962
  187MOL   H13048862   2.948   6.401   6.869  0.0045 -0.9217 -0.1069
  187MOL   H13148863   2.954   6.569   6.834 -0.1524  1.5165 -2.0811
  187MOL   C13248864   3.137   6.487   6.840 -0.0908 -0.2566  0.1862
  187MOL   C13348865   3.145   6.527   6.989  0.2822  0.1158  0.0387
  187MOL   C13448866   3.191   6.639   7.038 -0.4304  0.1301 -0.6653
  187MOL   C13548867   3.245   6.761   6.961  0.4803  0.2957  0.1852
  187MOL   C13648868   3.207   6.657   7.186 -0.1177 -0.1539  0.3509
  187MOL   H13748869   3.206   6.540   6.775 -0.7667 -1.6382 -1.7242
  187MOL   H13848870   3.182   6.388   6.849 -0.7148 -0.3618  2.5927
  187MOL   H13948871   3.126   6.442   7.052  0.4550 -0.8878 -1.2508
  187MOL   H14048872   3.183   6.850   6.959  0.2332  0.1176 -0.1352
  187MOL   H14148873   3.267   6.742   6.856 -0.3246 -0.6269  0.1731
  187MOL   H14248874   3.342   6.789   7.002  0.1077  2.5931 -0.4596
  187MOL   H14348875   3.149   6.582   7.239  0.2670 -0.2264  0.6754
  187MOL   H14448876   3.171   6.755   7.218  1.6379  0.2809  1.0484
  187MOL   C14548877   3.346   6.640   7.237 -0.7240 -0.2664  0.3560
  187MOL   C14648878   3.357   6.656   7.386 -0.2338  0.0850  1.0099
  187MOL   C14748879   3.383   6.564   7.481 -1.0480  0.5283  0.5193
  187MOL   C14848880   3.406   6.421   7.449 -0.2153  0.2131 -0.1689
  187MOL   C14948881   3.407   6.612   7.625  0.2813 -0.2031  0.2981
  187MOL   H15048882   3.419   6.695   7.177 -0.8024  0.6365  1.0825
  187MOL   H15148883   3.376   6.536   7.220 -0.0147  0.0845 -0.5964
  187MOL   H15248884   3.337   6.759   7.412 -0.3182  0.6551 -1.2762
  187MOL   H15348885   3.354   6.365   7.528  0.3645  0.5482  0.4599
  187MOL   H15448886   3.510   6.390   7.462  0.3724  1.8573 -0.8685
  187MOL   H15548887   3.366   6.390   7.353 -0.7785  0.9479 -0.1754
  187MOL   H15648888   3.347   6.547   7.689 -1.2922  3.4794  2.7331
  187MOL   H15748889   3.372   6.715   7.636 -2.0653 -0.7505 -1.7332
  187MOL   C15848890   3.559   6.609   7.669 -0.4518  0.0800  0.2213
  187MOL   C15948891   3.590   6.666   7.810 -0.7932 -0.9329  0.4855
  187MOL   C16048892   3.623   6.593   0.037 -0.3689 -0.4647 -0.2092
  187MOL   C16148893   3.630   6.443   0.041 -0.3796 -0.3381 -0.7474
  187MOL   C16248894   3.665   6.668   0.169  0.0621 -0.5015 -0.2528
  187MOL   H16348895   3.621   6.662   7.597 -1.5695  0.8400 -0.1804
  187MOL   H16448896   3.586   6.503   7.673 -0.9868 -0.0294  1.0206
  187MOL   H16548897   3.588   6.774   7.823 -0.1834 -0.9413  0.6676
  187MOL   H16648898   3.729   6.417   0.004 -1.6992 -2.1555 -3.1154
  187MOL   H16748899   3.565   6.391   7.853 -0.4715 -0.7882 -0.3353
  187MOL   H16848900   3.613   6.407   0.143 -1.4825  2.7595  0.2284
  187MOL   H16948901   3.689   6.773   0.152  1.4251 -0.4637  1.8215
  187MOL   H17048902   3.751   6.616   0.210  1.3857  0.8024 -1.2835
  187MOL   C17148903   3.556   6.682   0.271  1.3870  0.4375 -0.3461
  187MOL   C17248904   3.604   6.767   0.384  0.0921 -0.0387  0.3549
  187MOL   C17348905   3.561   6.771   0.510  0.3654  0.0214 -0.7777
  187MOL   C17448906   3.457   6.669   0.559  0.0591  0.5820  0.3907
  187MOL   C17548907   3.611   6.870   0.610  0.6166 -0.4015 -0.3535
  187MOL   H17648908   3.519   6.585   0.303  2.2743  0.1597 -0.1453
  187MOL   H17748909   3.467   6.741   0.246  0.3554 -0.7636  0.4435
  187MOL   H17848910   3.678   6.842   0.362  0.8257 -0.4121  1.5585
  187MOL   H17948911   3.370   6.672   0.493  1.3130  0.1447 -1.3084
  187MOL   H18048912   3.417   6.703   0.654 -0.3863 -0.3445  0.5447
  187MOL   H18148913   3.505   6.572   0.575 -0.3120  0.4774  0.8716
  187MOL   H18248914   3.524   6.910   0.661 -1.5162 -3.5738 -1.3817
  187MOL   H18348915   3.649   6.962   0.565 -0.0446 -1.1347 -2.4608
  187MOL   C18448916   3.691   6.795   0.724 -0.0084  0.2218  0.5601
  187MOL   C18548917   3.718   6.878   0.852  0.0728 -0.1249  0.1412
  187MOL   C18648918   3.662   6.869   0.973 -0.0608  0.2857  0.4922
  187MOL   C18748919   3.547   6.788   1.008  0.0800  0.0006 -0.5996
  187MOL   C18848920   3.727   6.949   1.091  0.3256 -0.6823 -0.2158
  187MOL   H18948921   3.787   6.770   0.679 -0.5313 -0.3948 -0.2314
  187MOL   H19048922   3.634   6.705   0.744  0.6095 -0.2482  0.2039
  187MOL   H19148923   3.807   6.939   0.846  0.5697 -0.6818  1.7459
  187MOL   H19248924   3.592   6.689   1.020 -0.2500 -0.1375 -0.5187
  187MOL   H19348925   3.471   6.782   0.931  1.4282 -0.8593 -1.8931
  187MOL   H19448926   3.504   6.824   1.101  0.6448 -1.4349  0.2375
  187MOL   H19548927   3.652   7.018   1.129  0.5196  0.2795 -1.5512
  187MOL   H19648928   3.800   7.014   1.042 -0.6039 -0.8856 -1.9087
  187MOL   C19748929   3.775   6.866   1.209  0.6416 -0.1388  0.5903
  187MOL   C19848930   3.804   6.958   1.327 -0.5464 -0.0008  0.5739
  187MOL   C19948931   3.764   6.929   1.454 -1.1206 -0.6390 -0.3185
  187MOL   C20048932   3.698   6.797   1.485  0.6650 -0.6747 -0.2659
  187MOL   C20148933   3.809   7.015   1.571 -0.3849  0.2725  0.3311
  187MOL   H20248934   3.870   6.813   1.199  0.7919  0.2791 -0.2585
  187MOL   H20348935   3.693   6.796   1.223  1.0807 -0.5828  0.9276
  187MOL   H20448936   3.856   7.051   1.310 -1.9353  0.3826 -1.7160
  187MOL   H20548937   3.673   6.790   1.590 -0.3129  0.4211 -0.4220
  187MOL   H20648938   3.748   6.708   1.445  1.8960  0.1441 -0.5885
  187MOL   H20748939   3.596   6.798   1.448  0.6492  2.5562 -0.2712
  187MOL   H20848940   3.882   7.090   1.540  0.3053 -0.3554  0.4528
  187MOL   H20948941   3.859   6.950   1.642  0.4309  0.3797 -0.1421
  187MOL   C21048942   3.695   7.075   1.658 -0.1209 -0.0404  0.8323
  187MOL   C21148943   3.737   7.171   1.772 -0.5623 -0.2047  0.8544
  187MOL   C21248944   3.733   7.138   1.905  0.3873 -0.0131  0.5779
  187MOL   C21348945   3.685   7.016   1.973  0.0926  0.9252  0.0864
  187MOL   C21448946   3.791   7.244   2.003  0.1972  0.7511 -0.7512
  187MOL   H21548947   3.640   6.993   1.704 -0.9047 -0.9022 -1.5452
  187MOL   H21648948   3.615   7.119   1.597  2.7164  1.4242 -2.0555
  187MOL   H21748949   3.774   7.270   1.748  1.4813 -0.8929  1.0696
  187MOL   H21848950   3.604   7.050   2.038  0.4062  2.6227 -0.3987
  187MOL   H21948951   3.762   6.962   2.028 -0.8267  2.4032  2.9496
  187MOL   H22048952   3.643   6.934   1.914  1.1681 -0.7357  1.5700
  187MOL   H22148953   3.890   7.264   1.962  1.6215 -1.7660  1.2820
  187MOL   H22248954   3.809   7.197   2.100 -3.4730  0.2727 -0.2335
  187MOL   C22348955   3.709   7.377   2.008  0.0509  0.7221 -0.5909
  187MOL   C22448956   3.568   7.355   2.069 -0.3046 -0.5440  0.5078
  187MOL   C22548957   3.451   7.368   2.007 -0.3931 -0.1986  0.4929
  187MOL   C22648958   3.435   7.427   1.864 -0.4068  0.8205  0.2737
  187MOL   C22748959   3.319   7.329   2.067  0.0046  0.5257 -0.0004
  187MOL   H22848960   3.702   7.411   1.905  0.2274 -0.5211 -1.0240
  187MOL   H22948961   3.751   7.449   2.078 -0.8082 -0.4989  1.2449
  187MOL   H23048962   3.566   7.317   2.170  0.7321 -1.7075  0.1131
  187MOL   H23148963   3.406   7.346   1.796 -0.8028  0.3778  0.9668
  187MOL   H23248964   3.523   7.484   1.836 -0.0801  0.6007  0.8478
  187MOL   H23348965   3.352   7.497   1.876 -0.0054  1.7089 -1.9558
  187MOL   H23448966   3.248   7.410   2.052  1.9185  2.2753  0.2636
  187MOL   H23548967   3.323   7.303   2.173 -2.2284 -0.2987 -0.0834
  187MOL   C23648968   3.247   7.214   1.994  0.4854  1.2128 -0.5003
  187MOL   C23748969   3.098   7.217   2.038 -0.6635  0.1855 -0.1886
  187MOL   C23848970   2.997   7.148   1.978  0.1319 -0.4026  0.0209
  187MOL   C23948971   3.006   7.093   1.839 -0.2592 -0.5787  0.3291
  187MOL   C24048972   2.868   7.115   2.051 -0.0739 -0.1778 -0.5639
  187MOL   H24148973   3.297   7.123   2.028 -1.1465 -0.5444 -2.7027
  187MOL   H24248974   3.243   7.218   1.886 -2.2581 -0.9003 -0.5492
  187MOL   H24348975   3.083   7.255   2.138  1.5907 -1.2814  0.7520
  187MOL   H24448976   3.055   7.161   1.770  0.0325 -0.0388  1.0603
  187MOL   H24548977   2.903   7.094   1.803 -0.3287  0.6691  0.5434
  187MOL   H24648978   3.027   6.986   1.836 -3.6705 -1.3007  0.2159
  187MOL   H24748979   2.846   7.012   2.023 -1.0981  0.4544 -2.1518
  187MOL   H24848980   2.794   7.169   1.992  1.4230 -0.1286 -2.4425
  187MOL   C24948981   2.854   7.137   2.205 -0.5574 -1.0806 -0.4790
  187MOL   C25048982   2.716   7.115   2.253 -0.0902 -0.4391 -0.4741
  187MOL   C25148983   2.662   7.017   2.329  0.1998  0.1983  0.5112
  187MOL   C25248984   2.743   6.896   2.377  0.1391 -0.3079 -0.0031
  187MOL   C25348985   2.514   7.011   2.357 -0.2374 -0.4559 -0.5087
  187MOL   H25448986   2.884   7.235   2.244 -2.5925 -1.2282  1.5566
  187MOL   H25548987   2.929   7.072   2.251  1.3750  0.7993 -0.8798
  187MOL   H25648988   2.650   7.193   2.219 -3.0301 -2.3412  0.6641
  187MOL   H25748989   2.743   6.891   2.486 -0.5458  0.2534  0.0285
  187MOL   H25848990   2.848   6.899   2.348  0.2167  1.1601  0.3968
  187MOL   H25948991   2.700   6.812   2.322 -1.5878  1.0368 -0.7673
  187MOL   H26048992   2.468   6.924   2.310 -0.9273 -0.7628  0.7060
  187MOL   H26148993   2.456   7.090   2.309  1.2481  1.2775  0.4806
  187MOL   H26248994   2.504   7.023   2.465  0.0348 -0.7783 -0.4478
  188MOL     C148995   2.307   1.821   2.708 -0.2442 -0.3437  0.3582
  188MOL     C248996   2.438   1.759   2.745 -0.7889 -0.4448  0.3701
  188MOL     C348997   2.473   1.711   2.867  0.0663  0.1984 -0.1348
  188MOL     C448998   2.379   1.729   2.984  0.9099  0.2054  0.3258
  188MOL     C548999   2.609   1.658   2.903 -0.1496 -0.1513  0.5628
  188MOL     H649000   2.268   1.905   2.765 -0.4463 -0.7648  0.8545
  188MOL     H749001   2.322   1.858   2.607  0.2328  1.0562  0.9328
  188MOL     H849002   2.502   1.762   2.658 -0.5593  1.7807  0.5935
  188MOL     H949003   2.358   1.832   3.017 -0.0715 -0.3587  1.5560
  188MOL    H1049004   2.406   1.689   3.082  0.2010 -0.0608  0.4183
  188MOL    H1149005   2.282   1.690   2.951  1.3077  0.8369 -1.6328
  188MOL    H1249006   2.592   1.577   2.973  1.8820 -2.6996 -1.7733
  188MOL    H1349007   2.676   1.730   2.952  0.3583 -0.0874 -0.2099
  188MOL    H1449008   2.231   1.744   2.694 -1.1797  0.4215  1.2193
  188MOL    C1549009   2.685   1.591   2.792  0.5873 -0.9400  0.2040
  188MOL    C1649010   2.798   1.503   2.850 -0.3287  0.3341 -0.1619
  188MOL    C1749011   2.784   1.385   2.907 -0.8155 -0.8433  0.7280
  188MOL    C1849012   2.648   1.320   2.921 -0.5473  0.1765  0.3591
  188MOL    C1949013   2.901   1.313   2.976  0.4147 -0.0946  0.3786
  188MOL    H2049014   2.726   1.674   2.735  0.8923 -1.3814 -0.2252
  188MOL    H2149015   2.623   1.532   2.725 -1.0897 -0.5057  1.3353
  188MOL    H2249016   2.897   1.547   2.854 -0.7452  1.2353  0.2049
  188MOL    H2349017   2.608   1.343   3.020 -2.1583 -1.7489  0.1909
  188MOL    H2449018   2.654   1.211   2.913 -0.1174  0.0477  2.2290
  188MOL    H2549019   2.578   1.362   2.849 -2.8695 -0.0135  2.4537
  188MOL    H2649020   2.897   1.206   2.952  0.8316 -0.3168  1.2673
  188MOL    H2749021   2.884   1.328   3.082  0.7343 -0.1576  0.4415
  188MOL    C2849022   3.043   1.368   2.936  0.5355  0.0160 -0.2810
  188MOL    C2949023   3.155   1.299   3.001 -0.7236  0.0494 -0.1034
  188MOL    C3049024   3.282   1.350   3.020 -0.2896 -0.3304  0.3870
  188MOL    C3149025   3.324   1.493   2.973 -0.4246 -0.4616 -0.4206
  188MOL    C3249026   3.399   1.265   3.083 -0.2973  0.2343 -0.2892
  188MOL    H3349027   3.048   1.472   2.968  0.1214 -0.3163  0.9014
  188MOL    H3449028   3.065   1.365   2.829  1.7612  0.4190 -0.0416
  188MOL    H3549029   3.135   1.201   3.041 -1.8213  0.5079  0.4817
  188MOL    H3649030   3.419   1.498   2.920 -0.1420  0.3891  0.1528
  188MOL    H3749031   3.316   1.554   3.063 -0.1395 -2.0089  0.6798
  188MOL    H3849032   3.257   1.542   2.903 -2.1351 -3.8445 -1.2333
  188MOL    H3949033   3.477   1.267   3.007  0.7523 -0.6691  0.7479
  188MOL    H4049034   3.373   1.161   3.102  1.7054 -0.1261  0.5405
  188MOL    C4149035   3.464   1.336   3.209  0.3276  0.1646  0.5303
  188MOL    C4249036   3.553   1.246   3.293 -0.5458 -0.3196  0.4055
  188MOL    C4349037   3.639   1.286   3.388 -0.2182  0.0023  0.0671
  188MOL    C4449038   3.669   1.435   3.416  0.0112  0.2632  0.1305
  188MOL    C4549039   3.724   1.194   3.477  0.0093  0.2935  0.1119
  188MOL    H4649040   3.378   1.359   3.273 -0.2285 -0.3235 -0.0359
  188MOL    H4749041   3.508   1.435   3.193 -0.5207  0.2285 -1.6175
  188MOL    H4849042   3.545   1.140   3.273 -0.4254 -0.3231  0.3787
  188MOL    H4949043   3.584   1.496   3.385  0.1805  1.1304  1.3494
  188MOL    H5049044   3.763   1.466   3.371  0.0797  2.8393  1.9447
  188MOL    H5149045   3.700   1.447   3.520 -0.0725 -2.1927  0.4772
  188MOL    H5249046   3.689   1.091   3.469 -0.2815  0.4194 -0.2715
  188MOL    H5349047   3.698   1.230   3.577 -3.8007 -0.7747 -0.4095
  188MOL    C5449048   3.875   1.205   3.447 -0.1894  0.1841 -0.5200
  188MOL    C5549049   3.960   1.109   3.538 -0.5800 -0.4400 -1.0259
  188MOL    C5649050   4.081   1.137   3.595 -0.6349 -0.5564 -0.0517
  188MOL    C5749051   4.167   1.260   3.561  0.5961  0.5083 -0.1060
  188MOL    C5849052   4.151   1.042   3.689  0.7754  0.6463 -0.4669
  188MOL    H5949053   3.912   1.306   3.459 -0.0528  0.1778 -0.8846
  188MOL    H6049054   3.895   1.175   3.344  1.0707 -0.5305 -0.0853
  188MOL    H6149055   3.913   1.014   3.553  1.1865 -1.1058  0.5028
  188MOL    H6249056   4.175   1.327   3.647  2.1013 -0.8127  0.8141
  188MOL    H6349057   4.123   1.323   3.485 -0.0060  1.5327  1.0650
  188MOL    H6449058   4.265   1.225   3.528 -0.0572 -1.5245  0.0249
  188MOL    H6549059   4.088   0.953   3.698 -0.2681  1.3708 -0.4700
  188MOL    H6649060   4.159   1.089   3.787 -1.5606 -0.2814  0.2080
  188MOL    C6749061   4.277   0.990   3.641 -0.0869  0.0161 -0.3234
  188MOL    C6849062   4.302   0.847   3.695  0.5773 -0.5658  0.3937
  188MOL    C6949063   4.315   0.733   3.627  0.3756  0.4934  0.5393
  188MOL    C7049064   4.297   0.732   3.480  0.8084  0.1520 -0.1145
  188MOL    C7149065   4.355   0.595   3.684 -0.0097 -0.1781  0.5348
  188MOL    H7249066   4.358   1.060   3.663 -0.7454  1.1027 -1.3017
  188MOL    H7349067   4.275   0.981   3.533  0.1716 -1.7146 -0.2002
  188MOL    H7449068   4.321   0.835   3.800 -0.9416 -0.2746  0.7085
  188MOL    H7549069   4.381   0.777   3.427  0.8232  1.4430  0.9764
  188MOL    H7649070   4.202   0.769   3.441  0.7382 -0.2410 -0.3197
  188MOL    H7749071   4.285   0.626   3.457 -3.3115  0.0564  2.1127
  188MOL    H7849072   4.382   0.601   3.789 -0.4081 -2.4345  0.7844
  188MOL    H7949073   4.440   0.558   3.626 -1.0214  0.7651 -1.5835
  188MOL    C8049074   4.231   0.502   3.677  0.0103  0.1283  0.6817
  188MOL    C8149075   4.268   0.361   3.733  0.7441  0.1564 -0.9231
  188MOL    C8249076   4.257   0.242   3.677  0.5118 -0.6390 -0.1929
  188MOL    C8349077   4.208   0.227   3.533 -0.5213 -0.6015  0.4782
  188MOL    C8449078   4.302   0.112   3.741 -0.8418  0.1208 -0.7933
  188MOL    H8549079   4.187   0.485   3.579 -0.5523  1.1476  0.7522
  188MOL    H8649080   4.160   0.527   3.754 -1.0524  1.1823 -0.6194
  188MOL    H8749081   4.301   0.364   3.836  1.7216 -2.0231 -1.1506
  188MOL    H8849082   4.288   0.255   3.465 -0.3683 -0.2182  0.8146
  188MOL    H8949083   4.114   0.279   3.514  0.3119  0.0623 -1.9808
  188MOL    H9049084   4.184   0.123   3.509 -0.5601 -0.1960 -1.2961
  188MOL    H9149085   4.355   0.129   3.835 -1.4799  3.6961 -0.9909
  188MOL    H9249086   4.372   0.058   3.677 -1.6517 -2.0183  0.0964
  188MOL    C9349087   4.185   0.013   3.768 -0.1803 -0.3732  0.5380
  188MOL    C9449088   4.246   7.777   3.839 -0.0194  0.6350 -0.1274
  188MOL    C9549089   4.239   7.645   3.798  0.5634 -0.2461 -0.0099
  188MOL    C9649090   4.155   7.607   3.677 -0.2845 -0.9441  0.6546
  188MOL    C9749091   4.319   7.543   3.867  0.0620  0.3240  0.3029
  188MOL    H9849092   4.128   7.867   3.680 -0.6038 -3.9417  1.8956
  188MOL    H9949093   4.116   0.061   3.838  0.0748  0.1421  0.4384
  188MOL   H10049094   4.303   7.789   3.930  1.9587 -0.0919 -1.2369
  188MOL   H10149095   4.098   7.518   3.704  0.6866 -2.7538 -2.9681
  188MOL   H10249096   4.222   7.576   3.596  1.1874 -2.2897  2.3452
  188MOL   H10349097   4.084   7.680   3.638  0.0144 -1.6476 -1.2825
  188MOL   H10449098   4.391   7.594   3.932  0.1587  1.5306 -0.7183
  188MOL   H10549099   4.391   7.501   3.797 -1.7939 -2.1702 -0.1809
  188MOL   C10649100   4.237   7.428   3.925 -0.4359  0.5893 -0.1627
  188MOL   C10749101   4.320   7.310   3.970 -0.5238  0.1252  0.6938
  188MOL   C10849102   4.299   7.236   4.083  0.1651  0.0192  0.1100
  188MOL   C10949103   4.195   7.280   4.192 -0.3912 -0.9016  0.1806
  188MOL   C11049104   4.389   7.124   4.127 -0.0010  0.7851  0.3688
  188MOL   H11149105   4.167   7.384   3.854 -0.1211  1.5112 -1.0601
  188MOL   H11249106   4.182   7.470   4.009  0.0348 -2.2049  1.6201
  188MOL   H11349107   4.395   7.277   3.900 -3.4671 -2.9129 -1.1606
  188MOL   H11449108   4.209   7.378   4.235 -0.2710 -1.4899  1.4884
  188MOL   H11549109   4.207   7.217   4.280  0.7304  0.3267  0.9172
  188MOL   H11649110   4.090   7.261   4.173 -0.6698 -0.8662  1.7041
  188MOL   H11749111   4.462   7.106   4.048  1.4736  1.5664  1.5321
  188MOL   H11849112   4.340   7.029   4.150  0.0365  0.4617 -0.8446
  188MOL   C11949113   4.477   7.164   4.248  0.5785 -0.6486  0.0669
  188MOL   C12049114   4.565   7.041   4.286 -0.4770 -0.1003 -0.0175
  188MOL   C12149115   4.695   7.032   4.256 -0.1002 -0.3912 -0.3362
  188MOL   C12249116   4.787   7.137   4.196  0.3444 -0.0026 -0.2620
  188MOL   C12349117   4.769   6.902   4.294 -0.4731 -0.3054  0.3705
  188MOL   H12449118   4.408   7.189   4.329  0.5591 -1.4722  0.3025
  188MOL   H12549119   4.534   7.254   4.221  1.5631 -1.3773 -0.3192
  188MOL   H12649120   4.510   6.957   4.325 -0.3624  1.1708  3.0002
  188MOL   H12749121   4.853   7.190   4.264  0.0871 -0.6202  0.4643
  188MOL   H12849122   4.723   7.206   4.139  0.1986  1.5418  1.7210
  188MOL   H12949123   4.846   7.092   4.116 -0.9550  0.8734 -1.7690
  188MOL   H13049124   4.828   6.884   4.205 -0.8525 -0.8815  0.2291
  188MOL   H13149125   4.701   6.817   4.303  0.4721 -1.2309 -1.2245
  188MOL   C13249126   4.861   6.900   4.419  0.0944 -0.3094 -0.4009
  188MOL   C13349127   4.794   6.909   4.552  0.1573  0.3686  0.0087
  188MOL   C13449128   4.779   6.814   4.649  0.0964  0.4092 -0.3988
  188MOL   C13549129   4.807   6.660   4.637  0.3518 -0.0510 -0.4089
  188MOL   C13649130   4.700   6.857   4.765  0.3118  0.4907  0.1130
  188MOL   H13749131   4.944   6.970   4.406 -0.0511 -0.0690 -0.0654
  188MOL   H13849132   4.908   6.803   4.425  0.8171  0.0856  0.3412
  188MOL   H13949133   4.765   7.008   4.582 -2.1224 -0.4492  0.6000
  188MOL   H14049134   4.723   6.608   4.591 -1.3208  1.9419  0.2830
  188MOL   H14149135   4.821   6.601   4.727  0.4513  2.9186  1.5995
  188MOL   H14249136   4.900   6.646   4.583 -0.1409 -0.4800 -1.1515
  188MOL   H14349137   4.678   6.963   4.780  0.1225  0.7872 -2.1474
  188MOL   H14449138   4.758   6.835   4.854 -0.0633 -0.8358  0.0383
  188MOL   C14549139   4.563   6.781   4.763 -0.2821 -0.0917  0.1327
  188MOL   C14649140   4.479   6.803   4.639  0.4225 -0.0863  0.0827
  188MOL   C14749141   4.348   6.814   4.636  0.7411  0.0817 -0.3223
  188MOL   C14849142   4.254   6.802   4.759 -0.1594  0.7571  0.6151
  188MOL   C14949143   4.272   6.829   4.508 -0.9085 -0.4134  0.3834
  188MOL   H15049144   4.509   6.812   4.852  1.3822  3.4274 -0.0127
  188MOL   H15149145   4.581   6.673   4.760 -0.7641 -0.1326 -3.1202
  188MOL   H15249146   4.537   6.817   4.550 -0.5324  0.7396 -0.4231
  188MOL   H15349147   4.207   6.708   4.789 -3.6637  1.8704 -1.0637
  188MOL   H15449148   4.177   6.878   4.746 -0.5064  0.3683  0.3998
  188MOL   H15549149   4.301   6.839   4.850  1.8520  1.8429 -0.8175
  188MOL   H15649150   4.350   6.854   4.437  0.2649  0.7274  2.0397
  188MOL   H15749151   4.204   6.913   4.496  0.8692  1.0486  0.4121
  188MOL   C15849152   4.216   6.701   4.463 -0.5951 -0.4922  0.5000
  188MOL   C15949153   4.188   6.705   4.314 -0.5563 -0.1139  0.5603
  188MOL   C16049154   4.090   6.772   4.244  0.2499 -0.0100  0.0794
  188MOL   C16149155   3.992   6.862   4.317 -0.2097 -0.2781 -0.0679
  188MOL   C16249156   4.084   6.775   4.090 -0.2847 -0.0786 -0.1127
  188MOL   H16349157   4.120   6.682   4.511 -0.6209  0.9180  1.0331
  188MOL   H16449158   4.288   6.624   4.487  0.7988  0.5728 -0.1849
  188MOL   H16549159   4.249   6.628   4.269 -1.2415  0.0733 -0.7081
  188MOL   H16649160   3.971   6.825   4.418 -0.9119  1.5945  0.4972
  188MOL   H16749161   3.900   6.858   4.260 -2.2000  1.2393  2.9305
  188MOL   H16849162   4.024   6.967   4.317 -1.4392  0.0993 -1.0015
  188MOL   H16949163   4.007   6.707   4.054 -2.0008  0.9838  1.4449
  188MOL   H17049164   4.176   6.728   4.054  0.3315  0.8533  0.2178
  188MOL   C17149165   4.066   6.913   4.024 -0.1626  0.9428 -0.3785
  188MOL   C17249166   4.067   6.906   3.875  0.6359  0.4363 -0.2657
  188MOL   C17349167   4.050   7.012   3.793 -0.0075  0.3664  0.8011
  188MOL   C17449168   4.045   7.153   3.827 -0.4233  0.2823  0.4716
  188MOL   C17549169   4.060   6.989   3.638  0.3703 -0.2425  0.5926
  188MOL   H17649170   4.151   6.972   4.057 -0.2158  0.1748  1.1999
  188MOL   H17749171   3.977   6.972   4.049  2.3124  4.0320  1.5150
  188MOL   H17849172   4.072   6.806   3.834  1.1634 -0.3611  1.6871
  188MOL   H17949173   4.129   7.206   3.781  0.9152 -1.2959  1.0417
  188MOL   H18049174   4.036   7.171   3.934  0.3798  2.0866  0.2492
  188MOL   H18149175   3.957   7.188   3.773 -0.4653  1.9668  1.6008
  188MOL   H18249176   4.116   6.897   3.628  0.9791  0.3241 -1.3431
  188MOL   H18349177   4.131   7.068   3.612  0.3575 -0.2943  0.4032
  188MOL   C18449178   3.931   6.993   3.564  0.3768 -0.4400  0.7770
  188MOL   C18549179   3.932   6.945   3.418  0.1843 -0.5490  0.0897
  188MOL   C18649180   3.875   6.840   3.355  0.2957  0.1341 -0.6837
  188MOL   C18749181   3.787   6.738   3.427 -0.4345 -0.2376 -0.4001
  188MOL   C18849182   3.898   6.811   3.208 -0.0965  0.5566  0.7210
  188MOL   H18949183   3.902   7.098   3.561  2.2485  0.0449 -2.3436
  188MOL   H19049184   3.852   6.933   3.610  0.9146 -2.0062 -0.3337
  188MOL   H19149185   4.005   7.004   3.364  0.5371  0.9847  2.1868
  188MOL   H19249186   3.835   6.709   3.521 -3.4641  2.5867  2.1416
  188MOL   H19349187   3.764   6.645   3.375  2.1011 -0.5419 -1.0553
  188MOL   H19449188   3.702   6.795   3.465  0.4769  1.5720 -1.0253
  188MOL   H19549189   3.926   6.904   3.159  1.4256 -0.2259  0.0787
  188MOL   H19649190   3.804   6.785   3.158  0.7265 -1.5379  0.2136
  188MOL   C19749191   3.999   6.692   3.183  0.1774 -0.0302  0.3838
  188MOL   C19849192   4.148   6.732   3.198  0.0354 -1.3481  0.5200
  188MOL   C19949193   4.228   6.718   3.314 -0.1748  0.2733  0.5286
  188MOL   C20049194   4.173   6.657   3.441  0.8069  0.7105 -0.0703
  188MOL   C20149195   4.371   6.769   3.316  0.1412 -0.5554 -0.1647
  188MOL   H20249196   3.979   6.663   3.079  0.1997 -0.6021  0.5393
  188MOL   H20349197   3.980   6.612   3.254 -0.4751  0.5892  0.9216
  188MOL   H20449198   4.203   6.777   3.117 -1.2799  1.1938  0.9611
  188MOL   H20549199   4.064   6.650   3.443  0.8829 -1.0905 -1.4106
  188MOL   H20649200   4.204   6.713   3.530  0.9546 -0.4770  0.6395
  188MOL   H20749201   4.214   6.556   3.445 -0.6158  0.0690 -1.2572
  188MOL   H20849202   4.420   6.763   3.219 -0.4006  3.3735 -0.7553
  188MOL   H20949203   4.427   6.690   3.367  0.1341 -1.4168 -1.4607
  188MOL   C21049204   4.389   6.906   3.386  1.0780 -0.1541 -0.6438
  188MOL   C21149205   4.534   6.913   3.422  0.4803  0.1855 -0.4542
  188MOL   C21249206   4.633   6.965   3.349  0.0495  0.0617  0.0558
  188MOL   C21349207   4.615   7.008   3.204 -0.5956 -0.1030  0.3993
  188MOL   C21449208   4.772   6.972   3.405  0.1704 -0.0550  0.2802
  188MOL   H21549209   4.345   6.891   3.484 -1.5270  1.6541 -1.4876
  188MOL   H21649210   4.335   6.975   3.322  1.4752  0.6187 -0.1522
  188MOL   H21749211   4.569   6.870   3.515 -0.0012  0.0723 -0.3226
  188MOL   H21849212   4.512   7.020   3.169 -0.5078 -2.0056 -0.5760
  188MOL   H21949213   4.670   6.945   3.134 -1.2275 -0.0283 -0.1703
  188MOL   H22049214   4.649   7.111   3.191  1.3234 -0.9224 -1.2865
  188MOL   H22149215   4.776   6.926   3.504  1.0164 -0.0331  0.2593
  188MOL   H22249216   4.804   7.077   3.406  2.6625 -0.7716  0.1736
  188MOL   C22349217   4.870   6.885   3.320  0.4873  0.0454 -0.0545
  188MOL   C22449218   4.843   6.735   3.333 -0.4302 -0.6635  0.0790
  188MOL   C22549219   4.918   6.637   3.387  0.1067  0.3105 -0.5396
  188MOL   C22649220   5.058   6.664   3.459  0.6832 -0.4766 -0.2674
  188MOL   C22749221   4.875   6.488   3.382 -0.2991 -0.9120  0.1900
  188MOL   H22849222   4.972   6.912   3.349  0.5241 -0.2367  0.0776
  188MOL   H22949223   4.856   6.917   3.217 -1.2841  0.0240  0.1623
  188MOL   H23049224   4.746   6.707   3.294  0.6456 -1.7771 -1.8331
  188MOL   H23149225   5.116   6.744   3.412 -1.9908  2.0945  0.6731
  188MOL   H23249226   5.119   6.574   3.457 -1.1260 -1.8100  1.7200
  188MOL   H23349227   5.027   6.685   3.562  2.1205  1.2753 -0.1634
  188MOL   H23449228   4.970   6.436   3.395  0.4350  0.2515 -0.3696
  188MOL   H23549229   4.854   6.471   3.276 -1.6918  0.0883  0.2987
  188MOL   C23649230   4.760   6.450   3.479 -0.5234 -0.7244 -0.0533
  188MOL   C23749231   4.720   6.308   3.469 -0.6114 -0.8907  0.3632
  188MOL   C23849232   4.592   6.269   3.462 -0.7921  0.6634 -0.1475
  188MOL   C23949233   4.471   6.353   3.426  0.0525 -0.2212 -0.1848
  188MOL   C24049234   4.554   6.126   3.482 -0.2720  0.1869 -0.3961
  188MOL   H24149235   4.674   6.515   3.464  0.1100  0.7532  2.2726
  188MOL   H24249236   4.790   6.483   3.579  0.4736 -0.4464 -0.4418
  188MOL   H24349237   4.804   6.243   3.488  0.7946  0.9984  0.7526
  188MOL   H24449238   4.408   6.387   3.508  0.2305 -0.4247  0.0368
  188MOL   H24549239   4.403   6.310   3.352 -2.1096  2.5751  0.1129
  188MOL   H24649240   4.494   6.441   3.366 -0.4138 -0.7155 -1.1048
  188MOL   H24749241   4.646   6.082   3.523  0.0577 -0.2322 -1.5527
  188MOL   H24849242   4.538   6.073   3.388 -0.1717 -1.2064  0.3537
  188MOL   C24949243   4.446   6.100   3.583  0.3776 -0.1946  0.4148
  188MOL   C25049244   4.484   6.006   3.698 -0.4127  0.1323  0.2205
  188MOL   C25149245   4.431   5.880   3.721  0.7426  0.0870 -0.3753
  188MOL   C25249246   4.313   5.827   3.639  0.3630 -0.5590 -0.0056
  188MOL   C25349247   4.498   5.782   3.823 -0.0400  0.2603 -0.8787
  188MOL   H25449248   4.351   6.086   3.531 -0.9306  4.2789  1.4043
  188MOL   H25549249   4.438   6.195   3.635 -1.2864  0.8781 -1.6975
  188MOL   H25649250   4.569   6.037   3.758 -0.4471 -0.2889  0.4822
  188MOL   H25749251   4.283   5.730   3.679  0.9711 -0.8222 -0.1840
  188MOL   H25849252   4.337   5.799   3.536 -2.1315 -1.5370 -0.3648
  188MOL   H25949253   4.226   5.893   3.636  0.9331  0.1480 -1.7840
  188MOL   H26049254   4.513   5.691   3.765 -3.5867 -2.0847  1.6052
  188MOL   H26149255   4.418   5.764   3.895  1.4409 -0.9561  0.4822
  188MOL   H26249256   4.583   5.827   3.875  0.6744  1.1954 -2.8035
  189MOL     C149257   1.310   2.277   3.469  0.3908  0.3395 -0.5318
  189MOL     C249258   1.376   2.368   3.572  0.1798 -0.6669  0.0868
  189MOL     C349259   1.390   2.346   3.702 -0.0501  0.0818  0.2988
  189MOL     C449260   1.332   2.226   3.769  0.5049  0.1814 -0.1902
  189MOL     C549261   1.469   2.430   3.794 -0.1084  0.4291 -0.0881
  189MOL     H649262   1.220   2.237   3.515 -0.9006  1.7364 -1.7773
  189MOL     H749263   1.281   2.337   3.382 -1.7124 -1.1743 -0.9096
  189MOL     H849264   1.431   2.452   3.534 -0.5924  0.6838  1.8710
  189MOL     H949265   1.314   2.253   3.873  0.1271 -0.6799 -0.0288
  189MOL    H1049266   1.394   2.136   3.762  0.3396  0.1379 -1.0371
  189MOL    H1149267   1.235   2.202   3.726  0.0963 -0.0516  0.8472
  189MOL    H1249268   1.412   2.443   3.886  0.5737 -0.8618  0.5494
  189MOL    H1349269   1.490   2.527   3.750 -1.6767  0.1161 -1.5475
  189MOL    H1449270   1.374   2.198   3.429  0.0024 -1.6871  2.7072
  189MOL    C1549271   1.598   2.356   3.845  0.1142 -0.7252  0.4744
  189MOL    C1649272   1.707   2.449   3.896  0.1323 -0.4279 -0.7541
  189MOL    C1749273   1.762   2.456   4.020  0.1065 -0.2678 -0.0095
  189MOL    C1849274   1.718   2.370   4.131 -0.5372  0.8971  0.3364
  189MOL    C1949275   1.867   2.556   4.050 -0.0774  0.3209 -0.2400
  189MOL    H2049276   1.652   2.316   3.759  1.8337 -0.2775  1.3189
  189MOL    H2149277   1.572   2.283   3.922 -0.2394 -1.6672 -0.5304
  189MOL    H2249278   1.747   2.509   3.816  1.0960 -0.7852 -0.5471
  189MOL    H2349279   1.800   2.341   4.196 -1.5104 -1.4957  0.5468
  189MOL    H2449280   1.670   2.279   4.096  0.5378  1.2142 -2.0552
  189MOL    H2549281   1.643   2.420   4.193  2.1941  0.9911  3.7090
  189MOL    H2649282   1.834   2.607   4.141 -1.1171 -1.7280  0.5492
  189MOL    H2749283   1.883   2.633   3.975 -2.6261 -0.1375 -1.2682
  189MOL    C2849284   2.011   2.501   4.072 -0.0123  0.1643 -0.5905
  189MOL    C2949285   2.127   2.607   4.048 -0.5375  0.2390  0.3999
  189MOL    C3049286   2.199   2.619   3.938  0.4326  0.3757 -0.0491
  189MOL    C3149287   2.179   2.536   3.815  0.6092 -0.5851 -0.1537
  189MOL    C3249288   2.300   2.734   3.916  0.0436  1.0212 -0.1122
  189MOL    H3349289   2.022   2.408   4.017 -1.1084 -1.2870  1.5559
  189MOL    H3449290   1.991   2.488   4.179 -2.7551  2.7708 -0.7135
  189MOL    H3549291   2.156   2.657   4.139  2.0694 -1.4687  0.5493
  189MOL    H3649292   2.137   2.435   3.826 -0.6075 -0.2622 -1.5914
  189MOL    H3749293   2.276   2.515   3.770 -0.1964 -5.3723  0.0340
  189MOL    H3849294   2.117   2.593   3.745 -0.6214 -0.2383  1.1913
  189MOL    H3949295   2.385   2.706   3.854 -0.4946 -0.5274 -0.1652
  189MOL    H4049296   2.357   2.755   4.007 -0.9972 -0.6158  0.9411
  189MOL    C4149297   2.246   2.857   3.847  0.0154 -0.1029 -0.8618
  189MOL    C4249298   2.359   2.948   3.804 -0.5131 -0.2388  0.0184
  189MOL    C4349299   2.396   2.958   3.667  0.3878 -0.3722 -0.9302
  189MOL    C4449300   2.344   2.869   3.558 -0.7175  0.3089  0.2499
  189MOL    C4549301   2.470   3.088   3.628  0.0592 -0.0148 -0.0613
  189MOL    H4649302   2.190   2.909   3.924 -0.4056 -1.2675 -0.3717
  189MOL    H4749303   2.180   2.839   3.761 -2.2744  2.0151  0.4075
  189MOL    H4849304   2.389   3.025   3.872 -3.2770  1.7481 -0.9449
  189MOL    H4949305   2.265   2.798   3.583 -1.0174  1.5692  3.1036
  189MOL    H5049306   2.425   2.800   3.536 -0.2346  1.3604 -1.4229
  189MOL    H5149307   2.343   2.905   3.455 -0.6271  1.3945  0.6189
  189MOL    H5249308   2.411   3.168   3.673 -1.7694 -1.6914  0.6079
  189MOL    H5349309   2.457   3.107   3.521  1.1501 -0.6525 -0.3044
  189MOL    C5449310   2.620   3.092   3.661  0.1092 -0.0836 -0.2379
  189MOL    C5549311   2.695   3.202   3.586  0.3862  0.2703 -0.3298
  189MOL    C5649312   2.725   3.322   3.649 -0.1791 -0.1374  1.3742
  189MOL    C5749313   2.695   3.351   3.797 -0.0032 -0.0124 -0.4314
  189MOL    C5849314   2.760   3.444   3.566 -0.1561  0.3206 -0.2638
  189MOL    H5949315   2.675   3.001   3.638  0.5260 -0.3806  1.8974
  189MOL    H6049316   2.633   3.104   3.768  3.3369  2.8067 -0.8178
  189MOL    H6149317   2.723   3.176   3.484  0.5842  2.3457 -0.8284
  189MOL    H6249318   2.756   3.295   3.867  1.7896  0.9788 -1.1593
  189MOL    H6349319   2.588   3.330   3.808  0.1289 -0.8236 -0.7015
  189MOL    H6449320   2.703   3.455   3.829  0.2562 -0.6415  1.6052
  189MOL    H6549321   2.803   3.425   3.467 -2.2516  0.5734 -1.2386
  189MOL    H6649322   2.840   3.489   3.624 -0.0196  1.1286 -1.0578
  189MOL    C6749323   2.637   3.538   3.556  0.0207 -0.1830 -0.3961
  189MOL    C6849324   2.538   3.489   3.460 -1.0080  0.2115 -0.1571
  189MOL    C6949325   2.511   3.534   3.336  0.4968  0.0090  0.0832
  189MOL    C7049326   2.579   3.653   3.268 -0.0744  0.1694  0.2491
  189MOL    C7149327   2.405   3.460   3.247 -0.5088 -0.4205  0.7102
  189MOL    H7249328   2.673   3.638   3.535  1.5018 -0.0911  2.2789
  189MOL    H7349329   2.588   3.567   3.649 -2.6899 -1.5499 -1.3405
  189MOL    H7449330   2.476   3.407   3.493 -1.5440  0.5224 -0.3855
  189MOL    H7549331   2.496   3.704   3.220  1.3114  1.9023 -0.3635
  189MOL    H7649332   2.648   3.619   3.190 -2.4702 -1.4680 -1.2398
  189MOL    H7749333   2.636   3.716   3.336 -0.2308  0.6447 -0.0614
  189MOL    H7849334   2.321   3.527   3.227 -1.0186 -1.8984 -2.4989
  189MOL    H7949335   2.366   3.381   3.312 -2.4529 -0.2194 -0.1604
  189MOL    C8049336   2.465   3.413   3.113 -0.0784  0.0551 -0.5213
  189MOL    C8149337   2.369   3.369   3.010 -0.4648 -0.7101  0.1085
  189MOL    C8249338   2.357   3.244   2.952  0.0131  0.1892 -0.3656
  189MOL    C8349339   2.444   3.125   2.984  0.1733 -0.3244  0.5668
  189MOL    C8449340   2.259   3.218   2.836 -0.8463 -0.6188 -0.7842
  189MOL    H8549341   2.537   3.333   3.133  0.9521  1.4154  1.4865
  189MOL    H8649342   2.522   3.491   3.062 -1.8916  2.3066  0.8138
  189MOL    H8749343   2.306   3.451   2.981  0.7274  0.1433 -0.0840
  189MOL    H8849344   2.512   3.144   3.066 -0.6174  2.9737  0.5302
  189MOL    H8949345   2.505   3.094   2.899  0.8064  0.4880  0.7123
  189MOL    H9049346   2.381   3.040   3.011 -0.2334 -1.1904 -2.8537
  189MOL    H9149347   2.197   3.307   2.831  0.5936  0.7016  2.9587
  189MOL    H9249348   2.202   3.133   2.876  0.7539 -1.9203 -1.2252
  189MOL    C9349349   2.315   3.173   2.699  0.1048 -0.4386 -0.7573
  189MOL    C9449350   2.206   3.130   2.605  0.1033 -0.2518 -0.0094
  189MOL    C9549351   2.111   3.206   2.547  0.5413  0.0015 -0.0561
  189MOL    C9649352   2.098   3.356   2.563  0.0469  0.1852  0.2669
  189MOL    C9749353   2.007   3.136   2.469  0.4730 -0.8162 -0.5860
  189MOL    H9849354   2.383   3.089   2.712  1.2830  0.2836 -2.0394
  189MOL    H9949355   2.386   3.250   2.668  3.0972 -2.3085  1.1481
  189MOL   H10049356   2.196   3.024   2.585  0.6706 -0.2468 -0.3336
  189MOL   H10149357   1.998   3.383   2.596 -0.7979 -0.4070 -1.7638
  189MOL   H10249358   2.129   3.406   2.472  0.4688  1.0161  0.8614
  189MOL   H10349359   2.162   3.404   2.637  0.7668 -1.9657  1.1057
  189MOL   H10449360   2.048   3.057   2.406  3.5536  0.5320 -0.3537
  189MOL   H10549361   1.989   3.201   2.384 -0.9497 -2.2253 -1.4017
  189MOL   C10649362   1.881   3.087   2.540 -0.3650 -0.4580  0.1534
  189MOL   C10749363   1.809   2.991   2.451  0.3545  0.7579  0.4011
  189MOL   C10849364   1.731   2.887   2.488 -0.7969 -0.2260  0.2376
  189MOL   C10949365   1.710   2.850   2.632 -0.5310  0.3401  0.0110
  189MOL   C11049366   1.647   2.804   2.390  0.3356 -0.0291 -0.0210
  189MOL   H11149367   1.826   3.176   2.570  0.1503  0.1054 -0.5811
  189MOL   H11249368   1.909   3.033   2.631  2.5087 -0.3148 -0.5892
  189MOL   H11349369   1.824   3.015   2.346 -0.4953  0.8476  0.2957
  189MOL   H11449370   1.730   2.926   2.707  0.5200 -2.0025  2.1725
  189MOL   H11549371   1.774   2.766   2.659  1.3969  1.2982 -1.3723
  189MOL   H11649372   1.612   2.806   2.651 -0.7823 -0.4356 -2.8633
  189MOL   H11749373   1.680   2.702   2.412 -1.4046 -0.9615 -1.6142
  189MOL   H11849374   1.670   2.817   2.285  1.9629 -0.5194  0.2572
  189MOL   C11949375   1.499   2.812   2.404 -0.2766 -0.4281 -0.0851
  189MOL   C12049376   1.439   2.955   2.411 -0.4443 -0.5487 -0.2522
  189MOL   C12149377   1.322   2.990   2.355 -0.1082 -0.4730 -0.4811
  189MOL   C12249378   1.219   2.892   2.294 -0.0479 -0.5672 -0.3805
  189MOL   C12349379   1.267   3.132   2.354 -0.4671 -0.6559  0.3055
  189MOL   H12449380   1.461   2.761   2.493 -0.5672 -1.1300 -0.6074
  189MOL   H12549381   1.463   2.760   2.316  0.7972 -1.3024 -0.0273
  189MOL   H12649382   1.501   3.024   2.466 -1.8640  3.8952 -3.9226
  189MOL   H12749383   1.246   2.786   2.294 -0.6321 -0.7174  0.2013
  189MOL   H12849384   1.184   2.922   2.196  0.9897  2.4957  0.1343
  189MOL   H12949385   1.131   2.902   2.358  0.3945 -0.7060  0.2612
  189MOL   H13049386   1.165   3.130   2.392 -0.5193 -2.3898  0.1377
  189MOL   H13149387   1.271   3.169   2.251  0.7321 -1.3242  0.0902
  189MOL   C13249388   1.340   3.238   2.434 -0.0373 -1.3561 -0.2952
  189MOL   C13349389   1.261   3.370   2.420  0.5991 -0.1944  0.1501
  189MOL   C13449390   1.161   3.413   2.501  0.0819  0.6193 -0.7882
  189MOL   C13549391   1.126   3.343   2.625 -0.6276  0.2034 -0.5837
  189MOL   C13649392   1.100   3.543   2.468  0.3623 -0.2544 -0.1068
  189MOL   H13749393   1.439   3.237   2.390  0.9118  2.0582  1.6104
  189MOL   H13849394   1.351   3.215   2.540  1.3680  2.1720  0.3839
  189MOL   H13949395   1.284   3.427   2.332 -0.5657 -0.5741 -0.4066
  189MOL   H14049396   1.195   3.375   2.703 -0.7995 -1.1148  0.1339
  189MOL   H14149397   1.142   3.235   2.616 -1.5635 -0.0218  0.3785
  189MOL   H14249398   1.022   3.339   2.657 -0.3399 -0.3688  0.3171
  189MOL   H14349399   1.157   3.601   2.395  0.8338 -1.5277 -0.7555
  189MOL   H14449400   1.099   3.610   2.555 -2.7592 -0.7577  0.3175
  189MOL   C14549401   0.952   3.522   2.426 -0.8151 -0.1584  0.0187
  189MOL   C14649402   0.886   3.644   2.376 -0.2002 -0.3299 -0.4569
  189MOL   C14749403   0.911   3.695   2.250 -0.8765 -0.7088 -1.0638
  189MOL   C14849404   1.026   3.644   2.155  0.5290 -0.0728 -0.6899
  189MOL   C14949405   0.839   3.815   2.189  0.2407  0.4741  0.6845
  189MOL   H15049406   0.897   3.483   2.512  0.6811 -0.2657  0.9442
  189MOL   H15149407   0.950   3.443   2.352  3.3044  0.7650 -1.2017
  189MOL   H15249408   0.816   3.685   2.446  1.8208  1.5269  0.5442
  189MOL   H15349409   1.102   3.721   2.145  1.7734 -1.3467 -1.3398
  189MOL   H15449410   0.975   3.618   2.063 -0.5227  1.4360 -0.5504
  189MOL   H15549411   1.074   3.552   2.189  1.0889  0.2438 -0.6240
  189MOL   H15649412   0.792   3.788   2.095  0.1623  1.3321  0.4680
  189MOL   H15749413   0.917   3.887   2.166  0.7652 -0.6536 -1.0724
  189MOL   C15849414   0.737   3.878   2.281  0.0342  0.0675 -0.8932
  189MOL   C15949415   0.690   4.011   2.227 -0.3586 -0.0689  0.4199
  189MOL   C16049416   0.567   4.066   2.240 -0.9032 -0.3379  0.0074
  189MOL   C16149417   0.456   3.996   2.318  0.1359 -0.1288  0.6642
  189MOL   C16249418   0.528   4.207   2.188 -0.5703  0.2315 -0.5119
  189MOL   H16349419   0.782   3.909   2.376  1.2343 -1.6354 -0.8797
  189MOL   H16449420   0.650   3.814   2.293  1.2954 -1.1587  2.3188
  189MOL   H16549421   0.763   4.066   2.169 -1.3918 -1.0005 -1.8615
  189MOL   H16649422   0.505   3.937   2.395 -2.7222 -0.4859  2.2886
  189MOL   H16749423   0.388   3.949   2.248 -0.8054  1.6235  0.3881
  189MOL   H16849424   0.395   4.071   2.368 -1.1349  0.3808 -1.5891
  189MOL   H16949425   0.611   4.238   2.125 -1.3419  0.2534 -1.5431
  189MOL   H17049426   0.524   4.281   2.267 -0.3537 -0.2658 -0.0316
  189MOL   C17149427   0.399   4.203   2.103 -0.1719  0.7068 -0.2613
  189MOL   C17249428   0.381   4.339   2.047  0.0039 -0.1556 -0.0862
  189MOL   C17349429   0.271   4.392   1.994 -0.3073 -0.7603  0.6186
  189MOL   C17449430   0.151   4.313   1.956 -0.0049 -0.8215 -0.0257
  189MOL   C17549431   0.281   4.535   1.943  0.5906  0.2066 -0.0601
  189MOL   H17649432   0.306   4.183   2.157  0.2443  1.3219  0.7079
  189MOL   H17749433   0.405   4.141   2.014  0.2340  1.7396 -0.9491
  189MOL   H17849434   0.469   4.401   2.059  2.4037 -2.8091 -3.0318
  189MOL   H17949435   0.114   4.342   1.857 -0.8654  2.5993  1.2252
  189MOL   H18049436   0.068   4.329   2.025 -2.3156 -2.3520 -2.3405
  189MOL   H18149437   0.166   4.205   1.955  0.2028 -0.8212  1.9628
  189MOL   H18249438   0.258   4.531   1.836  1.1026 -0.4628 -0.1462
  189MOL   H18349439   0.385   4.568   1.946  0.5133  1.0610 -4.0484
  189MOL   C18449440   0.197   4.634   2.018  0.2907  0.0362  0.2479
  189MOL   C18549441   0.184   4.771   1.966  1.0639 -0.2144  0.2577
  189MOL   C18649442   0.256   4.873   2.015 -0.3855 -1.0006  0.4771
  189MOL   C18749443   0.338   4.866   2.140  0.2977  0.2190  0.0597
  189MOL   C18849444   0.232   5.005   1.951  0.0973 -0.7383 -1.1493
  189MOL   H18949445   0.234   4.632   2.120  1.2033  0.9104 -0.0583
  189MOL   H19049446   0.092   4.606   2.024 -0.1900  1.6733 -0.2738
  189MOL   H19149447   0.117   4.792   1.884 -0.5680 -1.9512  1.1302
  189MOL   H19249448   0.278   4.862   2.231  1.4248  0.7218  0.8466
  189MOL   H19349449   0.407   4.950   2.138 -0.1444  0.5576 -1.3890
  189MOL   H19449450   0.408   4.783   2.146  1.2377  1.0729  1.3982
  189MOL   H19549451   0.182   5.000   1.855 -1.4710 -1.5381 -0.3106
  189MOL   H19649452   0.327   5.040   1.911  0.8469 -0.4819  0.8144
  189MOL   C19749453   0.167   5.102   2.058  0.1026  0.4664  0.2501
  189MOL   C19849454   0.165   5.248   2.009 -0.0579 -0.6133 -0.0823
  189MOL   C19949455   0.072   5.346   2.042 -0.1786 -0.1786 -0.4176
  189MOL   C20049456   7.856   5.325   2.152  0.1257 -0.8165  0.4514
  189MOL   C20149457   0.081   5.483   1.980 -0.1852 -0.6809 -0.0408
  189MOL   H20249458   0.215   5.096   2.156 -0.1654 -1.2174  0.3022
  189MOL   H20349459   0.066   5.066   2.075  1.3261 -2.0968  2.4965
  189MOL   H20449460   0.239   5.280   1.938 -0.8527  1.4091 -0.0327
  189MOL   H20549461   7.763   5.362   2.110  2.2308  1.4099 -2.4230
  189MOL   H20649462   0.010   5.397   2.226 -0.9000  1.8505 -1.5653
  189MOL   H20749463   7.848   5.226   2.198 -1.1180 -1.2626 -0.6947
  189MOL   H20849464   0.176   5.534   1.997 -0.0139 -0.0448 -2.6664
  189MOL   H20949465   0.020   5.556   2.034 -1.1662  1.1919 -3.5215
  189MOL   C21049466   0.069   5.483   1.824  0.5156 -0.2720  0.1168
  189MOL   C21149467   0.054   5.625   1.771  0.2636  0.7733 -0.2680
  189MOL   C21249468   0.145   5.703   1.710 -0.0672 -0.3165 -0.1965
  189MOL   C21349469   0.277   5.649   1.667  0.1167  0.3024  0.2132
  189MOL   C21449470   0.124   5.854   1.704  0.3429 -0.0169 -0.0162
  189MOL   H21549471   7.857   5.433   1.804  0.6955  0.1739 -1.9886
  189MOL   H21649472   0.143   5.419   1.775 -0.3090 -0.0321 -1.4593
  189MOL   H21749473   7.848   5.678   1.804 -0.7500 -0.4269 -1.0271
  189MOL   H21849474   0.318   5.672   1.569  0.5439 -2.6025 -0.3446
  189MOL   H21949475   0.283   5.540   1.676 -0.8962  0.3790  2.0770
  189MOL   H22049476   0.349   5.693   1.735 -0.8871 -3.0711  3.6377
  189MOL   H22149477   0.209   5.902   1.754 -0.1943  0.4050  0.4908
  189MOL   H22249478   0.035   5.890   1.755 -0.3394  2.0531 -2.4959
  189MOL   C22349479   0.131   5.919   1.557  0.1125  0.3759 -0.1725
  189MOL   C22449480   0.121   6.075   1.565 -0.6722  0.1044  0.3694
  189MOL   C22549481   0.039   6.159   1.501 -0.8860 -0.0188  0.1733
  189MOL   C22649482   7.811   6.124   1.402 -0.3834  0.1758 -0.9428
  189MOL   C22749483   0.055   6.308   1.515 -0.2543 -0.3308  0.3748
  189MOL   H22849484   0.050   5.879   1.497 -0.6428 -0.7647  1.5520
  189MOL   H22949485   0.222   5.888   1.507 -0.3203 -0.7341 -0.2793
  189MOL   H23049486   0.199   6.109   1.631  1.1545 -1.2649 -1.0288
  189MOL   H23149487   7.831   6.132   1.295  0.5414 -1.1103 -0.8724
  189MOL   H23249488   7.724   6.188   1.418  0.5342  0.9910  1.0196
  189MOL   H23349489   7.782   6.021   1.421 -1.8349  0.9236  1.2139
  189MOL   H23449490   0.130   6.349   1.584  1.1391 -0.2928 -1.1238
  189MOL   H23549491   7.846   6.360   1.541 -0.1605  0.2411 -0.3994
  189MOL   C23649492   0.117   6.370   1.387 -0.9225  0.4851 -0.2463
  189MOL   C23749493   0.117   6.520   1.399 -0.5892 -0.5689 -0.5472
  189MOL   C23849494   0.228   6.591   1.435  0.8183  0.6427  0.4575
  189MOL   C23949495   0.362   6.532   1.459  0.2442  0.0654 -0.5657
  189MOL   C24049496   0.218   6.731   1.474  0.0898 -0.2088 -0.4293
  189MOL   H24149497   0.056   6.348   1.299  0.1811 -2.5023 -0.3150
  189MOL   H24249498   0.218   6.338   1.361 -1.3265 -0.2848 -0.9170
  189MOL   H24349499   0.018   6.564   1.397  0.9997  3.2868  0.9925
  189MOL   H24449500   0.392   6.490   1.363 -0.1343 -0.0015 -0.6551
  189MOL   H24549501   0.358   6.463   1.543  0.0255  0.0145 -0.6164
  189MOL   H24649502   0.432   6.610   1.488 -2.1822  2.1562 -0.2157
  189MOL   H24749503   0.118   6.773   1.462  0.3371 -0.0025 -1.8757
  189MOL   H24849504   0.278   6.796   1.410 -2.4785  2.4716 -0.2537
  189MOL   C24949505   0.249   6.749   1.624 -0.5374  0.3604  0.0115
  189MOL   C25049506   0.220   6.889   1.666 -0.1022 -0.1818 -0.4673
  189MOL   C25149507   0.104   6.953   1.706  0.3838  0.5170 -0.0577
  189MOL   C25249508   7.852   6.886   1.707 -0.2463 -0.9621  1.1161
  189MOL   C25349509   0.110   7.100   1.731 -0.6655  0.0025  0.2774
  189MOL   H25449510   0.355   6.736   1.650  0.2676  1.4315 -2.6185
  189MOL   H25549511   0.196   6.680   1.690  0.3437 -1.6055 -1.2710
  189MOL   H25649512   0.303   6.955   1.648  1.3723 -1.5183  1.2846
  189MOL   H25749513   7.803   6.892   1.804 -0.5490  1.9195  0.8497
  189MOL   H25849514   7.860   6.780   1.685  1.0228 -0.8149  0.8251
  189MOL   H25949515   7.783   6.934   1.637  0.5568 -0.4978  0.6292
  189MOL   H26049516   0.013   7.143   1.706 -2.2615 -2.7904  1.3868
  189MOL   H26149517   0.185   7.154   1.673 -0.4258 -0.9607 -0.3337
  189MOL   H26249518   0.127   7.116   1.837 -1.7402 -1.9754  0.7720
  190MOL     C149519   7.211   1.820   6.404  0.3383  0.1206  0.1127
  190MOL     C249520   7.134   1.791   6.535 -0.1277  0.1371  0.7479
  190MOL     C349521   7.114   1.669   6.583  0.0427  0.4637  0.0897
  190MOL     C449522   7.172   1.540   6.517 -0.2272 -0.4293  0.1438
  190MOL     C549523   7.046   1.649   6.718 -0.1873 -0.1763 -1.1937
  190MOL     H649524   7.283   1.739   6.394  2.2298  1.6423  1.1172
  190MOL     H749525   7.143   1.816   6.319  0.9336  3.1815 -0.5662
  190MOL     H849526   7.093   1.877   6.586 -1.1190 -0.5903  1.1815
  190MOL     H949527   7.225   1.548   6.422  1.6976 -2.7843  0.9511
  190MOL    H1049528   7.101   1.459   6.497  0.9964 -1.4236 -0.2499
  190MOL    H1149529   7.254   1.509   6.582  1.2164  0.9073 -1.0222
  190MOL    H1249530   6.969   1.573   6.706 -1.9033  0.9019  2.2971
  190MOL    H1349531   6.996   1.743   6.741  1.2948 -0.0144  1.6477
  190MOL    H1449532   7.257   1.918   6.411  1.1093 -0.2974  0.9282
  190MOL    C1549533   7.141   1.601   6.836  0.0782 -0.1963 -0.8459
  190MOL    C1649534   7.047   1.597   6.953 -0.7517  0.1771 -0.4540
  190MOL    C1749535   7.027   1.492   7.034 -0.2547  0.3734  0.2112
  190MOL    C1849536   7.086   1.352   7.022  0.1617 -0.6138  0.1765
  190MOL    C1949537   6.939   1.519   7.156 -0.6079  0.1013  0.2670
  190MOL    H2049538   7.215   1.677   6.857 -1.2951  0.9536 -0.1224
  190MOL    H2149539   7.187   1.504   6.815 -0.9192 -0.3777 -2.2799
  190MOL    H2249540   6.983   1.682   6.968  0.9871  1.5713 -0.8122
  190MOL    H2349541   7.026   1.285   7.084  0.4904 -1.6587 -0.6170
  190MOL    H2449542   7.187   1.349   7.063 -0.1139 -1.1418  0.8122
  190MOL    H2549543   7.092   1.325   6.916 -0.0931  1.0039 -0.2615
  190MOL    H2649544   6.960   1.618   7.196  3.7897  0.3141 -2.2251
  190MOL    H2749545   6.966   1.442   7.229 -0.9531 -1.1119 -0.8500
  190MOL    C2849546   6.790   1.481   7.127  0.1998 -0.4711 -0.1889
  190MOL    C2949547   6.725   1.467   7.267 -0.3501 -0.1569  0.9982
  190MOL    C3049548   6.735   1.359   7.348 -0.1327  0.8482  0.0994
  190MOL    C3149549   6.803   1.224   7.314 -0.0482 -0.3444 -0.8835
  190MOL    C3249550   6.673   1.369   7.493 -1.4212 -0.5612 -0.2637
  190MOL    H3349551   6.760   1.395   7.068 -0.0828 -0.3900 -0.1607
  190MOL    H3449552   6.746   1.570   7.081 -0.2804 -0.3207  0.5569
  190MOL    H3549553   6.679   1.561   7.295 -0.9465 -0.1438 -0.0266
  190MOL    H3649554   6.882   1.195   7.383 -1.1255 -2.2775 -0.4362
  190MOL    H3749555   6.835   1.212   7.210  1.3002 -2.6210 -0.2488
  190MOL    H3849556   6.725   1.149   7.326  0.7929 -1.2708 -1.1496
  190MOL    H3949557   6.665   1.474   7.521 -1.1817 -0.7620  0.5823
  190MOL    H4049558   6.747   1.326   7.560 -0.9720  0.5385 -0.0407
  190MOL    C4149559   6.551   1.288   7.518 -0.3146  0.3694  0.2007
  190MOL    C4249560   6.510   1.306   7.664 -0.1645  0.3460 -0.4809
  190MOL    C4349561   6.394   1.270   7.719  0.6266 -0.1390  0.7984
  190MOL    C4449562   6.290   1.190   7.648 -0.0247  0.0875 -0.9472
  190MOL    C4549563   6.359   1.297   7.864 -0.2807  0.1460  0.7076
  190MOL    H4649564   6.553   1.179   7.508 -0.9746  0.2901  0.8560
  190MOL    H4749565   6.462   1.329   7.471 -0.1242 -0.7342 -1.1658
  190MOL    H4849566   6.577   1.369   7.720  0.5385  1.6871 -2.7988
  190MOL    H4949567   6.281   1.089   7.687  2.7443  0.1241 -0.0895
  190MOL    H5049568   6.309   1.173   7.543 -0.5748  1.8507 -1.3601
  190MOL    H5149569   6.192   1.237   7.651 -0.3321 -0.4125 -2.7388
  190MOL    H5249570   6.264   1.350   7.874 -0.4842 -0.2517  0.9250
  190MOL    H5349571   6.433   1.364   0.024 -1.3555  0.3266  2.3297
  190MOL    C5449572   6.360   1.170   0.070 -0.3006 -0.3326  0.1147
  190MOL    C5549573   6.320   1.218   0.211 -0.2899  0.1181 -0.7013
  190MOL    C5649574   6.240   1.144   0.291 -0.0942 -0.3016 -0.5448
  190MOL    C5749575   6.198   1.000   0.266 -0.1709 -0.3118  0.7119
  190MOL    C5849576   6.201   1.190   0.428 -0.5570 -0.1671  0.1599
  190MOL    H5949577   6.462   1.133   0.084  0.4939  1.9081  0.3961
  190MOL    H6049578   6.304   1.090   0.021 -0.2491  2.3393 -4.6129
  190MOL    H6149579   6.353   1.314   0.248 -3.3760  1.1007 -0.3387
  190MOL    H6249580   6.228   0.964   0.168  0.3568  0.2663  0.6603
  190MOL    H6349581   6.090   0.991   0.262 -0.2872  1.3732 -0.3822
  190MOL    H6449582   6.233   0.934   0.346  0.9123 -1.6670 -0.8609
  190MOL    H6549583   6.259   1.280   0.448 -0.7815 -0.1662  0.8003
  190MOL    H6649584   6.229   1.114   0.501  0.7960  0.7876  0.6569
  190MOL    C6749585   6.056   1.226   0.444  0.1690  0.0801 -0.0228
  190MOL    C6849586   6.015   1.324   0.330 -0.0119  0.3441  0.7220
  190MOL    C6949587   5.897   1.310   0.264  0.7736 -0.1084  0.1976
  190MOL    C7049588   5.791   1.205   0.278 -0.7965  0.4697 -0.6190
  190MOL    C7149589   5.852   1.419   0.163  0.4504 -0.2713 -0.2374
  190MOL    H7249590   6.030   1.267   0.541  1.9137  0.9244  0.1019
  190MOL    H7349591   5.998   1.134   0.441  0.3243  0.0124 -1.6927
  190MOL    H7449592   6.073   1.411   0.303  1.8248 -1.2509 -0.6115
  190MOL    H7549593   5.698   1.251   0.309 -0.8788  0.5902 -1.0402
  190MOL    H7649594   5.819   1.136   0.357 -1.1024 -0.0368 -0.9550
  190MOL    H7749595   5.779   1.148   0.186 -0.0624  0.2888 -0.6099
  190MOL    H7849596   5.836   1.365   0.070 -3.3222  0.2829  0.0201
  190MOL    H7949597   5.935   1.488   0.148 -1.0786  1.5598 -0.5946
  190MOL    C8049598   5.730   1.504   0.217 -0.2887  0.1427 -0.0760
  190MOL    C8149599   5.713   1.616   0.128 -0.1728  0.2012  0.1859
  190MOL    C8249600   5.708   1.746   0.164 -0.7357 -0.6507  0.0640
  190MOL    C8349601   5.749   1.811   0.295  0.4196  0.3013 -0.0219
  190MOL    C8449602   5.676   1.852   0.057  0.0544  0.2422  0.1677
  190MOL    H8549603   5.765   1.547   0.311  0.5480  3.0464 -1.6400
  190MOL    H8649604   5.638   1.447   0.231  0.2983 -1.6050 -3.1249
  190MOL    H8749605   5.682   1.595   0.026  0.7923 -0.3201 -0.0117
  190MOL    H8849606   5.846   1.861   0.291  1.3215 -1.3956  0.1028
  190MOL    H8949607   5.764   1.740   0.376  0.0125 -0.3591 -0.5224
  190MOL    H9049608   5.675   1.882   0.332 -0.6698  0.7810 -2.9476
  190MOL    H9149609   5.678   1.794   7.847 -1.0770 -0.1715  0.3963
  190MOL    H9249610   5.764   1.915   0.044 -1.9338  2.6822 -1.9236
  190MOL    C9349611   5.549   1.930   0.086  0.2000  0.2372  0.2996
  190MOL    C9449612   5.483   1.980   7.844  0.4656  0.0638 -0.3816
  190MOL    C9549613   5.385   1.919   7.769 -0.4632 -0.2052  0.0014
  190MOL    C9649614   5.322   1.777   7.790 -0.3151  1.2708 -0.3811
  190MOL    C9749615   5.311   1.989   7.659 -0.1165 -0.1332 -0.1449
  190MOL    H9849616   5.566   2.008   0.160 -1.4519 -0.6500  1.6363
  190MOL    H9949617   5.489   1.858   0.141  0.3903 -0.3204 -0.2206
  190MOL   H10049618   5.513   2.077   7.807 -2.5708  0.9833 -0.5668
  190MOL   H10149619   5.213   1.779   7.776 -0.1522 -1.0874 -2.3381
  190MOL   H10249620   5.341   1.751   0.011  1.2977  2.2083 -0.4272
  190MOL   H10349621   5.364   1.706   7.720 -2.5260 -0.8261  0.3501
  190MOL   H10449622   5.331   2.096   7.649 -2.8701  0.2366 -2.4006
  190MOL   H10549623   5.206   1.965   7.678  0.2044 -0.4923  1.2313
  190MOL   C10649624   5.354   1.933   7.525  0.2621 -0.6116  0.1531
  190MOL   C10749625   5.262   1.965   7.412  0.0812  0.5334 -0.7749
  190MOL   C10849626   5.146   1.905   7.381 -0.4098  0.2084 -0.3784
  190MOL   C10949627   5.095   1.781   7.452  0.1903  0.4091  0.3764
  190MOL   C11049628   5.067   1.954   7.264 -0.2827 -0.1068  1.5784
  190MOL   H11149629   5.355   1.824   7.523 -2.6689 -0.6978  0.7506
  190MOL   H11249630   5.456   1.962   7.499 -0.0260  0.0918 -0.1866
  190MOL   H11349631   5.303   2.049   7.358  0.2021 -0.1338 -1.7290
  190MOL   H11449632   5.166   1.736   7.522 -0.4699  1.1314  1.5260
  190MOL   H11549633   5.089   1.701   7.378  0.3568  0.8285 -0.0964
  190MOL   H11649634   4.995   1.795   7.494  0.5263  1.7211  0.7437
  190MOL   H11749635   5.081   2.062   7.272  1.7076 -0.1910 -0.3270
  190MOL   H11849636   4.960   1.939   7.279 -0.4896  0.6273  0.8960
  190MOL   C11949637   5.113   1.897   7.133  0.4274 -0.0577 -0.4132
  190MOL   C12049638   5.063   1.972   7.015  0.5763  0.3267 -0.1972
  190MOL   C12149639   4.979   1.920   6.918  0.0852  0.0931  0.1794
  190MOL   C12249640   4.920   1.776   6.919 -0.7505 -0.0907 -0.4959
  190MOL   C12349641   4.951   1.998   6.797  0.3618 -0.2891  0.0602
  190MOL   H12449642   5.084   1.792   7.132 -0.1584  0.0948 -3.4877
  190MOL   H12549643   5.221   1.888   7.140  0.5309  2.1164  1.4854
  190MOL   H12649644   5.102   2.073   7.008  0.3946  0.4389  0.4497
  190MOL   H12749645   4.893   1.749   6.817 -1.1089 -1.3553 -0.0762
  190MOL   H12849646   4.831   1.768   6.980 -0.8666  4.7271  0.1762
  190MOL   H12949647   4.988   1.702   6.961 -1.0410  0.3579  0.7623
  190MOL   H13049648   4.979   2.103   6.802 -2.8612  0.5898  0.6417
  190MOL   H13149649   4.844   1.998   6.776  0.6675 -3.1483 -1.8644
  190MOL   C13249650   5.008   1.956   6.664 -0.1562  0.0318 -0.3209
  190MOL   C13349651   5.168   1.953   6.656 -0.9808 -0.3527 -0.6328
  190MOL   C13449652   5.247   1.848   6.678  0.7309 -0.7027 -0.0219
  190MOL   C13549653   5.199   1.714   6.720  0.2056  0.2803 -0.4471
  190MOL   C13649654   5.400   1.860   6.674 -0.7383  0.0018  0.5937
  190MOL   H13749655   4.973   2.024   6.587 -1.2350  3.7559  3.2399
  190MOL   H13849656   4.971   1.855   6.650  0.1657 -0.2126  0.5424
  190MOL   H13949657   5.230   2.038   6.632  1.8215 -2.2047 -0.3084
  190MOL   H14049658   5.243   1.638   6.656 -0.8672 -1.1242  0.4403
  190MOL   H14149659   5.091   1.706   6.706  0.3480  1.8903 -2.7496
  190MOL   H14249660   5.224   1.693   6.824  0.2231  1.0164 -0.3003
  190MOL   H14349661   5.444   1.803   6.756  2.1783  2.4782  0.8695
  190MOL   H14449662   5.436   1.962   6.692 -0.1536 -0.2802  1.0587
  190MOL   C14549663   5.462   1.796   6.546  0.5359  0.7234  0.2489
  190MOL   C14649664   5.433   1.900   6.436 -0.3732 -0.5317  0.3325
  190MOL   C14749665   5.348   1.890   6.334 -0.3484 -0.7460  0.1056
  190MOL   C14849666   5.266   1.767   6.299  0.2529 -0.0507 -0.1473
  190MOL   C14949667   5.322   2.025   6.261 -0.1730  0.0856  0.3014
  190MOL   H15049668   5.417   1.700   6.519 -1.8415  1.6317  0.8791
  190MOL   H15149669   5.566   1.776   6.574  0.1487 -0.0769  1.1460
  190MOL   H15249670   5.485   1.993   6.453  0.7912 -1.3104  1.1712
  190MOL   H15349671   5.162   1.796   6.316  0.2309  0.2024 -0.7112
  190MOL   H15449672   5.288   1.681   6.361  3.9285  0.7905 -0.1987
  190MOL   H15549673   5.279   1.750   6.192 -0.5615 -3.6159  0.2548
  190MOL   H15649674   5.319   2.008   6.153  0.8800  0.7522  0.1663
  190MOL   H15749675   5.394   2.103   6.282 -1.6671  1.7008 -0.3849
  190MOL   C15849676   5.182   2.080   6.304  0.3135  0.0461  0.1658
  190MOL   C15949677   5.164   2.211   6.235  1.1359 -0.4678 -0.2637
  190MOL   C16049678   5.085   2.310   6.274  0.0398 -0.7791  0.1925
  190MOL   C16149679   5.008   2.315   6.412  0.5273 -0.6489 -0.3643
  190MOL   C16249680   5.046   2.420   6.178 -0.2276 -0.6556  0.0577
  190MOL   H16349681   5.177   2.080   6.413 -0.4148  0.3759  0.1297
  190MOL   H16449682   5.100   2.012   6.282 -0.1041  0.7003 -0.2956
  190MOL   H16549683   5.193   2.211   6.131 -0.3091  0.4324 -0.6747
  190MOL   H16649684   5.062   2.246   6.476  2.6290  0.6599 -0.6779
  190MOL   H16749685   4.904   2.281   6.413  0.4165 -0.3804 -1.7332
  190MOL   H16849686   5.010   2.414   6.459 -1.1476 -0.1836 -1.2457
  190MOL   H16949687   5.123   2.440   6.103  0.0467 -2.5795 -0.2098
  190MOL   H17049688   5.040   2.519   6.222 -0.3847  0.3953 -2.2639
  190MOL   C17149689   4.915   2.390   6.108  1.0254  0.4424 -0.0612
  190MOL   C17249690   4.875   2.514   6.031 -0.4054 -0.0531  0.0145
  190MOL   C17349691   4.763   2.527   5.955  0.4456 -0.3163 -0.4629
  190MOL   C17449692   4.668   2.411   5.923  0.3165  0.4940 -0.1763
  190MOL   C17549693   4.727   2.662   5.882 -0.1843 -0.1796 -0.2219
  190MOL   H17649694   4.832   2.383   6.178 -0.4559 -0.6355 -1.8685
  190MOL   H17749695   4.926   2.301   6.047  0.0725 -0.4653  1.0539
  190MOL   H17849696   4.942   2.596   6.050 -0.5692  0.0103  0.3184
  190MOL   H17949697   4.563   2.440   5.919 -0.5200 -2.4245 -0.9002
  190MOL   H18049698   4.664   2.333   6.000  0.0711  0.7104  0.0318
  190MOL   H18149699   4.703   2.360   5.834  1.0220 -0.1803  0.4764
  190MOL   H18249700   4.619   2.675   5.882 -0.2143 -0.2038  2.0282
  190MOL   H18349701   4.763   2.652   5.780 -3.1891  1.3981 -1.4866
  190MOL   C18449702   4.790   2.795   5.946  0.3463  0.6041 -0.2811
  190MOL   C18549703   4.739   2.815   6.086  0.3813 -0.1026 -0.3965
  190MOL   C18649704   4.817   2.839   6.198 -0.9173 -0.1275 -0.4670
  190MOL   C18749705   4.968   2.857   6.184 -0.5057 -0.1368 -0.4947
  190MOL   C18849706   4.761   2.855   6.333 -0.1655  0.9817 -0.2868
  190MOL   H18949707   4.757   2.888   5.900 -0.2076 -0.2119 -1.5759
  190MOL   H19049708   4.897   2.782   5.932  0.1491  0.2637 -1.5673
  190MOL   H19149709   4.633   2.801   6.105  0.6073 -1.8707 -0.3350
  190MOL   H19249710   4.991   2.899   6.086  0.1313 -2.4357 -1.3607
  190MOL   H19349711   5.018   2.762   6.202 -0.4817  0.1700  1.1187
  190MOL   H19449712   5.004   2.921   6.265 -1.7233  0.8535 -0.7163
  190MOL   H19549713   4.831   2.841   6.415 -1.0419  1.6943  0.6139
  190MOL   H19649714   4.699   2.766   6.347 -2.1715  1.7483 -3.7716
  190MOL   C19749715   4.671   2.973   6.356 -0.4773 -0.2203 -0.5147
  190MOL   C19849716   4.636   2.995   6.501  0.1214  0.6457 -0.0225
  190MOL   C19949717   4.514   3.022   6.554 -0.4133 -0.3289  0.0032
  190MOL   C20049718   4.387   3.037   6.473  0.2086 -0.6805  0.1301
  190MOL   C20149719   4.502   3.054   6.703 -0.8868 -0.0823  0.6103
  190MOL   H20249720   4.585   2.956   6.291  0.5309 -2.9736 -1.1816
  190MOL   H20349721   4.713   3.066   6.316 -1.1772  0.2926 -0.0782
  190MOL   H20449722   4.722   2.986   6.566 -1.2783 -2.7155  1.4678
  190MOL   H20549723   4.405   3.002   6.371 -1.2174 -0.2162 -0.2877
  190MOL   H20649724   4.349   3.139   6.466  0.4265 -0.4832  1.6528
  190MOL   H20749725   4.304   2.973   6.503 -2.0213  1.6372 -0.8909
  190MOL   H20849726   4.592   3.032   6.761 -0.0468  0.3302 -0.5112
  190MOL   H20949727   4.433   2.980   6.742 -1.2826  0.2719  0.5938
  190MOL   C21049728   4.447   3.195   6.740 -0.3574  0.0083  0.4651
  190MOL   C21149729   4.296   3.208   6.740 -0.4533  1.3544  0.2048
  190MOL   C21249730   4.213   3.222   6.843  0.5975 -0.1057  0.3885
  190MOL   C21349731   4.257   3.262   6.983 -0.3739 -0.0412  0.5892
  190MOL   C21449732   4.063   3.241   6.815  0.2014 -0.0930 -0.1180
  190MOL   H21549733   4.503   3.264   6.676  2.1453 -0.2465  2.2883
  190MOL   H21649734   4.483   3.229   6.838 -1.9207 -0.1918  1.1168
  190MOL   H21749735   4.252   3.213   6.641  0.4205 -0.4147 -0.2968
  190MOL   H21849736   4.215   3.359   7.008  2.0015  1.4582 -1.0610
  190MOL   H21949737   4.363   3.285   6.991 -0.2058  0.3643 -2.3019
  190MOL   H22049738   4.215   3.200   7.063  3.0681 -1.6930  1.2311
  190MOL   H22149739   4.056   3.230   6.707 -0.2001  1.8329 -0.3086
  190MOL   H22249740   4.026   3.340   6.841 -1.9497 -0.0126 -3.2336
  190MOL   C22349741   3.986   3.126   6.870 -0.3655  0.2991 -0.0616
  190MOL   C22449742   4.017   2.999   6.806  0.0934  0.2562  0.2072
  190MOL   C22549743   3.954   2.945   6.703  0.0864  0.8740 -0.8689
  190MOL   C22649744   3.836   3.009   6.635  0.3628  0.2039  0.4352
  190MOL   C22749745   3.977   2.806   6.657  0.6695  0.5813  0.9397
  190MOL   H22849746   3.879   3.145   6.865 -0.3194  0.7157  0.4780
  190MOL   H22949747   4.011   3.117   6.976  1.7129  1.0898 -0.4476
  190MOL   H23049748   4.096   2.941   6.852 -1.0897 -2.4745 -1.0890
  190MOL   H23149749   3.867   3.062   6.545 -0.6404 -2.9397 -1.8638
  190MOL   H23249750   3.790   3.089   6.693  0.3952  0.2149  0.4465
  190MOL   H23349751   3.761   2.939   6.597  0.8912  0.5114 -1.2027
  190MOL   H23449752   3.978   2.810   6.548  1.4116  2.2884  0.9983
  190MOL   H23549753   3.895   2.739   6.683  2.4684 -1.7082  0.8447
  190MOL   C23649754   4.121   2.748   6.689  0.4616 -0.1528  0.5186
  190MOL   C23749755   4.119   2.603   6.655 -0.6281  0.6224 -0.1402
  190MOL   C23849756   4.088   2.497   6.733 -0.5771  0.4936 -0.8222
  190MOL   C23949757   4.067   2.505   6.885  0.1959  0.4081  0.4652
  190MOL   C24049758   4.090   2.352   6.685 -0.5752 -0.2374  0.4387
  190MOL   H24149759   4.125   2.742   6.798  2.6263 -0.7643  0.4143
  190MOL   H24249760   4.208   2.788   6.638 -0.0100 -1.9179 -1.7733
  190MOL   H24349761   4.136   2.590   6.549 -0.5182  3.1283 -0.4542
  190MOL   H24449762   4.140   2.444   6.939 -0.4497 -1.1903 -0.4423
  190MOL   H24549763   3.967   2.465   6.903  0.5045 -1.1928 -1.1555
  190MOL   H24649764   4.071   2.607   6.923  1.7118  0.9296 -1.0590
  190MOL   H24749765   4.177   2.295   6.718 -0.1899 -0.4339 -0.8500
  190MOL   H24849766   4.109   2.342   6.578  2.1660  0.6117  0.8008
  190MOL   C24949767   3.960   2.272   6.699 -0.2005  0.3543 -0.2453
  190MOL   C25049768   3.959   2.145   6.618  0.3439 -0.0395 -0.0088
  190MOL   C25149769   3.849   2.093   6.549 -0.2401 -0.1329  0.9058
  190MOL   C25249770   3.711   2.156   6.539  0.1726 -0.0877 -0.2464
  190MOL   C25349771   3.861   1.956   6.476  0.7511 -0.1771 -0.2380
  190MOL   H25449772   3.883   2.345   6.674 -1.8429 -1.5173 -0.7190
  190MOL   H25549773   3.935   2.243   6.801 -1.8413  1.6673 -0.2587
  190MOL   H25649774   4.048   2.086   6.621  0.4582 -0.0419 -2.6976
  190MOL   H25749775   3.641   2.087   6.585 -0.2007  0.1334 -0.4893
  190MOL   H25849776   3.684   2.163   6.434  0.0315  1.0975 -0.1478
  190MOL   H25949777   3.693   2.259   6.572 -2.7495 -1.4019  2.4380
  190MOL   H26049778   3.834   1.964   6.371 -1.5567 -3.5886 -0.0073
  190MOL   H26149779   3.799   1.877   6.520 -0.3799  0.0499 -1.3907
  190MOL   H26249780   3.962   1.918   6.489 -0.4409 -3.0000  1.4247
   7.88257   7.88257   7.88257
