;
; Gromacs include topology (itp) file.
; For Molecular Group XYZ
; Force field scheme: opls2005
; Produced from DL_FIELD v4.11
;


[ moleculetype ]
; name    nrexcl
XYZ    3

[ atoms ]
; nr   type   resnr   residu    atom    cgnr    charge    mass
    1        CT    1  MOL      C1     1  -0.1800000   12.0115
    2       CME    1  MOL      C2     2  -0.1150000   12.0115
    3       CME    1  MOL      C3     3   0.0000000   12.0115
    4        CT    1  MOL      C4     4  -0.1800000   12.0115
    5        CT    1  MOL      C5     5  -0.1200000   12.0115
    6        HC    1  MOL      H6     6   0.0600000    1.0080
    7        HC    1  MOL      H7     7   0.0600000    1.0080
    8        HE    1  MOL      H8     8   0.1150000    1.0080
    9        HC    1  MOL      H9     9   0.0600000    1.0080
   10        HC    1  MOL     H10    10   0.0600000    1.0080
   11        HC    1  MOL     H11    11   0.0600000    1.0080
   12        HC    1  MOL     H12    12   0.0600000    1.0080
   13        HC    1  MOL     H13    13   0.0600000    1.0080
   14        HC    1  MOL     H14    14   0.0600000    1.0080
   15        CT    1  MOL     C15    15  -0.1200000   12.0115
   16       CME    1  MOL     C16    16  -0.1150000   12.0115
   17       CME    1  MOL     C17    17   0.0000000   12.0115
   18        CT    1  MOL     C18    18  -0.1800000   12.0115
   19        CT    1  MOL     C19    19  -0.1200000   12.0115
   20        HC    1  MOL     H20    20   0.0600000    1.0080
   21        HC    1  MOL     H21    21   0.0600000    1.0080
   22        HE    1  MOL     H22    22   0.1150000    1.0080
   23        HC    1  MOL     H23    23   0.0600000    1.0080
   24        HC    1  MOL     H24    24   0.0600000    1.0080
   25        HC    1  MOL     H25    25   0.0600000    1.0080
   26        HC    1  MOL     H26    26   0.0600000    1.0080
   27        HC    1  MOL     H27    27   0.0600000    1.0080
   28        CT    1  MOL     C28    28  -0.1200000   12.0115
   29       CME    1  MOL     C29    29  -0.1150000   12.0115
   30       CME    1  MOL     C30    30   0.0000000   12.0115
   31        CT    1  MOL     C31    31  -0.1800000   12.0115
   32        CT    1  MOL     C32    32  -0.1200000   12.0115
   33        HC    1  MOL     H33    33   0.0600000    1.0080
   34        HC    1  MOL     H34    34   0.0600000    1.0080
   35        HE    1  MOL     H35    35   0.1150000    1.0080
   36        HC    1  MOL     H36    36   0.0600000    1.0080
   37        HC    1  MOL     H37    37   0.0600000    1.0080
   38        HC    1  MOL     H38    38   0.0600000    1.0080
   39        HC    1  MOL     H39    39   0.0600000    1.0080
   40        HC    1  MOL     H40    40   0.0600000    1.0080
   41        CT    1  MOL     C41    41  -0.1200000   12.0115
   42       CME    1  MOL     C42    42  -0.1150000   12.0115
   43       CME    1  MOL     C43    43   0.0000000   12.0115
   44        CT    1  MOL     C44    44  -0.1800000   12.0115
   45        CT    1  MOL     C45    45  -0.1200000   12.0115
   46        HC    1  MOL     H46    46   0.0600000    1.0080
   47        HC    1  MOL     H47    47   0.0600000    1.0080
   48        HE    1  MOL     H48    48   0.1150000    1.0080
   49        HC    1  MOL     H49    49   0.0600000    1.0080
   50        HC    1  MOL     H50    50   0.0600000    1.0080
   51        HC    1  MOL     H51    51   0.0600000    1.0080
   52        HC    1  MOL     H52    52   0.0600000    1.0080
   53        HC    1  MOL     H53    53   0.0600000    1.0080
   54        CT    1  MOL     C54    54  -0.1200000   12.0115
   55       CME    1  MOL     C55    55  -0.1150000   12.0115
   56       CME    1  MOL     C56    56   0.0000000   12.0115
   57        CT    1  MOL     C57    57  -0.1800000   12.0115
   58        CT    1  MOL     C58    58  -0.1200000   12.0115
   59        HC    1  MOL     H59    59   0.0600000    1.0080
   60        HC    1  MOL     H60    60   0.0600000    1.0080
   61        HE    1  MOL     H61    61   0.1150000    1.0080
   62        HC    1  MOL     H62    62   0.0600000    1.0080
   63        HC    1  MOL     H63    63   0.0600000    1.0080
   64        HC    1  MOL     H64    64   0.0600000    1.0080
   65        HC    1  MOL     H65    65   0.0600000    1.0080
   66        HC    1  MOL     H66    66   0.0600000    1.0080
   67        CT    1  MOL     C67    67  -0.1200000   12.0115
   68       CME    1  MOL     C68    68  -0.1150000   12.0115
   69       CME    1  MOL     C69    69   0.0000000   12.0115
   70        CT    1  MOL     C70    70  -0.1800000   12.0115
   71        CT    1  MOL     C71    71  -0.1200000   12.0115
   72        HC    1  MOL     H72    72   0.0600000    1.0080
   73        HC    1  MOL     H73    73   0.0600000    1.0080
   74        HE    1  MOL     H74    74   0.1150000    1.0080
   75        HC    1  MOL     H75    75   0.0600000    1.0080
   76        HC    1  MOL     H76    76   0.0600000    1.0080
   77        HC    1  MOL     H77    77   0.0600000    1.0080
   78        HC    1  MOL     H78    78   0.0600000    1.0080
   79        HC    1  MOL     H79    79   0.0600000    1.0080
   80        CT    1  MOL     C80    80  -0.1200000   12.0115
   81       CME    1  MOL     C81    81  -0.1150000   12.0115
   82       CME    1  MOL     C82    82   0.0000000   12.0115
   83        CT    1  MOL     C83    83  -0.1800000   12.0115
   84        CT    1  MOL     C84    84  -0.1200000   12.0115
   85        HC    1  MOL     H85    85   0.0600000    1.0080
   86        HC    1  MOL     H86    86   0.0600000    1.0080
   87        HE    1  MOL     H87    87   0.1150000    1.0080
   88        HC    1  MOL     H88    88   0.0600000    1.0080
   89        HC    1  MOL     H89    89   0.0600000    1.0080
   90        HC    1  MOL     H90    90   0.0600000    1.0080
   91        HC    1  MOL     H91    91   0.0600000    1.0080
   92        HC    1  MOL     H92    92   0.0600000    1.0080
   93        CT    1  MOL     C93    93  -0.1200000   12.0115
   94       CME    1  MOL     C94    94  -0.1150000   12.0115
   95       CME    1  MOL     C95    95   0.0000000   12.0115
   96        CT    1  MOL     C96    96  -0.1800000   12.0115
   97        CT    1  MOL     C97    97  -0.1200000   12.0115
   98        HC    1  MOL     H98    98   0.0600000    1.0080
   99        HC    1  MOL     H99    99   0.0600000    1.0080
  100        HE    1  MOL    H100   100   0.1150000    1.0080
  101        HC    1  MOL    H101   101   0.0600000    1.0080
  102        HC    1  MOL    H102   102   0.0600000    1.0080
  103        HC    1  MOL    H103   103   0.0600000    1.0080
  104        HC    1  MOL    H104   104   0.0600000    1.0080
  105        HC    1  MOL    H105   105   0.0600000    1.0080
  106        CT    1  MOL    C106   106  -0.1200000   12.0115
  107       CME    1  MOL    C107   107  -0.1150000   12.0115
  108       CME    1  MOL    C108   108   0.0000000   12.0115
  109        CT    1  MOL    C109   109  -0.1800000   12.0115
  110        CT    1  MOL    C110   110  -0.1200000   12.0115
  111        HC    1  MOL    H111   111   0.0600000    1.0080
  112        HC    1  MOL    H112   112   0.0600000    1.0080
  113        HE    1  MOL    H113   113   0.1150000    1.0080
  114        HC    1  MOL    H114   114   0.0600000    1.0080
  115        HC    1  MOL    H115   115   0.0600000    1.0080
  116        HC    1  MOL    H116   116   0.0600000    1.0080
  117        HC    1  MOL    H117   117   0.0600000    1.0080
  118        HC    1  MOL    H118   118   0.0600000    1.0080
  119        CT    1  MOL    C119   119  -0.1200000   12.0115
  120       CME    1  MOL    C120   120  -0.1150000   12.0115
  121       CME    1  MOL    C121   121   0.0000000   12.0115
  122        CT    1  MOL    C122   122  -0.1800000   12.0115
  123        CT    1  MOL    C123   123  -0.1200000   12.0115
  124        HC    1  MOL    H124   124   0.0600000    1.0080
  125        HC    1  MOL    H125   125   0.0600000    1.0080
  126        HE    1  MOL    H126   126   0.1150000    1.0080
  127        HC    1  MOL    H127   127   0.0600000    1.0080
  128        HC    1  MOL    H128   128   0.0600000    1.0080
  129        HC    1  MOL    H129   129   0.0600000    1.0080
  130        HC    1  MOL    H130   130   0.0600000    1.0080
  131        HC    1  MOL    H131   131   0.0600000    1.0080
  132        CT    1  MOL    C132   132  -0.1200000   12.0115
  133       CME    1  MOL    C133   133  -0.1150000   12.0115
  134       CME    1  MOL    C134   134   0.0000000   12.0115
  135        CT    1  MOL    C135   135  -0.1800000   12.0115
  136        CT    1  MOL    C136   136  -0.1200000   12.0115
  137        HC    1  MOL    H137   137   0.0600000    1.0080
  138        HC    1  MOL    H138   138   0.0600000    1.0080
  139        HE    1  MOL    H139   139   0.1150000    1.0080
  140        HC    1  MOL    H140   140   0.0600000    1.0080
  141        HC    1  MOL    H141   141   0.0600000    1.0080
  142        HC    1  MOL    H142   142   0.0600000    1.0080
  143        HC    1  MOL    H143   143   0.0600000    1.0080
  144        HC    1  MOL    H144   144   0.0600000    1.0080
  145        CT    1  MOL    C145   145  -0.1200000   12.0115
  146       CME    1  MOL    C146   146  -0.1150000   12.0115
  147       CME    1  MOL    C147   147   0.0000000   12.0115
  148        CT    1  MOL    C148   148  -0.1800000   12.0115
  149        CT    1  MOL    C149   149  -0.1200000   12.0115
  150        HC    1  MOL    H150   150   0.0600000    1.0080
  151        HC    1  MOL    H151   151   0.0600000    1.0080
  152        HE    1  MOL    H152   152   0.1150000    1.0080
  153        HC    1  MOL    H153   153   0.0600000    1.0080
  154        HC    1  MOL    H154   154   0.0600000    1.0080
  155        HC    1  MOL    H155   155   0.0600000    1.0080
  156        HC    1  MOL    H156   156   0.0600000    1.0080
  157        HC    1  MOL    H157   157   0.0600000    1.0080
  158        CT    1  MOL    C158   158  -0.1200000   12.0115
  159       CME    1  MOL    C159   159  -0.1150000   12.0115
  160       CME    1  MOL    C160   160   0.0000000   12.0115
  161        CT    1  MOL    C161   161  -0.1800000   12.0115
  162        CT    1  MOL    C162   162  -0.1200000   12.0115
  163        HC    1  MOL    H163   163   0.0600000    1.0080
  164        HC    1  MOL    H164   164   0.0600000    1.0080
  165        HE    1  MOL    H165   165   0.1150000    1.0080
  166        HC    1  MOL    H166   166   0.0600000    1.0080
  167        HC    1  MOL    H167   167   0.0600000    1.0080
  168        HC    1  MOL    H168   168   0.0600000    1.0080
  169        HC    1  MOL    H169   169   0.0600000    1.0080
  170        HC    1  MOL    H170   170   0.0600000    1.0080
  171        CT    1  MOL    C171   171  -0.1200000   12.0115
  172       CME    1  MOL    C172   172  -0.1150000   12.0115
  173       CME    1  MOL    C173   173   0.0000000   12.0115
  174        CT    1  MOL    C174   174  -0.1800000   12.0115
  175        CT    1  MOL    C175   175  -0.1200000   12.0115
  176        HC    1  MOL    H176   176   0.0600000    1.0080
  177        HC    1  MOL    H177   177   0.0600000    1.0080
  178        HE    1  MOL    H178   178   0.1150000    1.0080
  179        HC    1  MOL    H179   179   0.0600000    1.0080
  180        HC    1  MOL    H180   180   0.0600000    1.0080
  181        HC    1  MOL    H181   181   0.0600000    1.0080
  182        HC    1  MOL    H182   182   0.0600000    1.0080
  183        HC    1  MOL    H183   183   0.0600000    1.0080
  184        CT    1  MOL    C184   184  -0.1200000   12.0115
  185       CME    1  MOL    C185   185  -0.1150000   12.0115
  186       CME    1  MOL    C186   186   0.0000000   12.0115
  187        CT    1  MOL    C187   187  -0.1800000   12.0115
  188        CT    1  MOL    C188   188  -0.1200000   12.0115
  189        HC    1  MOL    H189   189   0.0600000    1.0080
  190        HC    1  MOL    H190   190   0.0600000    1.0080
  191        HE    1  MOL    H191   191   0.1150000    1.0080
  192        HC    1  MOL    H192   192   0.0600000    1.0080
  193        HC    1  MOL    H193   193   0.0600000    1.0080
  194        HC    1  MOL    H194   194   0.0600000    1.0080
  195        HC    1  MOL    H195   195   0.0600000    1.0080
  196        HC    1  MOL    H196   196   0.0600000    1.0080
  197        CT    1  MOL    C197   197  -0.1200000   12.0115
  198       CME    1  MOL    C198   198  -0.1150000   12.0115
  199       CME    1  MOL    C199   199   0.0000000   12.0115
  200        CT    1  MOL    C200   200  -0.1800000   12.0115
  201        CT    1  MOL    C201   201  -0.1200000   12.0115
  202        HC    1  MOL    H202   202   0.0600000    1.0080
  203        HC    1  MOL    H203   203   0.0600000    1.0080
  204        HE    1  MOL    H204   204   0.1150000    1.0080
  205        HC    1  MOL    H205   205   0.0600000    1.0080
  206        HC    1  MOL    H206   206   0.0600000    1.0080
  207        HC    1  MOL    H207   207   0.0600000    1.0080
  208        HC    1  MOL    H208   208   0.0600000    1.0080
  209        HC    1  MOL    H209   209   0.0600000    1.0080
  210        CT    1  MOL    C210   210  -0.1200000   12.0115
  211       CME    1  MOL    C211   211  -0.1150000   12.0115
  212       CME    1  MOL    C212   212   0.0000000   12.0115
  213        CT    1  MOL    C213   213  -0.1800000   12.0115
  214        CT    1  MOL    C214   214  -0.1200000   12.0115
  215        HC    1  MOL    H215   215   0.0600000    1.0080
  216        HC    1  MOL    H216   216   0.0600000    1.0080
  217        HE    1  MOL    H217   217   0.1150000    1.0080
  218        HC    1  MOL    H218   218   0.0600000    1.0080
  219        HC    1  MOL    H219   219   0.0600000    1.0080
  220        HC    1  MOL    H220   220   0.0600000    1.0080
  221        HC    1  MOL    H221   221   0.0600000    1.0080
  222        HC    1  MOL    H222   222   0.0600000    1.0080
  223        CT    1  MOL    C223   223  -0.1200000   12.0115
  224       CME    1  MOL    C224   224  -0.1150000   12.0115
  225       CME    1  MOL    C225   225   0.0000000   12.0115
  226        CT    1  MOL    C226   226  -0.1800000   12.0115
  227        CT    1  MOL    C227   227  -0.1200000   12.0115
  228        HC    1  MOL    H228   228   0.0600000    1.0080
  229        HC    1  MOL    H229   229   0.0600000    1.0080
  230        HE    1  MOL    H230   230   0.1150000    1.0080
  231        HC    1  MOL    H231   231   0.0600000    1.0080
  232        HC    1  MOL    H232   232   0.0600000    1.0080
  233        HC    1  MOL    H233   233   0.0600000    1.0080
  234        HC    1  MOL    H234   234   0.0600000    1.0080
  235        HC    1  MOL    H235   235   0.0600000    1.0080
  236        CT    1  MOL    C236   236  -0.1200000   12.0115
  237       CME    1  MOL    C237   237  -0.1150000   12.0115
  238       CME    1  MOL    C238   238   0.0000000   12.0115
  239        CT    1  MOL    C239   239  -0.1800000   12.0115
  240        CT    1  MOL    C240   240  -0.1200000   12.0115
  241        HC    1  MOL    H241   241   0.0600000    1.0080
  242        HC    1  MOL    H242   242   0.0600000    1.0080
  243        HE    1  MOL    H243   243   0.1150000    1.0080
  244        HC    1  MOL    H244   244   0.0600000    1.0080
  245        HC    1  MOL    H245   245   0.0600000    1.0080
  246        HC    1  MOL    H246   246   0.0600000    1.0080
  247        HC    1  MOL    H247   247   0.0600000    1.0080
  248        HC    1  MOL    H248   248   0.0600000    1.0080
  249        CT    1  MOL    C249   249  -0.1200000   12.0115
  250       CME    1  MOL    C250   250  -0.1150000   12.0115
  251       CME    1  MOL    C251   251   0.0000000   12.0115
  252        CT    1  MOL    C252   252  -0.1800000   12.0115
  253        CT    1  MOL    C253   253  -0.1800000   12.0115
  254        HC    1  MOL    H254   254   0.0600000    1.0080
  255        HC    1  MOL    H255   255   0.0600000    1.0080
  256        HE    1  MOL    H256   256   0.1150000    1.0080
  257        HC    1  MOL    H257   257   0.0600000    1.0080
  258        HC    1  MOL    H258   258   0.0600000    1.0080
  259        HC    1  MOL    H259   259   0.0600000    1.0080
  260        HC    1  MOL    H260   260   0.0600000    1.0080
  261        HC    1  MOL    H261   261   0.0600000    1.0080
  262        HC    1  MOL    H262   262   0.0600000    1.0080

[ bonds ]
      1      2   1      0.1510 265265.6000
      1      6   1      0.1090 284512.0000
      1      7   1      0.1090 284512.0000
      1     14   1      0.1090 284512.0000
      2      3   1      0.1340 459403.2000
      2      8   1      0.1080 284512.0000
      3      4   1      0.1510 265265.6000
      3      5   1      0.1510 265265.6000
      4      9   1      0.1090 284512.0000
      4     10   1      0.1090 284512.0000
      4     11   1      0.1090 284512.0000
      5     12   1      0.1090 284512.0000
      5     13   1      0.1090 284512.0000
      5     15   1      0.1529 224262.4000
     15     16   1      0.1510 265265.6000
     15     20   1      0.1090 284512.0000
     15     21   1      0.1090 284512.0000
     16     17   1      0.1340 459403.2000
     16     22   1      0.1080 284512.0000
     17     18   1      0.1510 265265.6000
     17     19   1      0.1510 265265.6000
     18     23   1      0.1090 284512.0000
     18     24   1      0.1090 284512.0000
     18     25   1      0.1090 284512.0000
     19     26   1      0.1090 284512.0000
     19     27   1      0.1090 284512.0000
     19     28   1      0.1529 224262.4000
     28     29   1      0.1510 265265.6000
     28     33   1      0.1090 284512.0000
     28     34   1      0.1090 284512.0000
     29     30   1      0.1340 459403.2000
     29     35   1      0.1080 284512.0000
     30     31   1      0.1510 265265.6000
     30     32   1      0.1510 265265.6000
     31     36   1      0.1090 284512.0000
     31     37   1      0.1090 284512.0000
     31     38   1      0.1090 284512.0000
     32     39   1      0.1090 284512.0000
     32     40   1      0.1090 284512.0000
     32     41   1      0.1529 224262.4000
     41     42   1      0.1510 265265.6000
     41     46   1      0.1090 284512.0000
     41     47   1      0.1090 284512.0000
     42     43   1      0.1340 459403.2000
     42     48   1      0.1080 284512.0000
     43     44   1      0.1510 265265.6000
     43     45   1      0.1510 265265.6000
     44     49   1      0.1090 284512.0000
     44     50   1      0.1090 284512.0000
     44     51   1      0.1090 284512.0000
     45     52   1      0.1090 284512.0000
     45     53   1      0.1090 284512.0000
     45     54   1      0.1529 224262.4000
     54     55   1      0.1510 265265.6000
     54     59   1      0.1090 284512.0000
     54     60   1      0.1090 284512.0000
     55     56   1      0.1340 459403.2000
     55     61   1      0.1080 284512.0000
     56     57   1      0.1510 265265.6000
     56     58   1      0.1510 265265.6000
     57     62   1      0.1090 284512.0000
     57     63   1      0.1090 284512.0000
     57     64   1      0.1090 284512.0000
     58     65   1      0.1090 284512.0000
     58     66   1      0.1090 284512.0000
     58     67   1      0.1529 224262.4000
     67     68   1      0.1510 265265.6000
     67     72   1      0.1090 284512.0000
     67     73   1      0.1090 284512.0000
     68     69   1      0.1340 459403.2000
     68     74   1      0.1080 284512.0000
     69     70   1      0.1510 265265.6000
     69     71   1      0.1510 265265.6000
     70     75   1      0.1090 284512.0000
     70     76   1      0.1090 284512.0000
     70     77   1      0.1090 284512.0000
     71     78   1      0.1090 284512.0000
     71     79   1      0.1090 284512.0000
     71     80   1      0.1529 224262.4000
     80     81   1      0.1510 265265.6000
     80     85   1      0.1090 284512.0000
     80     86   1      0.1090 284512.0000
     81     82   1      0.1340 459403.2000
     81     87   1      0.1080 284512.0000
     82     83   1      0.1510 265265.6000
     82     84   1      0.1510 265265.6000
     83     88   1      0.1090 284512.0000
     83     89   1      0.1090 284512.0000
     83     90   1      0.1090 284512.0000
     84     91   1      0.1090 284512.0000
     84     92   1      0.1090 284512.0000
     84     93   1      0.1529 224262.4000
     93     94   1      0.1510 265265.6000
     93     98   1      0.1090 284512.0000
     93     99   1      0.1090 284512.0000
     94     95   1      0.1340 459403.2000
     94    100   1      0.1080 284512.0000
     95     96   1      0.1510 265265.6000
     95     97   1      0.1510 265265.6000
     96    101   1      0.1090 284512.0000
     96    102   1      0.1090 284512.0000
     96    103   1      0.1090 284512.0000
     97    104   1      0.1090 284512.0000
     97    105   1      0.1090 284512.0000
     97    106   1      0.1529 224262.4000
    106    107   1      0.1510 265265.6000
    106    111   1      0.1090 284512.0000
    106    112   1      0.1090 284512.0000
    107    108   1      0.1340 459403.2000
    107    113   1      0.1080 284512.0000
    108    109   1      0.1510 265265.6000
    108    110   1      0.1510 265265.6000
    109    114   1      0.1090 284512.0000
    109    115   1      0.1090 284512.0000
    109    116   1      0.1090 284512.0000
    110    117   1      0.1090 284512.0000
    110    118   1      0.1090 284512.0000
    110    119   1      0.1529 224262.4000
    119    120   1      0.1510 265265.6000
    119    124   1      0.1090 284512.0000
    119    125   1      0.1090 284512.0000
    120    121   1      0.1340 459403.2000
    120    126   1      0.1080 284512.0000
    121    122   1      0.1510 265265.6000
    121    123   1      0.1510 265265.6000
    122    127   1      0.1090 284512.0000
    122    128   1      0.1090 284512.0000
    122    129   1      0.1090 284512.0000
    123    130   1      0.1090 284512.0000
    123    131   1      0.1090 284512.0000
    123    132   1      0.1529 224262.4000
    132    133   1      0.1510 265265.6000
    132    137   1      0.1090 284512.0000
    132    138   1      0.1090 284512.0000
    133    134   1      0.1340 459403.2000
    133    139   1      0.1080 284512.0000
    134    135   1      0.1510 265265.6000
    134    136   1      0.1510 265265.6000
    135    140   1      0.1090 284512.0000
    135    141   1      0.1090 284512.0000
    135    142   1      0.1090 284512.0000
    136    143   1      0.1090 284512.0000
    136    144   1      0.1090 284512.0000
    136    145   1      0.1529 224262.4000
    145    146   1      0.1510 265265.6000
    145    150   1      0.1090 284512.0000
    145    151   1      0.1090 284512.0000
    146    147   1      0.1340 459403.2000
    146    152   1      0.1080 284512.0000
    147    148   1      0.1510 265265.6000
    147    149   1      0.1510 265265.6000
    148    153   1      0.1090 284512.0000
    148    154   1      0.1090 284512.0000
    148    155   1      0.1090 284512.0000
    149    156   1      0.1090 284512.0000
    149    157   1      0.1090 284512.0000
    149    158   1      0.1529 224262.4000
    158    159   1      0.1510 265265.6000
    158    163   1      0.1090 284512.0000
    158    164   1      0.1090 284512.0000
    159    160   1      0.1340 459403.2000
    159    165   1      0.1080 284512.0000
    160    161   1      0.1510 265265.6000
    160    162   1      0.1510 265265.6000
    161    166   1      0.1090 284512.0000
    161    167   1      0.1090 284512.0000
    161    168   1      0.1090 284512.0000
    162    169   1      0.1090 284512.0000
    162    170   1      0.1090 284512.0000
    162    171   1      0.1529 224262.4000
    171    172   1      0.1510 265265.6000
    171    176   1      0.1090 284512.0000
    171    177   1      0.1090 284512.0000
    172    173   1      0.1340 459403.2000
    172    178   1      0.1080 284512.0000
    173    174   1      0.1510 265265.6000
    173    175   1      0.1510 265265.6000
    174    179   1      0.1090 284512.0000
    174    180   1      0.1090 284512.0000
    174    181   1      0.1090 284512.0000
    175    182   1      0.1090 284512.0000
    175    183   1      0.1090 284512.0000
    175    184   1      0.1529 224262.4000
    184    185   1      0.1510 265265.6000
    184    189   1      0.1090 284512.0000
    184    190   1      0.1090 284512.0000
    185    186   1      0.1340 459403.2000
    185    191   1      0.1080 284512.0000
    186    187   1      0.1510 265265.6000
    186    188   1      0.1510 265265.6000
    187    192   1      0.1090 284512.0000
    187    193   1      0.1090 284512.0000
    187    194   1      0.1090 284512.0000
    188    195   1      0.1090 284512.0000
    188    196   1      0.1090 284512.0000
    188    197   1      0.1529 224262.4000
    197    198   1      0.1510 265265.6000
    197    202   1      0.1090 284512.0000
    197    203   1      0.1090 284512.0000
    198    199   1      0.1340 459403.2000
    198    204   1      0.1080 284512.0000
    199    200   1      0.1510 265265.6000
    199    201   1      0.1510 265265.6000
    200    205   1      0.1090 284512.0000
    200    206   1      0.1090 284512.0000
    200    207   1      0.1090 284512.0000
    201    208   1      0.1090 284512.0000
    201    209   1      0.1090 284512.0000
    201    210   1      0.1529 224262.4000
    210    211   1      0.1510 265265.6000
    210    215   1      0.1090 284512.0000
    210    216   1      0.1090 284512.0000
    211    212   1      0.1340 459403.2000
    211    217   1      0.1080 284512.0000
    212    213   1      0.1510 265265.6000
    212    214   1      0.1510 265265.6000
    213    218   1      0.1090 284512.0000
    213    219   1      0.1090 284512.0000
    213    220   1      0.1090 284512.0000
    214    221   1      0.1090 284512.0000
    214    222   1      0.1090 284512.0000
    214    223   1      0.1529 224262.4000
    223    224   1      0.1510 265265.6000
    223    228   1      0.1090 284512.0000
    223    229   1      0.1090 284512.0000
    224    225   1      0.1340 459403.2000
    224    230   1      0.1080 284512.0000
    225    226   1      0.1510 265265.6000
    225    227   1      0.1510 265265.6000
    226    231   1      0.1090 284512.0000
    226    232   1      0.1090 284512.0000
    226    233   1      0.1090 284512.0000
    227    234   1      0.1090 284512.0000
    227    235   1      0.1090 284512.0000
    227    236   1      0.1529 224262.4000
    236    237   1      0.1510 265265.6000
    236    241   1      0.1090 284512.0000
    236    242   1      0.1090 284512.0000
    237    238   1      0.1340 459403.2000
    237    243   1      0.1080 284512.0000
    238    239   1      0.1510 265265.6000
    238    240   1      0.1510 265265.6000
    239    244   1      0.1090 284512.0000
    239    245   1      0.1090 284512.0000
    239    246   1      0.1090 284512.0000
    240    247   1      0.1090 284512.0000
    240    248   1      0.1090 284512.0000
    240    249   1      0.1529 224262.4000
    249    250   1      0.1510 265265.6000
    249    254   1      0.1090 284512.0000
    249    255   1      0.1090 284512.0000
    250    251   1      0.1340 459403.2000
    250    256   1      0.1080 284512.0000
    251    252   1      0.1510 265265.6000
    251    253   1      0.1510 265265.6000
    252    257   1      0.1090 284512.0000
    252    258   1      0.1090 284512.0000
    252    259   1      0.1090 284512.0000
    253    260   1      0.1090 284512.0000
    253    261   1      0.1090 284512.0000
    253    262   1      0.1090 284512.0000

[ pairs ]
; ai   aj   funct   fudge_QQ  charge_i   charge_j   c6    c12
      6      3   2   0.50000     0.0600000    0.0000000   2.793149e-04  1.952537e-07
      6      8   2   0.50000     0.0600000    0.1150000   5.559158e-05  1.231049e-08
      7      3   2   0.50000     0.0600000    0.0000000   2.793149e-04  1.952537e-07
      7      8   2   0.50000     0.0600000    0.1150000   5.559158e-05  1.231049e-08
     14      3   2   0.50000     0.0600000    0.0000000   2.793149e-04  1.952537e-07
     14      8   2   0.50000     0.0600000    0.1150000   5.559158e-05  1.231049e-08
      1      4   2   0.50000    -0.1800000   -0.1800000   1.015252e-03  1.866303e-06
      1      5   2   0.50000    -0.1800000   -0.1200000   1.015252e-03  1.866303e-06
      8      4   2   0.50000     0.1150000   -0.1800000   2.262583e-04  1.374848e-07
      8      5   2   0.50000     0.1150000   -0.1200000   2.262583e-04  1.374848e-07
      2      9   2   0.50000    -0.1150000    0.0600000   2.793149e-04  1.952537e-07
      2     10   2   0.50000    -0.1150000    0.0600000   2.793149e-04  1.952537e-07
      2     11   2   0.50000    -0.1150000    0.0600000   2.793149e-04  1.952537e-07
      5      9   2   0.50000    -0.1200000    0.0600000   2.494471e-04  1.671101e-07
      5     10   2   0.50000    -0.1200000    0.0600000   2.494471e-04  1.671101e-07
      5     11   2   0.50000    -0.1200000    0.0600000   2.494471e-04  1.671101e-07
      2     12   2   0.50000    -0.1150000    0.0600000   2.793149e-04  1.952537e-07
      2     13   2   0.50000    -0.1150000    0.0600000   2.793149e-04  1.952537e-07
      2     15   2   0.50000    -0.1150000   -0.1200000   1.136815e-03  2.180614e-06
      4     12   2   0.50000    -0.1800000    0.0600000   2.494471e-04  1.671101e-07
      4     13   2   0.50000    -0.1800000    0.0600000   2.494471e-04  1.671101e-07
      4     15   2   0.50000    -0.1800000   -0.1200000   1.015252e-03  1.866303e-06
      3     16   2   0.50000     0.0000000   -0.1150000   1.272933e-03  2.547860e-06
      3     20   2   0.50000     0.0000000    0.0600000   2.793149e-04  1.952537e-07
      3     21   2   0.50000     0.0000000    0.0600000   2.793149e-04  1.952537e-07
     12     16   2   0.50000     0.0600000   -0.1150000   2.793149e-04  1.952537e-07
     12     20   2   0.50000     0.0600000    0.0600000   6.128906e-05  1.496315e-08
     12     21   2   0.50000     0.0600000    0.0600000   6.128906e-05  1.496315e-08
     13     16   2   0.50000     0.0600000   -0.1150000   2.793149e-04  1.952537e-07
     13     20   2   0.50000     0.0600000    0.0600000   6.128906e-05  1.496315e-08
     13     21   2   0.50000     0.0600000    0.0600000   6.128906e-05  1.496315e-08
      5     17   2   0.50000    -0.1200000    0.0000000   1.136815e-03  2.180614e-06
      5     22   2   0.50000    -0.1200000    0.1150000   2.262583e-04  1.374848e-07
     20     17   2   0.50000     0.0600000    0.0000000   2.793149e-04  1.952537e-07
     20     22   2   0.50000     0.0600000    0.1150000   5.559158e-05  1.231049e-08
     21     17   2   0.50000     0.0600000    0.0000000   2.793149e-04  1.952537e-07
     21     22   2   0.50000     0.0600000    0.1150000   5.559158e-05  1.231049e-08
     15     18   2   0.50000    -0.1200000   -0.1800000   1.015252e-03  1.866303e-06
     15     19   2   0.50000    -0.1200000   -0.1200000   1.015252e-03  1.866303e-06
     22     18   2   0.50000     0.1150000   -0.1800000   2.262583e-04  1.374848e-07
     22     19   2   0.50000     0.1150000   -0.1200000   2.262583e-04  1.374848e-07
     16     23   2   0.50000    -0.1150000    0.0600000   2.793149e-04  1.952537e-07
     16     24   2   0.50000    -0.1150000    0.0600000   2.793149e-04  1.952537e-07
     16     25   2   0.50000    -0.1150000    0.0600000   2.793149e-04  1.952537e-07
     19     23   2   0.50000    -0.1200000    0.0600000   2.494471e-04  1.671101e-07
     19     24   2   0.50000    -0.1200000    0.0600000   2.494471e-04  1.671101e-07
     19     25   2   0.50000    -0.1200000    0.0600000   2.494471e-04  1.671101e-07
     16     26   2   0.50000    -0.1150000    0.0600000   2.793149e-04  1.952537e-07
     16     27   2   0.50000    -0.1150000    0.0600000   2.793149e-04  1.952537e-07
     16     28   2   0.50000    -0.1150000   -0.1200000   1.136815e-03  2.180614e-06
     18     26   2   0.50000    -0.1800000    0.0600000   2.494471e-04  1.671101e-07
     18     27   2   0.50000    -0.1800000    0.0600000   2.494471e-04  1.671101e-07
     18     28   2   0.50000    -0.1800000   -0.1200000   1.015252e-03  1.866303e-06
     17     29   2   0.50000     0.0000000   -0.1150000   1.272933e-03  2.547860e-06
     17     33   2   0.50000     0.0000000    0.0600000   2.793149e-04  1.952537e-07
     17     34   2   0.50000     0.0000000    0.0600000   2.793149e-04  1.952537e-07
     26     29   2   0.50000     0.0600000   -0.1150000   2.793149e-04  1.952537e-07
     26     33   2   0.50000     0.0600000    0.0600000   6.128906e-05  1.496315e-08
     26     34   2   0.50000     0.0600000    0.0600000   6.128906e-05  1.496315e-08
     27     29   2   0.50000     0.0600000   -0.1150000   2.793149e-04  1.952537e-07
     27     33   2   0.50000     0.0600000    0.0600000   6.128906e-05  1.496315e-08
     27     34   2   0.50000     0.0600000    0.0600000   6.128906e-05  1.496315e-08
     19     30   2   0.50000    -0.1200000    0.0000000   1.136815e-03  2.180614e-06
     19     35   2   0.50000    -0.1200000    0.1150000   2.262583e-04  1.374848e-07
     33     30   2   0.50000     0.0600000    0.0000000   2.793149e-04  1.952537e-07
     33     35   2   0.50000     0.0600000    0.1150000   5.559158e-05  1.231049e-08
     34     30   2   0.50000     0.0600000    0.0000000   2.793149e-04  1.952537e-07
     34     35   2   0.50000     0.0600000    0.1150000   5.559158e-05  1.231049e-08
     28     31   2   0.50000    -0.1200000   -0.1800000   1.015252e-03  1.866303e-06
     28     32   2   0.50000    -0.1200000   -0.1200000   1.015252e-03  1.866303e-06
     35     31   2   0.50000     0.1150000   -0.1800000   2.262583e-04  1.374848e-07
     35     32   2   0.50000     0.1150000   -0.1200000   2.262583e-04  1.374848e-07
     29     36   2   0.50000    -0.1150000    0.0600000   2.793149e-04  1.952537e-07
     29     37   2   0.50000    -0.1150000    0.0600000   2.793149e-04  1.952537e-07
     29     38   2   0.50000    -0.1150000    0.0600000   2.793149e-04  1.952537e-07
     32     36   2   0.50000    -0.1200000    0.0600000   2.494471e-04  1.671101e-07
     32     37   2   0.50000    -0.1200000    0.0600000   2.494471e-04  1.671101e-07
     32     38   2   0.50000    -0.1200000    0.0600000   2.494471e-04  1.671101e-07
     29     39   2   0.50000    -0.1150000    0.0600000   2.793149e-04  1.952537e-07
     29     40   2   0.50000    -0.1150000    0.0600000   2.793149e-04  1.952537e-07
     29     41   2   0.50000    -0.1150000   -0.1200000   1.136815e-03  2.180614e-06
     31     39   2   0.50000    -0.1800000    0.0600000   2.494471e-04  1.671101e-07
     31     40   2   0.50000    -0.1800000    0.0600000   2.494471e-04  1.671101e-07
     31     41   2   0.50000    -0.1800000   -0.1200000   1.015252e-03  1.866303e-06
     30     42   2   0.50000     0.0000000   -0.1150000   1.272933e-03  2.547860e-06
     30     46   2   0.50000     0.0000000    0.0600000   2.793149e-04  1.952537e-07
     30     47   2   0.50000     0.0000000    0.0600000   2.793149e-04  1.952537e-07
     39     42   2   0.50000     0.0600000   -0.1150000   2.793149e-04  1.952537e-07
     39     46   2   0.50000     0.0600000    0.0600000   6.128906e-05  1.496315e-08
     39     47   2   0.50000     0.0600000    0.0600000   6.128906e-05  1.496315e-08
     40     42   2   0.50000     0.0600000   -0.1150000   2.793149e-04  1.952537e-07
     40     46   2   0.50000     0.0600000    0.0600000   6.128906e-05  1.496315e-08
     40     47   2   0.50000     0.0600000    0.0600000   6.128906e-05  1.496315e-08
     32     43   2   0.50000    -0.1200000    0.0000000   1.136815e-03  2.180614e-06
     32     48   2   0.50000    -0.1200000    0.1150000   2.262583e-04  1.374848e-07
     46     43   2   0.50000     0.0600000    0.0000000   2.793149e-04  1.952537e-07
     46     48   2   0.50000     0.0600000    0.1150000   5.559158e-05  1.231049e-08
     47     43   2   0.50000     0.0600000    0.0000000   2.793149e-04  1.952537e-07
     47     48   2   0.50000     0.0600000    0.1150000   5.559158e-05  1.231049e-08
     41     44   2   0.50000    -0.1200000   -0.1800000   1.015252e-03  1.866303e-06
     41     45   2   0.50000    -0.1200000   -0.1200000   1.015252e-03  1.866303e-06
     48     44   2   0.50000     0.1150000   -0.1800000   2.262583e-04  1.374848e-07
     48     45   2   0.50000     0.1150000   -0.1200000   2.262583e-04  1.374848e-07
     42     49   2   0.50000    -0.1150000    0.0600000   2.793149e-04  1.952537e-07
     42     50   2   0.50000    -0.1150000    0.0600000   2.793149e-04  1.952537e-07
     42     51   2   0.50000    -0.1150000    0.0600000   2.793149e-04  1.952537e-07
     45     49   2   0.50000    -0.1200000    0.0600000   2.494471e-04  1.671101e-07
     45     50   2   0.50000    -0.1200000    0.0600000   2.494471e-04  1.671101e-07
     45     51   2   0.50000    -0.1200000    0.0600000   2.494471e-04  1.671101e-07
     42     52   2   0.50000    -0.1150000    0.0600000   2.793149e-04  1.952537e-07
     42     53   2   0.50000    -0.1150000    0.0600000   2.793149e-04  1.952537e-07
     42     54   2   0.50000    -0.1150000   -0.1200000   1.136815e-03  2.180614e-06
     44     52   2   0.50000    -0.1800000    0.0600000   2.494471e-04  1.671101e-07
     44     53   2   0.50000    -0.1800000    0.0600000   2.494471e-04  1.671101e-07
     44     54   2   0.50000    -0.1800000   -0.1200000   1.015252e-03  1.866303e-06
     43     55   2   0.50000     0.0000000   -0.1150000   1.272933e-03  2.547860e-06
     43     59   2   0.50000     0.0000000    0.0600000   2.793149e-04  1.952537e-07
     43     60   2   0.50000     0.0000000    0.0600000   2.793149e-04  1.952537e-07
     52     55   2   0.50000     0.0600000   -0.1150000   2.793149e-04  1.952537e-07
     52     59   2   0.50000     0.0600000    0.0600000   6.128906e-05  1.496315e-08
     52     60   2   0.50000     0.0600000    0.0600000   6.128906e-05  1.496315e-08
     53     55   2   0.50000     0.0600000   -0.1150000   2.793149e-04  1.952537e-07
     53     59   2   0.50000     0.0600000    0.0600000   6.128906e-05  1.496315e-08
     53     60   2   0.50000     0.0600000    0.0600000   6.128906e-05  1.496315e-08
     45     56   2   0.50000    -0.1200000    0.0000000   1.136815e-03  2.180614e-06
     45     61   2   0.50000    -0.1200000    0.1150000   2.262583e-04  1.374848e-07
     59     56   2   0.50000     0.0600000    0.0000000   2.793149e-04  1.952537e-07
     59     61   2   0.50000     0.0600000    0.1150000   5.559158e-05  1.231049e-08
     60     56   2   0.50000     0.0600000    0.0000000   2.793149e-04  1.952537e-07
     60     61   2   0.50000     0.0600000    0.1150000   5.559158e-05  1.231049e-08
     54     57   2   0.50000    -0.1200000   -0.1800000   1.015252e-03  1.866303e-06
     54     58   2   0.50000    -0.1200000   -0.1200000   1.015252e-03  1.866303e-06
     61     57   2   0.50000     0.1150000   -0.1800000   2.262583e-04  1.374848e-07
     61     58   2   0.50000     0.1150000   -0.1200000   2.262583e-04  1.374848e-07
     55     62   2   0.50000    -0.1150000    0.0600000   2.793149e-04  1.952537e-07
     55     63   2   0.50000    -0.1150000    0.0600000   2.793149e-04  1.952537e-07
     55     64   2   0.50000    -0.1150000    0.0600000   2.793149e-04  1.952537e-07
     58     62   2   0.50000    -0.1200000    0.0600000   2.494471e-04  1.671101e-07
     58     63   2   0.50000    -0.1200000    0.0600000   2.494471e-04  1.671101e-07
     58     64   2   0.50000    -0.1200000    0.0600000   2.494471e-04  1.671101e-07
     55     65   2   0.50000    -0.1150000    0.0600000   2.793149e-04  1.952537e-07
     55     66   2   0.50000    -0.1150000    0.0600000   2.793149e-04  1.952537e-07
     55     67   2   0.50000    -0.1150000   -0.1200000   1.136815e-03  2.180614e-06
     57     65   2   0.50000    -0.1800000    0.0600000   2.494471e-04  1.671101e-07
     57     66   2   0.50000    -0.1800000    0.0600000   2.494471e-04  1.671101e-07
     57     67   2   0.50000    -0.1800000   -0.1200000   1.015252e-03  1.866303e-06
     56     68   2   0.50000     0.0000000   -0.1150000   1.272933e-03  2.547860e-06
     56     72   2   0.50000     0.0000000    0.0600000   2.793149e-04  1.952537e-07
     56     73   2   0.50000     0.0000000    0.0600000   2.793149e-04  1.952537e-07
     65     68   2   0.50000     0.0600000   -0.1150000   2.793149e-04  1.952537e-07
     65     72   2   0.50000     0.0600000    0.0600000   6.128906e-05  1.496315e-08
     65     73   2   0.50000     0.0600000    0.0600000   6.128906e-05  1.496315e-08
     66     68   2   0.50000     0.0600000   -0.1150000   2.793149e-04  1.952537e-07
     66     72   2   0.50000     0.0600000    0.0600000   6.128906e-05  1.496315e-08
     66     73   2   0.50000     0.0600000    0.0600000   6.128906e-05  1.496315e-08
     58     69   2   0.50000    -0.1200000    0.0000000   1.136815e-03  2.180614e-06
     58     74   2   0.50000    -0.1200000    0.1150000   2.262583e-04  1.374848e-07
     72     69   2   0.50000     0.0600000    0.0000000   2.793149e-04  1.952537e-07
     72     74   2   0.50000     0.0600000    0.1150000   5.559158e-05  1.231049e-08
     73     69   2   0.50000     0.0600000    0.0000000   2.793149e-04  1.952537e-07
     73     74   2   0.50000     0.0600000    0.1150000   5.559158e-05  1.231049e-08
     67     70   2   0.50000    -0.1200000   -0.1800000   1.015252e-03  1.866303e-06
     67     71   2   0.50000    -0.1200000   -0.1200000   1.015252e-03  1.866303e-06
     74     70   2   0.50000     0.1150000   -0.1800000   2.262583e-04  1.374848e-07
     74     71   2   0.50000     0.1150000   -0.1200000   2.262583e-04  1.374848e-07
     68     75   2   0.50000    -0.1150000    0.0600000   2.793149e-04  1.952537e-07
     68     76   2   0.50000    -0.1150000    0.0600000   2.793149e-04  1.952537e-07
     68     77   2   0.50000    -0.1150000    0.0600000   2.793149e-04  1.952537e-07
     71     75   2   0.50000    -0.1200000    0.0600000   2.494471e-04  1.671101e-07
     71     76   2   0.50000    -0.1200000    0.0600000   2.494471e-04  1.671101e-07
     71     77   2   0.50000    -0.1200000    0.0600000   2.494471e-04  1.671101e-07
     68     78   2   0.50000    -0.1150000    0.0600000   2.793149e-04  1.952537e-07
     68     79   2   0.50000    -0.1150000    0.0600000   2.793149e-04  1.952537e-07
     68     80   2   0.50000    -0.1150000   -0.1200000   1.136815e-03  2.180614e-06
     70     78   2   0.50000    -0.1800000    0.0600000   2.494471e-04  1.671101e-07
     70     79   2   0.50000    -0.1800000    0.0600000   2.494471e-04  1.671101e-07
     70     80   2   0.50000    -0.1800000   -0.1200000   1.015252e-03  1.866303e-06
     69     81   2   0.50000     0.0000000   -0.1150000   1.272933e-03  2.547860e-06
     69     85   2   0.50000     0.0000000    0.0600000   2.793149e-04  1.952537e-07
     69     86   2   0.50000     0.0000000    0.0600000   2.793149e-04  1.952537e-07
     78     81   2   0.50000     0.0600000   -0.1150000   2.793149e-04  1.952537e-07
     78     85   2   0.50000     0.0600000    0.0600000   6.128906e-05  1.496315e-08
     78     86   2   0.50000     0.0600000    0.0600000   6.128906e-05  1.496315e-08
     79     81   2   0.50000     0.0600000   -0.1150000   2.793149e-04  1.952537e-07
     79     85   2   0.50000     0.0600000    0.0600000   6.128906e-05  1.496315e-08
     79     86   2   0.50000     0.0600000    0.0600000   6.128906e-05  1.496315e-08
     71     82   2   0.50000    -0.1200000    0.0000000   1.136815e-03  2.180614e-06
     71     87   2   0.50000    -0.1200000    0.1150000   2.262583e-04  1.374848e-07
     85     82   2   0.50000     0.0600000    0.0000000   2.793149e-04  1.952537e-07
     85     87   2   0.50000     0.0600000    0.1150000   5.559158e-05  1.231049e-08
     86     82   2   0.50000     0.0600000    0.0000000   2.793149e-04  1.952537e-07
     86     87   2   0.50000     0.0600000    0.1150000   5.559158e-05  1.231049e-08
     80     83   2   0.50000    -0.1200000   -0.1800000   1.015252e-03  1.866303e-06
     80     84   2   0.50000    -0.1200000   -0.1200000   1.015252e-03  1.866303e-06
     87     83   2   0.50000     0.1150000   -0.1800000   2.262583e-04  1.374848e-07
     87     84   2   0.50000     0.1150000   -0.1200000   2.262583e-04  1.374848e-07
     81     88   2   0.50000    -0.1150000    0.0600000   2.793149e-04  1.952537e-07
     81     89   2   0.50000    -0.1150000    0.0600000   2.793149e-04  1.952537e-07
     81     90   2   0.50000    -0.1150000    0.0600000   2.793149e-04  1.952537e-07
     84     88   2   0.50000    -0.1200000    0.0600000   2.494471e-04  1.671101e-07
     84     89   2   0.50000    -0.1200000    0.0600000   2.494471e-04  1.671101e-07
     84     90   2   0.50000    -0.1200000    0.0600000   2.494471e-04  1.671101e-07
     81     91   2   0.50000    -0.1150000    0.0600000   2.793149e-04  1.952537e-07
     81     92   2   0.50000    -0.1150000    0.0600000   2.793149e-04  1.952537e-07
     81     93   2   0.50000    -0.1150000   -0.1200000   1.136815e-03  2.180614e-06
     83     91   2   0.50000    -0.1800000    0.0600000   2.494471e-04  1.671101e-07
     83     92   2   0.50000    -0.1800000    0.0600000   2.494471e-04  1.671101e-07
     83     93   2   0.50000    -0.1800000   -0.1200000   1.015252e-03  1.866303e-06
     82     94   2   0.50000     0.0000000   -0.1150000   1.272933e-03  2.547860e-06
     82     98   2   0.50000     0.0000000    0.0600000   2.793149e-04  1.952537e-07
     82     99   2   0.50000     0.0000000    0.0600000   2.793149e-04  1.952537e-07
     91     94   2   0.50000     0.0600000   -0.1150000   2.793149e-04  1.952537e-07
     91     98   2   0.50000     0.0600000    0.0600000   6.128906e-05  1.496315e-08
     91     99   2   0.50000     0.0600000    0.0600000   6.128906e-05  1.496315e-08
     92     94   2   0.50000     0.0600000   -0.1150000   2.793149e-04  1.952537e-07
     92     98   2   0.50000     0.0600000    0.0600000   6.128906e-05  1.496315e-08
     92     99   2   0.50000     0.0600000    0.0600000   6.128906e-05  1.496315e-08
     84     95   2   0.50000    -0.1200000    0.0000000   1.136815e-03  2.180614e-06
     84    100   2   0.50000    -0.1200000    0.1150000   2.262583e-04  1.374848e-07
     98     95   2   0.50000     0.0600000    0.0000000   2.793149e-04  1.952537e-07
     98    100   2   0.50000     0.0600000    0.1150000   5.559158e-05  1.231049e-08
     99     95   2   0.50000     0.0600000    0.0000000   2.793149e-04  1.952537e-07
     99    100   2   0.50000     0.0600000    0.1150000   5.559158e-05  1.231049e-08
     93     96   2   0.50000    -0.1200000   -0.1800000   1.015252e-03  1.866303e-06
     93     97   2   0.50000    -0.1200000   -0.1200000   1.015252e-03  1.866303e-06
    100     96   2   0.50000     0.1150000   -0.1800000   2.262583e-04  1.374848e-07
    100     97   2   0.50000     0.1150000   -0.1200000   2.262583e-04  1.374848e-07
     94    101   2   0.50000    -0.1150000    0.0600000   2.793149e-04  1.952537e-07
     94    102   2   0.50000    -0.1150000    0.0600000   2.793149e-04  1.952537e-07
     94    103   2   0.50000    -0.1150000    0.0600000   2.793149e-04  1.952537e-07
     97    101   2   0.50000    -0.1200000    0.0600000   2.494471e-04  1.671101e-07
     97    102   2   0.50000    -0.1200000    0.0600000   2.494471e-04  1.671101e-07
     97    103   2   0.50000    -0.1200000    0.0600000   2.494471e-04  1.671101e-07
     94    104   2   0.50000    -0.1150000    0.0600000   2.793149e-04  1.952537e-07
     94    105   2   0.50000    -0.1150000    0.0600000   2.793149e-04  1.952537e-07
     94    106   2   0.50000    -0.1150000   -0.1200000   1.136815e-03  2.180614e-06
     96    104   2   0.50000    -0.1800000    0.0600000   2.494471e-04  1.671101e-07
     96    105   2   0.50000    -0.1800000    0.0600000   2.494471e-04  1.671101e-07
     96    106   2   0.50000    -0.1800000   -0.1200000   1.015252e-03  1.866303e-06
     95    107   2   0.50000     0.0000000   -0.1150000   1.272933e-03  2.547860e-06
     95    111   2   0.50000     0.0000000    0.0600000   2.793149e-04  1.952537e-07
     95    112   2   0.50000     0.0000000    0.0600000   2.793149e-04  1.952537e-07
    104    107   2   0.50000     0.0600000   -0.1150000   2.793149e-04  1.952537e-07
    104    111   2   0.50000     0.0600000    0.0600000   6.128906e-05  1.496315e-08
    104    112   2   0.50000     0.0600000    0.0600000   6.128906e-05  1.496315e-08
    105    107   2   0.50000     0.0600000   -0.1150000   2.793149e-04  1.952537e-07
    105    111   2   0.50000     0.0600000    0.0600000   6.128906e-05  1.496315e-08
    105    112   2   0.50000     0.0600000    0.0600000   6.128906e-05  1.496315e-08
     97    108   2   0.50000    -0.1200000    0.0000000   1.136815e-03  2.180614e-06
     97    113   2   0.50000    -0.1200000    0.1150000   2.262583e-04  1.374848e-07
    111    108   2   0.50000     0.0600000    0.0000000   2.793149e-04  1.952537e-07
    111    113   2   0.50000     0.0600000    0.1150000   5.559158e-05  1.231049e-08
    112    108   2   0.50000     0.0600000    0.0000000   2.793149e-04  1.952537e-07
    112    113   2   0.50000     0.0600000    0.1150000   5.559158e-05  1.231049e-08
    106    109   2   0.50000    -0.1200000   -0.1800000   1.015252e-03  1.866303e-06
    106    110   2   0.50000    -0.1200000   -0.1200000   1.015252e-03  1.866303e-06
    113    109   2   0.50000     0.1150000   -0.1800000   2.262583e-04  1.374848e-07
    113    110   2   0.50000     0.1150000   -0.1200000   2.262583e-04  1.374848e-07
    107    114   2   0.50000    -0.1150000    0.0600000   2.793149e-04  1.952537e-07
    107    115   2   0.50000    -0.1150000    0.0600000   2.793149e-04  1.952537e-07
    107    116   2   0.50000    -0.1150000    0.0600000   2.793149e-04  1.952537e-07
    110    114   2   0.50000    -0.1200000    0.0600000   2.494471e-04  1.671101e-07
    110    115   2   0.50000    -0.1200000    0.0600000   2.494471e-04  1.671101e-07
    110    116   2   0.50000    -0.1200000    0.0600000   2.494471e-04  1.671101e-07
    107    117   2   0.50000    -0.1150000    0.0600000   2.793149e-04  1.952537e-07
    107    118   2   0.50000    -0.1150000    0.0600000   2.793149e-04  1.952537e-07
    107    119   2   0.50000    -0.1150000   -0.1200000   1.136815e-03  2.180614e-06
    109    117   2   0.50000    -0.1800000    0.0600000   2.494471e-04  1.671101e-07
    109    118   2   0.50000    -0.1800000    0.0600000   2.494471e-04  1.671101e-07
    109    119   2   0.50000    -0.1800000   -0.1200000   1.015252e-03  1.866303e-06
    108    120   2   0.50000     0.0000000   -0.1150000   1.272933e-03  2.547860e-06
    108    124   2   0.50000     0.0000000    0.0600000   2.793149e-04  1.952537e-07
    108    125   2   0.50000     0.0000000    0.0600000   2.793149e-04  1.952537e-07
    117    120   2   0.50000     0.0600000   -0.1150000   2.793149e-04  1.952537e-07
    117    124   2   0.50000     0.0600000    0.0600000   6.128906e-05  1.496315e-08
    117    125   2   0.50000     0.0600000    0.0600000   6.128906e-05  1.496315e-08
    118    120   2   0.50000     0.0600000   -0.1150000   2.793149e-04  1.952537e-07
    118    124   2   0.50000     0.0600000    0.0600000   6.128906e-05  1.496315e-08
    118    125   2   0.50000     0.0600000    0.0600000   6.128906e-05  1.496315e-08
    110    121   2   0.50000    -0.1200000    0.0000000   1.136815e-03  2.180614e-06
    110    126   2   0.50000    -0.1200000    0.1150000   2.262583e-04  1.374848e-07
    124    121   2   0.50000     0.0600000    0.0000000   2.793149e-04  1.952537e-07
    124    126   2   0.50000     0.0600000    0.1150000   5.559158e-05  1.231049e-08
    125    121   2   0.50000     0.0600000    0.0000000   2.793149e-04  1.952537e-07
    125    126   2   0.50000     0.0600000    0.1150000   5.559158e-05  1.231049e-08
    119    122   2   0.50000    -0.1200000   -0.1800000   1.015252e-03  1.866303e-06
    119    123   2   0.50000    -0.1200000   -0.1200000   1.015252e-03  1.866303e-06
    126    122   2   0.50000     0.1150000   -0.1800000   2.262583e-04  1.374848e-07
    126    123   2   0.50000     0.1150000   -0.1200000   2.262583e-04  1.374848e-07
    120    127   2   0.50000    -0.1150000    0.0600000   2.793149e-04  1.952537e-07
    120    128   2   0.50000    -0.1150000    0.0600000   2.793149e-04  1.952537e-07
    120    129   2   0.50000    -0.1150000    0.0600000   2.793149e-04  1.952537e-07
    123    127   2   0.50000    -0.1200000    0.0600000   2.494471e-04  1.671101e-07
    123    128   2   0.50000    -0.1200000    0.0600000   2.494471e-04  1.671101e-07
    123    129   2   0.50000    -0.1200000    0.0600000   2.494471e-04  1.671101e-07
    120    130   2   0.50000    -0.1150000    0.0600000   2.793149e-04  1.952537e-07
    120    131   2   0.50000    -0.1150000    0.0600000   2.793149e-04  1.952537e-07
    120    132   2   0.50000    -0.1150000   -0.1200000   1.136815e-03  2.180614e-06
    122    130   2   0.50000    -0.1800000    0.0600000   2.494471e-04  1.671101e-07
    122    131   2   0.50000    -0.1800000    0.0600000   2.494471e-04  1.671101e-07
    122    132   2   0.50000    -0.1800000   -0.1200000   1.015252e-03  1.866303e-06
    121    133   2   0.50000     0.0000000   -0.1150000   1.272933e-03  2.547860e-06
    121    137   2   0.50000     0.0000000    0.0600000   2.793149e-04  1.952537e-07
    121    138   2   0.50000     0.0000000    0.0600000   2.793149e-04  1.952537e-07
    130    133   2   0.50000     0.0600000   -0.1150000   2.793149e-04  1.952537e-07
    130    137   2   0.50000     0.0600000    0.0600000   6.128906e-05  1.496315e-08
    130    138   2   0.50000     0.0600000    0.0600000   6.128906e-05  1.496315e-08
    131    133   2   0.50000     0.0600000   -0.1150000   2.793149e-04  1.952537e-07
    131    137   2   0.50000     0.0600000    0.0600000   6.128906e-05  1.496315e-08
    131    138   2   0.50000     0.0600000    0.0600000   6.128906e-05  1.496315e-08
    123    134   2   0.50000    -0.1200000    0.0000000   1.136815e-03  2.180614e-06
    123    139   2   0.50000    -0.1200000    0.1150000   2.262583e-04  1.374848e-07
    137    134   2   0.50000     0.0600000    0.0000000   2.793149e-04  1.952537e-07
    137    139   2   0.50000     0.0600000    0.1150000   5.559158e-05  1.231049e-08
    138    134   2   0.50000     0.0600000    0.0000000   2.793149e-04  1.952537e-07
    138    139   2   0.50000     0.0600000    0.1150000   5.559158e-05  1.231049e-08
    132    135   2   0.50000    -0.1200000   -0.1800000   1.015252e-03  1.866303e-06
    132    136   2   0.50000    -0.1200000   -0.1200000   1.015252e-03  1.866303e-06
    139    135   2   0.50000     0.1150000   -0.1800000   2.262583e-04  1.374848e-07
    139    136   2   0.50000     0.1150000   -0.1200000   2.262583e-04  1.374848e-07
    133    140   2   0.50000    -0.1150000    0.0600000   2.793149e-04  1.952537e-07
    133    141   2   0.50000    -0.1150000    0.0600000   2.793149e-04  1.952537e-07
    133    142   2   0.50000    -0.1150000    0.0600000   2.793149e-04  1.952537e-07
    136    140   2   0.50000    -0.1200000    0.0600000   2.494471e-04  1.671101e-07
    136    141   2   0.50000    -0.1200000    0.0600000   2.494471e-04  1.671101e-07
    136    142   2   0.50000    -0.1200000    0.0600000   2.494471e-04  1.671101e-07
    133    143   2   0.50000    -0.1150000    0.0600000   2.793149e-04  1.952537e-07
    133    144   2   0.50000    -0.1150000    0.0600000   2.793149e-04  1.952537e-07
    133    145   2   0.50000    -0.1150000   -0.1200000   1.136815e-03  2.180614e-06
    135    143   2   0.50000    -0.1800000    0.0600000   2.494471e-04  1.671101e-07
    135    144   2   0.50000    -0.1800000    0.0600000   2.494471e-04  1.671101e-07
    135    145   2   0.50000    -0.1800000   -0.1200000   1.015252e-03  1.866303e-06
    134    146   2   0.50000     0.0000000   -0.1150000   1.272933e-03  2.547860e-06
    134    150   2   0.50000     0.0000000    0.0600000   2.793149e-04  1.952537e-07
    134    151   2   0.50000     0.0000000    0.0600000   2.793149e-04  1.952537e-07
    143    146   2   0.50000     0.0600000   -0.1150000   2.793149e-04  1.952537e-07
    143    150   2   0.50000     0.0600000    0.0600000   6.128906e-05  1.496315e-08
    143    151   2   0.50000     0.0600000    0.0600000   6.128906e-05  1.496315e-08
    144    146   2   0.50000     0.0600000   -0.1150000   2.793149e-04  1.952537e-07
    144    150   2   0.50000     0.0600000    0.0600000   6.128906e-05  1.496315e-08
    144    151   2   0.50000     0.0600000    0.0600000   6.128906e-05  1.496315e-08
    136    147   2   0.50000    -0.1200000    0.0000000   1.136815e-03  2.180614e-06
    136    152   2   0.50000    -0.1200000    0.1150000   2.262583e-04  1.374848e-07
    150    147   2   0.50000     0.0600000    0.0000000   2.793149e-04  1.952537e-07
    150    152   2   0.50000     0.0600000    0.1150000   5.559158e-05  1.231049e-08
    151    147   2   0.50000     0.0600000    0.0000000   2.793149e-04  1.952537e-07
    151    152   2   0.50000     0.0600000    0.1150000   5.559158e-05  1.231049e-08
    145    148   2   0.50000    -0.1200000   -0.1800000   1.015252e-03  1.866303e-06
    145    149   2   0.50000    -0.1200000   -0.1200000   1.015252e-03  1.866303e-06
    152    148   2   0.50000     0.1150000   -0.1800000   2.262583e-04  1.374848e-07
    152    149   2   0.50000     0.1150000   -0.1200000   2.262583e-04  1.374848e-07
    146    153   2   0.50000    -0.1150000    0.0600000   2.793149e-04  1.952537e-07
    146    154   2   0.50000    -0.1150000    0.0600000   2.793149e-04  1.952537e-07
    146    155   2   0.50000    -0.1150000    0.0600000   2.793149e-04  1.952537e-07
    149    153   2   0.50000    -0.1200000    0.0600000   2.494471e-04  1.671101e-07
    149    154   2   0.50000    -0.1200000    0.0600000   2.494471e-04  1.671101e-07
    149    155   2   0.50000    -0.1200000    0.0600000   2.494471e-04  1.671101e-07
    146    156   2   0.50000    -0.1150000    0.0600000   2.793149e-04  1.952537e-07
    146    157   2   0.50000    -0.1150000    0.0600000   2.793149e-04  1.952537e-07
    146    158   2   0.50000    -0.1150000   -0.1200000   1.136815e-03  2.180614e-06
    148    156   2   0.50000    -0.1800000    0.0600000   2.494471e-04  1.671101e-07
    148    157   2   0.50000    -0.1800000    0.0600000   2.494471e-04  1.671101e-07
    148    158   2   0.50000    -0.1800000   -0.1200000   1.015252e-03  1.866303e-06
    147    159   2   0.50000     0.0000000   -0.1150000   1.272933e-03  2.547860e-06
    147    163   2   0.50000     0.0000000    0.0600000   2.793149e-04  1.952537e-07
    147    164   2   0.50000     0.0000000    0.0600000   2.793149e-04  1.952537e-07
    156    159   2   0.50000     0.0600000   -0.1150000   2.793149e-04  1.952537e-07
    156    163   2   0.50000     0.0600000    0.0600000   6.128906e-05  1.496315e-08
    156    164   2   0.50000     0.0600000    0.0600000   6.128906e-05  1.496315e-08
    157    159   2   0.50000     0.0600000   -0.1150000   2.793149e-04  1.952537e-07
    157    163   2   0.50000     0.0600000    0.0600000   6.128906e-05  1.496315e-08
    157    164   2   0.50000     0.0600000    0.0600000   6.128906e-05  1.496315e-08
    149    160   2   0.50000    -0.1200000    0.0000000   1.136815e-03  2.180614e-06
    149    165   2   0.50000    -0.1200000    0.1150000   2.262583e-04  1.374848e-07
    163    160   2   0.50000     0.0600000    0.0000000   2.793149e-04  1.952537e-07
    163    165   2   0.50000     0.0600000    0.1150000   5.559158e-05  1.231049e-08
    164    160   2   0.50000     0.0600000    0.0000000   2.793149e-04  1.952537e-07
    164    165   2   0.50000     0.0600000    0.1150000   5.559158e-05  1.231049e-08
    158    161   2   0.50000    -0.1200000   -0.1800000   1.015252e-03  1.866303e-06
    158    162   2   0.50000    -0.1200000   -0.1200000   1.015252e-03  1.866303e-06
    165    161   2   0.50000     0.1150000   -0.1800000   2.262583e-04  1.374848e-07
    165    162   2   0.50000     0.1150000   -0.1200000   2.262583e-04  1.374848e-07
    159    166   2   0.50000    -0.1150000    0.0600000   2.793149e-04  1.952537e-07
    159    167   2   0.50000    -0.1150000    0.0600000   2.793149e-04  1.952537e-07
    159    168   2   0.50000    -0.1150000    0.0600000   2.793149e-04  1.952537e-07
    162    166   2   0.50000    -0.1200000    0.0600000   2.494471e-04  1.671101e-07
    162    167   2   0.50000    -0.1200000    0.0600000   2.494471e-04  1.671101e-07
    162    168   2   0.50000    -0.1200000    0.0600000   2.494471e-04  1.671101e-07
    159    169   2   0.50000    -0.1150000    0.0600000   2.793149e-04  1.952537e-07
    159    170   2   0.50000    -0.1150000    0.0600000   2.793149e-04  1.952537e-07
    159    171   2   0.50000    -0.1150000   -0.1200000   1.136815e-03  2.180614e-06
    161    169   2   0.50000    -0.1800000    0.0600000   2.494471e-04  1.671101e-07
    161    170   2   0.50000    -0.1800000    0.0600000   2.494471e-04  1.671101e-07
    161    171   2   0.50000    -0.1800000   -0.1200000   1.015252e-03  1.866303e-06
    160    172   2   0.50000     0.0000000   -0.1150000   1.272933e-03  2.547860e-06
    160    176   2   0.50000     0.0000000    0.0600000   2.793149e-04  1.952537e-07
    160    177   2   0.50000     0.0000000    0.0600000   2.793149e-04  1.952537e-07
    169    172   2   0.50000     0.0600000   -0.1150000   2.793149e-04  1.952537e-07
    169    176   2   0.50000     0.0600000    0.0600000   6.128906e-05  1.496315e-08
    169    177   2   0.50000     0.0600000    0.0600000   6.128906e-05  1.496315e-08
    170    172   2   0.50000     0.0600000   -0.1150000   2.793149e-04  1.952537e-07
    170    176   2   0.50000     0.0600000    0.0600000   6.128906e-05  1.496315e-08
    170    177   2   0.50000     0.0600000    0.0600000   6.128906e-05  1.496315e-08
    162    173   2   0.50000    -0.1200000    0.0000000   1.136815e-03  2.180614e-06
    162    178   2   0.50000    -0.1200000    0.1150000   2.262583e-04  1.374848e-07
    176    173   2   0.50000     0.0600000    0.0000000   2.793149e-04  1.952537e-07
    176    178   2   0.50000     0.0600000    0.1150000   5.559158e-05  1.231049e-08
    177    173   2   0.50000     0.0600000    0.0000000   2.793149e-04  1.952537e-07
    177    178   2   0.50000     0.0600000    0.1150000   5.559158e-05  1.231049e-08
    171    174   2   0.50000    -0.1200000   -0.1800000   1.015252e-03  1.866303e-06
    171    175   2   0.50000    -0.1200000   -0.1200000   1.015252e-03  1.866303e-06
    178    174   2   0.50000     0.1150000   -0.1800000   2.262583e-04  1.374848e-07
    178    175   2   0.50000     0.1150000   -0.1200000   2.262583e-04  1.374848e-07
    172    179   2   0.50000    -0.1150000    0.0600000   2.793149e-04  1.952537e-07
    172    180   2   0.50000    -0.1150000    0.0600000   2.793149e-04  1.952537e-07
    172    181   2   0.50000    -0.1150000    0.0600000   2.793149e-04  1.952537e-07
    175    179   2   0.50000    -0.1200000    0.0600000   2.494471e-04  1.671101e-07
    175    180   2   0.50000    -0.1200000    0.0600000   2.494471e-04  1.671101e-07
    175    181   2   0.50000    -0.1200000    0.0600000   2.494471e-04  1.671101e-07
    172    182   2   0.50000    -0.1150000    0.0600000   2.793149e-04  1.952537e-07
    172    183   2   0.50000    -0.1150000    0.0600000   2.793149e-04  1.952537e-07
    172    184   2   0.50000    -0.1150000   -0.1200000   1.136815e-03  2.180614e-06
    174    182   2   0.50000    -0.1800000    0.0600000   2.494471e-04  1.671101e-07
    174    183   2   0.50000    -0.1800000    0.0600000   2.494471e-04  1.671101e-07
    174    184   2   0.50000    -0.1800000   -0.1200000   1.015252e-03  1.866303e-06
    173    185   2   0.50000     0.0000000   -0.1150000   1.272933e-03  2.547860e-06
    173    189   2   0.50000     0.0000000    0.0600000   2.793149e-04  1.952537e-07
    173    190   2   0.50000     0.0000000    0.0600000   2.793149e-04  1.952537e-07
    182    185   2   0.50000     0.0600000   -0.1150000   2.793149e-04  1.952537e-07
    182    189   2   0.50000     0.0600000    0.0600000   6.128906e-05  1.496315e-08
    182    190   2   0.50000     0.0600000    0.0600000   6.128906e-05  1.496315e-08
    183    185   2   0.50000     0.0600000   -0.1150000   2.793149e-04  1.952537e-07
    183    189   2   0.50000     0.0600000    0.0600000   6.128906e-05  1.496315e-08
    183    190   2   0.50000     0.0600000    0.0600000   6.128906e-05  1.496315e-08
    175    186   2   0.50000    -0.1200000    0.0000000   1.136815e-03  2.180614e-06
    175    191   2   0.50000    -0.1200000    0.1150000   2.262583e-04  1.374848e-07
    189    186   2   0.50000     0.0600000    0.0000000   2.793149e-04  1.952537e-07
    189    191   2   0.50000     0.0600000    0.1150000   5.559158e-05  1.231049e-08
    190    186   2   0.50000     0.0600000    0.0000000   2.793149e-04  1.952537e-07
    190    191   2   0.50000     0.0600000    0.1150000   5.559158e-05  1.231049e-08
    184    187   2   0.50000    -0.1200000   -0.1800000   1.015252e-03  1.866303e-06
    184    188   2   0.50000    -0.1200000   -0.1200000   1.015252e-03  1.866303e-06
    191    187   2   0.50000     0.1150000   -0.1800000   2.262583e-04  1.374848e-07
    191    188   2   0.50000     0.1150000   -0.1200000   2.262583e-04  1.374848e-07
    185    192   2   0.50000    -0.1150000    0.0600000   2.793149e-04  1.952537e-07
    185    193   2   0.50000    -0.1150000    0.0600000   2.793149e-04  1.952537e-07
    185    194   2   0.50000    -0.1150000    0.0600000   2.793149e-04  1.952537e-07
    188    192   2   0.50000    -0.1200000    0.0600000   2.494471e-04  1.671101e-07
    188    193   2   0.50000    -0.1200000    0.0600000   2.494471e-04  1.671101e-07
    188    194   2   0.50000    -0.1200000    0.0600000   2.494471e-04  1.671101e-07
    185    195   2   0.50000    -0.1150000    0.0600000   2.793149e-04  1.952537e-07
    185    196   2   0.50000    -0.1150000    0.0600000   2.793149e-04  1.952537e-07
    185    197   2   0.50000    -0.1150000   -0.1200000   1.136815e-03  2.180614e-06
    187    195   2   0.50000    -0.1800000    0.0600000   2.494471e-04  1.671101e-07
    187    196   2   0.50000    -0.1800000    0.0600000   2.494471e-04  1.671101e-07
    187    197   2   0.50000    -0.1800000   -0.1200000   1.015252e-03  1.866303e-06
    186    198   2   0.50000     0.0000000   -0.1150000   1.272933e-03  2.547860e-06
    186    202   2   0.50000     0.0000000    0.0600000   2.793149e-04  1.952537e-07
    186    203   2   0.50000     0.0000000    0.0600000   2.793149e-04  1.952537e-07
    195    198   2   0.50000     0.0600000   -0.1150000   2.793149e-04  1.952537e-07
    195    202   2   0.50000     0.0600000    0.0600000   6.128906e-05  1.496315e-08
    195    203   2   0.50000     0.0600000    0.0600000   6.128906e-05  1.496315e-08
    196    198   2   0.50000     0.0600000   -0.1150000   2.793149e-04  1.952537e-07
    196    202   2   0.50000     0.0600000    0.0600000   6.128906e-05  1.496315e-08
    196    203   2   0.50000     0.0600000    0.0600000   6.128906e-05  1.496315e-08
    188    199   2   0.50000    -0.1200000    0.0000000   1.136815e-03  2.180614e-06
    188    204   2   0.50000    -0.1200000    0.1150000   2.262583e-04  1.374848e-07
    202    199   2   0.50000     0.0600000    0.0000000   2.793149e-04  1.952537e-07
    202    204   2   0.50000     0.0600000    0.1150000   5.559158e-05  1.231049e-08
    203    199   2   0.50000     0.0600000    0.0000000   2.793149e-04  1.952537e-07
    203    204   2   0.50000     0.0600000    0.1150000   5.559158e-05  1.231049e-08
    197    200   2   0.50000    -0.1200000   -0.1800000   1.015252e-03  1.866303e-06
    197    201   2   0.50000    -0.1200000   -0.1200000   1.015252e-03  1.866303e-06
    204    200   2   0.50000     0.1150000   -0.1800000   2.262583e-04  1.374848e-07
    204    201   2   0.50000     0.1150000   -0.1200000   2.262583e-04  1.374848e-07
    198    205   2   0.50000    -0.1150000    0.0600000   2.793149e-04  1.952537e-07
    198    206   2   0.50000    -0.1150000    0.0600000   2.793149e-04  1.952537e-07
    198    207   2   0.50000    -0.1150000    0.0600000   2.793149e-04  1.952537e-07
    201    205   2   0.50000    -0.1200000    0.0600000   2.494471e-04  1.671101e-07
    201    206   2   0.50000    -0.1200000    0.0600000   2.494471e-04  1.671101e-07
    201    207   2   0.50000    -0.1200000    0.0600000   2.494471e-04  1.671101e-07
    198    208   2   0.50000    -0.1150000    0.0600000   2.793149e-04  1.952537e-07
    198    209   2   0.50000    -0.1150000    0.0600000   2.793149e-04  1.952537e-07
    198    210   2   0.50000    -0.1150000   -0.1200000   1.136815e-03  2.180614e-06
    200    208   2   0.50000    -0.1800000    0.0600000   2.494471e-04  1.671101e-07
    200    209   2   0.50000    -0.1800000    0.0600000   2.494471e-04  1.671101e-07
    200    210   2   0.50000    -0.1800000   -0.1200000   1.015252e-03  1.866303e-06
    199    211   2   0.50000     0.0000000   -0.1150000   1.272933e-03  2.547860e-06
    199    215   2   0.50000     0.0000000    0.0600000   2.793149e-04  1.952537e-07
    199    216   2   0.50000     0.0000000    0.0600000   2.793149e-04  1.952537e-07
    208    211   2   0.50000     0.0600000   -0.1150000   2.793149e-04  1.952537e-07
    208    215   2   0.50000     0.0600000    0.0600000   6.128906e-05  1.496315e-08
    208    216   2   0.50000     0.0600000    0.0600000   6.128906e-05  1.496315e-08
    209    211   2   0.50000     0.0600000   -0.1150000   2.793149e-04  1.952537e-07
    209    215   2   0.50000     0.0600000    0.0600000   6.128906e-05  1.496315e-08
    209    216   2   0.50000     0.0600000    0.0600000   6.128906e-05  1.496315e-08
    201    212   2   0.50000    -0.1200000    0.0000000   1.136815e-03  2.180614e-06
    201    217   2   0.50000    -0.1200000    0.1150000   2.262583e-04  1.374848e-07
    215    212   2   0.50000     0.0600000    0.0000000   2.793149e-04  1.952537e-07
    215    217   2   0.50000     0.0600000    0.1150000   5.559158e-05  1.231049e-08
    216    212   2   0.50000     0.0600000    0.0000000   2.793149e-04  1.952537e-07
    216    217   2   0.50000     0.0600000    0.1150000   5.559158e-05  1.231049e-08
    210    213   2   0.50000    -0.1200000   -0.1800000   1.015252e-03  1.866303e-06
    210    214   2   0.50000    -0.1200000   -0.1200000   1.015252e-03  1.866303e-06
    217    213   2   0.50000     0.1150000   -0.1800000   2.262583e-04  1.374848e-07
    217    214   2   0.50000     0.1150000   -0.1200000   2.262583e-04  1.374848e-07
    211    218   2   0.50000    -0.1150000    0.0600000   2.793149e-04  1.952537e-07
    211    219   2   0.50000    -0.1150000    0.0600000   2.793149e-04  1.952537e-07
    211    220   2   0.50000    -0.1150000    0.0600000   2.793149e-04  1.952537e-07
    214    218   2   0.50000    -0.1200000    0.0600000   2.494471e-04  1.671101e-07
    214    219   2   0.50000    -0.1200000    0.0600000   2.494471e-04  1.671101e-07
    214    220   2   0.50000    -0.1200000    0.0600000   2.494471e-04  1.671101e-07
    211    221   2   0.50000    -0.1150000    0.0600000   2.793149e-04  1.952537e-07
    211    222   2   0.50000    -0.1150000    0.0600000   2.793149e-04  1.952537e-07
    211    223   2   0.50000    -0.1150000   -0.1200000   1.136815e-03  2.180614e-06
    213    221   2   0.50000    -0.1800000    0.0600000   2.494471e-04  1.671101e-07
    213    222   2   0.50000    -0.1800000    0.0600000   2.494471e-04  1.671101e-07
    213    223   2   0.50000    -0.1800000   -0.1200000   1.015252e-03  1.866303e-06
    212    224   2   0.50000     0.0000000   -0.1150000   1.272933e-03  2.547860e-06
    212    228   2   0.50000     0.0000000    0.0600000   2.793149e-04  1.952537e-07
    212    229   2   0.50000     0.0000000    0.0600000   2.793149e-04  1.952537e-07
    221    224   2   0.50000     0.0600000   -0.1150000   2.793149e-04  1.952537e-07
    221    228   2   0.50000     0.0600000    0.0600000   6.128906e-05  1.496315e-08
    221    229   2   0.50000     0.0600000    0.0600000   6.128906e-05  1.496315e-08
    222    224   2   0.50000     0.0600000   -0.1150000   2.793149e-04  1.952537e-07
    222    228   2   0.50000     0.0600000    0.0600000   6.128906e-05  1.496315e-08
    222    229   2   0.50000     0.0600000    0.0600000   6.128906e-05  1.496315e-08
    214    225   2   0.50000    -0.1200000    0.0000000   1.136815e-03  2.180614e-06
    214    230   2   0.50000    -0.1200000    0.1150000   2.262583e-04  1.374848e-07
    228    225   2   0.50000     0.0600000    0.0000000   2.793149e-04  1.952537e-07
    228    230   2   0.50000     0.0600000    0.1150000   5.559158e-05  1.231049e-08
    229    225   2   0.50000     0.0600000    0.0000000   2.793149e-04  1.952537e-07
    229    230   2   0.50000     0.0600000    0.1150000   5.559158e-05  1.231049e-08
    223    226   2   0.50000    -0.1200000   -0.1800000   1.015252e-03  1.866303e-06
    223    227   2   0.50000    -0.1200000   -0.1200000   1.015252e-03  1.866303e-06
    230    226   2   0.50000     0.1150000   -0.1800000   2.262583e-04  1.374848e-07
    230    227   2   0.50000     0.1150000   -0.1200000   2.262583e-04  1.374848e-07
    224    231   2   0.50000    -0.1150000    0.0600000   2.793149e-04  1.952537e-07
    224    232   2   0.50000    -0.1150000    0.0600000   2.793149e-04  1.952537e-07
    224    233   2   0.50000    -0.1150000    0.0600000   2.793149e-04  1.952537e-07
    227    231   2   0.50000    -0.1200000    0.0600000   2.494471e-04  1.671101e-07
    227    232   2   0.50000    -0.1200000    0.0600000   2.494471e-04  1.671101e-07
    227    233   2   0.50000    -0.1200000    0.0600000   2.494471e-04  1.671101e-07
    224    234   2   0.50000    -0.1150000    0.0600000   2.793149e-04  1.952537e-07
    224    235   2   0.50000    -0.1150000    0.0600000   2.793149e-04  1.952537e-07
    224    236   2   0.50000    -0.1150000   -0.1200000   1.136815e-03  2.180614e-06
    226    234   2   0.50000    -0.1800000    0.0600000   2.494471e-04  1.671101e-07
    226    235   2   0.50000    -0.1800000    0.0600000   2.494471e-04  1.671101e-07
    226    236   2   0.50000    -0.1800000   -0.1200000   1.015252e-03  1.866303e-06
    225    237   2   0.50000     0.0000000   -0.1150000   1.272933e-03  2.547860e-06
    225    241   2   0.50000     0.0000000    0.0600000   2.793149e-04  1.952537e-07
    225    242   2   0.50000     0.0000000    0.0600000   2.793149e-04  1.952537e-07
    234    237   2   0.50000     0.0600000   -0.1150000   2.793149e-04  1.952537e-07
    234    241   2   0.50000     0.0600000    0.0600000   6.128906e-05  1.496315e-08
    234    242   2   0.50000     0.0600000    0.0600000   6.128906e-05  1.496315e-08
    235    237   2   0.50000     0.0600000   -0.1150000   2.793149e-04  1.952537e-07
    235    241   2   0.50000     0.0600000    0.0600000   6.128906e-05  1.496315e-08
    235    242   2   0.50000     0.0600000    0.0600000   6.128906e-05  1.496315e-08
    227    238   2   0.50000    -0.1200000    0.0000000   1.136815e-03  2.180614e-06
    227    243   2   0.50000    -0.1200000    0.1150000   2.262583e-04  1.374848e-07
    241    238   2   0.50000     0.0600000    0.0000000   2.793149e-04  1.952537e-07
    241    243   2   0.50000     0.0600000    0.1150000   5.559158e-05  1.231049e-08
    242    238   2   0.50000     0.0600000    0.0000000   2.793149e-04  1.952537e-07
    242    243   2   0.50000     0.0600000    0.1150000   5.559158e-05  1.231049e-08
    236    239   2   0.50000    -0.1200000   -0.1800000   1.015252e-03  1.866303e-06
    236    240   2   0.50000    -0.1200000   -0.1200000   1.015252e-03  1.866303e-06
    243    239   2   0.50000     0.1150000   -0.1800000   2.262583e-04  1.374848e-07
    243    240   2   0.50000     0.1150000   -0.1200000   2.262583e-04  1.374848e-07
    237    244   2   0.50000    -0.1150000    0.0600000   2.793149e-04  1.952537e-07
    237    245   2   0.50000    -0.1150000    0.0600000   2.793149e-04  1.952537e-07
    237    246   2   0.50000    -0.1150000    0.0600000   2.793149e-04  1.952537e-07
    240    244   2   0.50000    -0.1200000    0.0600000   2.494471e-04  1.671101e-07
    240    245   2   0.50000    -0.1200000    0.0600000   2.494471e-04  1.671101e-07
    240    246   2   0.50000    -0.1200000    0.0600000   2.494471e-04  1.671101e-07
    237    247   2   0.50000    -0.1150000    0.0600000   2.793149e-04  1.952537e-07
    237    248   2   0.50000    -0.1150000    0.0600000   2.793149e-04  1.952537e-07
    237    249   2   0.50000    -0.1150000   -0.1200000   1.136815e-03  2.180614e-06
    239    247   2   0.50000    -0.1800000    0.0600000   2.494471e-04  1.671101e-07
    239    248   2   0.50000    -0.1800000    0.0600000   2.494471e-04  1.671101e-07
    239    249   2   0.50000    -0.1800000   -0.1200000   1.015252e-03  1.866303e-06
    238    250   2   0.50000     0.0000000   -0.1150000   1.272933e-03  2.547860e-06
    238    254   2   0.50000     0.0000000    0.0600000   2.793149e-04  1.952537e-07
    238    255   2   0.50000     0.0000000    0.0600000   2.793149e-04  1.952537e-07
    247    250   2   0.50000     0.0600000   -0.1150000   2.793149e-04  1.952537e-07
    247    254   2   0.50000     0.0600000    0.0600000   6.128906e-05  1.496315e-08
    247    255   2   0.50000     0.0600000    0.0600000   6.128906e-05  1.496315e-08
    248    250   2   0.50000     0.0600000   -0.1150000   2.793149e-04  1.952537e-07
    248    254   2   0.50000     0.0600000    0.0600000   6.128906e-05  1.496315e-08
    248    255   2   0.50000     0.0600000    0.0600000   6.128906e-05  1.496315e-08
    240    251   2   0.50000    -0.1200000    0.0000000   1.136815e-03  2.180614e-06
    240    256   2   0.50000    -0.1200000    0.1150000   2.262583e-04  1.374848e-07
    254    251   2   0.50000     0.0600000    0.0000000   2.793149e-04  1.952537e-07
    254    256   2   0.50000     0.0600000    0.1150000   5.559158e-05  1.231049e-08
    255    251   2   0.50000     0.0600000    0.0000000   2.793149e-04  1.952537e-07
    255    256   2   0.50000     0.0600000    0.1150000   5.559158e-05  1.231049e-08
    249    252   2   0.50000    -0.1200000   -0.1800000   1.015252e-03  1.866303e-06
    249    253   2   0.50000    -0.1200000   -0.1800000   1.015252e-03  1.866303e-06
    256    252   2   0.50000     0.1150000   -0.1800000   2.262583e-04  1.374848e-07
    256    253   2   0.50000     0.1150000   -0.1800000   2.262583e-04  1.374848e-07
    250    257   2   0.50000    -0.1150000    0.0600000   2.793149e-04  1.952537e-07
    250    258   2   0.50000    -0.1150000    0.0600000   2.793149e-04  1.952537e-07
    250    259   2   0.50000    -0.1150000    0.0600000   2.793149e-04  1.952537e-07
    253    257   2   0.50000    -0.1800000    0.0600000   2.494471e-04  1.671101e-07
    253    258   2   0.50000    -0.1800000    0.0600000   2.494471e-04  1.671101e-07
    253    259   2   0.50000    -0.1800000    0.0600000   2.494471e-04  1.671101e-07
    250    260   2   0.50000    -0.1150000    0.0600000   2.793149e-04  1.952537e-07
    250    261   2   0.50000    -0.1150000    0.0600000   2.793149e-04  1.952537e-07
    250    262   2   0.50000    -0.1150000    0.0600000   2.793149e-04  1.952537e-07
    252    260   2   0.50000    -0.1800000    0.0600000   2.494471e-04  1.671101e-07
    252    261   2   0.50000    -0.1800000    0.0600000   2.494471e-04  1.671101e-07
    252    262   2   0.50000    -0.1800000    0.0600000   2.494471e-04  1.671101e-07

[ angles ]
; ai  aj  ak
      2      1      6   1    109.5000    292.8800
      2      1      7   1    109.5000    292.8800
      2      1     14   1    109.5000    292.8800
      6      1      7   1    107.8000    276.1440
      6      1     14   1    107.8000    276.1440
      7      1     14   1    107.8000    276.1440
      1      2      3   1    124.0000    585.7600
      1      2      8   1    117.0000    292.8800
      3      2      8   1    120.0000    292.8800
      2      3      4   1    124.0000    585.7600
      2      3      5   1    124.0000    585.7600
      4      3      5   1    117.9270    543.9200
      3      4      9   1    109.5000    292.8800
      3      4     10   1    109.5000    292.8800
      3      4     11   1    109.5000    292.8800
      9      4     10   1    107.8000    276.1440
      9      4     11   1    107.8000    276.1440
     10      4     11   1    107.8000    276.1440
      3      5     12   1    109.5000    292.8800
      3      5     13   1    109.5000    292.8800
      3      5     15   1    112.0270    585.7600
     12      5     13   1    107.8000    276.1440
     12      5     15   1    110.7000    313.8000
     13      5     15   1    110.7000    313.8000
      5     15     16   1    112.0270    585.7600
      5     15     20   1    110.7000    313.8000
      5     15     21   1    110.7000    313.8000
     16     15     20   1    109.5000    292.8800
     16     15     21   1    109.5000    292.8800
     20     15     21   1    107.8000    276.1440
     15     16     17   1    124.0000    585.7600
     15     16     22   1    117.0000    292.8800
     17     16     22   1    120.0000    292.8800
     16     17     18   1    124.0000    585.7600
     16     17     19   1    124.0000    585.7600
     18     17     19   1    117.9270    543.9200
     17     18     23   1    109.5000    292.8800
     17     18     24   1    109.5000    292.8800
     17     18     25   1    109.5000    292.8800
     23     18     24   1    107.8000    276.1440
     23     18     25   1    107.8000    276.1440
     24     18     25   1    107.8000    276.1440
     17     19     26   1    109.5000    292.8800
     17     19     27   1    109.5000    292.8800
     17     19     28   1    112.0270    585.7600
     26     19     27   1    107.8000    276.1440
     26     19     28   1    110.7000    313.8000
     27     19     28   1    110.7000    313.8000
     19     28     29   1    112.0270    585.7600
     19     28     33   1    110.7000    313.8000
     19     28     34   1    110.7000    313.8000
     29     28     33   1    109.5000    292.8800
     29     28     34   1    109.5000    292.8800
     33     28     34   1    107.8000    276.1440
     28     29     30   1    124.0000    585.7600
     28     29     35   1    117.0000    292.8800
     30     29     35   1    120.0000    292.8800
     29     30     31   1    124.0000    585.7600
     29     30     32   1    124.0000    585.7600
     31     30     32   1    117.9270    543.9200
     30     31     36   1    109.5000    292.8800
     30     31     37   1    109.5000    292.8800
     30     31     38   1    109.5000    292.8800
     36     31     37   1    107.8000    276.1440
     36     31     38   1    107.8000    276.1440
     37     31     38   1    107.8000    276.1440
     30     32     39   1    109.5000    292.8800
     30     32     40   1    109.5000    292.8800
     30     32     41   1    112.0270    585.7600
     39     32     40   1    107.8000    276.1440
     39     32     41   1    110.7000    313.8000
     40     32     41   1    110.7000    313.8000
     32     41     42   1    112.0270    585.7600
     32     41     46   1    110.7000    313.8000
     32     41     47   1    110.7000    313.8000
     42     41     46   1    109.5000    292.8800
     42     41     47   1    109.5000    292.8800
     46     41     47   1    107.8000    276.1440
     41     42     43   1    124.0000    585.7600
     41     42     48   1    117.0000    292.8800
     43     42     48   1    120.0000    292.8800
     42     43     44   1    124.0000    585.7600
     42     43     45   1    124.0000    585.7600
     44     43     45   1    117.9270    543.9200
     43     44     49   1    109.5000    292.8800
     43     44     50   1    109.5000    292.8800
     43     44     51   1    109.5000    292.8800
     49     44     50   1    107.8000    276.1440
     49     44     51   1    107.8000    276.1440
     50     44     51   1    107.8000    276.1440
     43     45     52   1    109.5000    292.8800
     43     45     53   1    109.5000    292.8800
     43     45     54   1    112.0270    585.7600
     52     45     53   1    107.8000    276.1440
     52     45     54   1    110.7000    313.8000
     53     45     54   1    110.7000    313.8000
     45     54     55   1    112.0270    585.7600
     45     54     59   1    110.7000    313.8000
     45     54     60   1    110.7000    313.8000
     55     54     59   1    109.5000    292.8800
     55     54     60   1    109.5000    292.8800
     59     54     60   1    107.8000    276.1440
     54     55     56   1    124.0000    585.7600
     54     55     61   1    117.0000    292.8800
     56     55     61   1    120.0000    292.8800
     55     56     57   1    124.0000    585.7600
     55     56     58   1    124.0000    585.7600
     57     56     58   1    117.9270    543.9200
     56     57     62   1    109.5000    292.8800
     56     57     63   1    109.5000    292.8800
     56     57     64   1    109.5000    292.8800
     62     57     63   1    107.8000    276.1440
     62     57     64   1    107.8000    276.1440
     63     57     64   1    107.8000    276.1440
     56     58     65   1    109.5000    292.8800
     56     58     66   1    109.5000    292.8800
     56     58     67   1    112.0270    585.7600
     65     58     66   1    107.8000    276.1440
     65     58     67   1    110.7000    313.8000
     66     58     67   1    110.7000    313.8000
     58     67     68   1    112.0270    585.7600
     58     67     72   1    110.7000    313.8000
     58     67     73   1    110.7000    313.8000
     68     67     72   1    109.5000    292.8800
     68     67     73   1    109.5000    292.8800
     72     67     73   1    107.8000    276.1440
     67     68     69   1    124.0000    585.7600
     67     68     74   1    117.0000    292.8800
     69     68     74   1    120.0000    292.8800
     68     69     70   1    124.0000    585.7600
     68     69     71   1    124.0000    585.7600
     70     69     71   1    117.9270    543.9200
     69     70     75   1    109.5000    292.8800
     69     70     76   1    109.5000    292.8800
     69     70     77   1    109.5000    292.8800
     75     70     76   1    107.8000    276.1440
     75     70     77   1    107.8000    276.1440
     76     70     77   1    107.8000    276.1440
     69     71     78   1    109.5000    292.8800
     69     71     79   1    109.5000    292.8800
     69     71     80   1    112.0270    585.7600
     78     71     79   1    107.8000    276.1440
     78     71     80   1    110.7000    313.8000
     79     71     80   1    110.7000    313.8000
     71     80     81   1    112.0270    585.7600
     71     80     85   1    110.7000    313.8000
     71     80     86   1    110.7000    313.8000
     81     80     85   1    109.5000    292.8800
     81     80     86   1    109.5000    292.8800
     85     80     86   1    107.8000    276.1440
     80     81     82   1    124.0000    585.7600
     80     81     87   1    117.0000    292.8800
     82     81     87   1    120.0000    292.8800
     81     82     83   1    124.0000    585.7600
     81     82     84   1    124.0000    585.7600
     83     82     84   1    117.9270    543.9200
     82     83     88   1    109.5000    292.8800
     82     83     89   1    109.5000    292.8800
     82     83     90   1    109.5000    292.8800
     88     83     89   1    107.8000    276.1440
     88     83     90   1    107.8000    276.1440
     89     83     90   1    107.8000    276.1440
     82     84     91   1    109.5000    292.8800
     82     84     92   1    109.5000    292.8800
     82     84     93   1    112.0270    585.7600
     91     84     92   1    107.8000    276.1440
     91     84     93   1    110.7000    313.8000
     92     84     93   1    110.7000    313.8000
     84     93     94   1    112.0270    585.7600
     84     93     98   1    110.7000    313.8000
     84     93     99   1    110.7000    313.8000
     94     93     98   1    109.5000    292.8800
     94     93     99   1    109.5000    292.8800
     98     93     99   1    107.8000    276.1440
     93     94     95   1    124.0000    585.7600
     93     94    100   1    117.0000    292.8800
     95     94    100   1    120.0000    292.8800
     94     95     96   1    124.0000    585.7600
     94     95     97   1    124.0000    585.7600
     96     95     97   1    117.9270    543.9200
     95     96    101   1    109.5000    292.8800
     95     96    102   1    109.5000    292.8800
     95     96    103   1    109.5000    292.8800
    101     96    102   1    107.8000    276.1440
    101     96    103   1    107.8000    276.1440
    102     96    103   1    107.8000    276.1440
     95     97    104   1    109.5000    292.8800
     95     97    105   1    109.5000    292.8800
     95     97    106   1    112.0270    585.7600
    104     97    105   1    107.8000    276.1440
    104     97    106   1    110.7000    313.8000
    105     97    106   1    110.7000    313.8000
     97    106    107   1    112.0270    585.7600
     97    106    111   1    110.7000    313.8000
     97    106    112   1    110.7000    313.8000
    107    106    111   1    109.5000    292.8800
    107    106    112   1    109.5000    292.8800
    111    106    112   1    107.8000    276.1440
    106    107    108   1    124.0000    585.7600
    106    107    113   1    117.0000    292.8800
    108    107    113   1    120.0000    292.8800
    107    108    109   1    124.0000    585.7600
    107    108    110   1    124.0000    585.7600
    109    108    110   1    117.9270    543.9200
    108    109    114   1    109.5000    292.8800
    108    109    115   1    109.5000    292.8800
    108    109    116   1    109.5000    292.8800
    114    109    115   1    107.8000    276.1440
    114    109    116   1    107.8000    276.1440
    115    109    116   1    107.8000    276.1440
    108    110    117   1    109.5000    292.8800
    108    110    118   1    109.5000    292.8800
    108    110    119   1    112.0270    585.7600
    117    110    118   1    107.8000    276.1440
    117    110    119   1    110.7000    313.8000
    118    110    119   1    110.7000    313.8000
    110    119    120   1    112.0270    585.7600
    110    119    124   1    110.7000    313.8000
    110    119    125   1    110.7000    313.8000
    120    119    124   1    109.5000    292.8800
    120    119    125   1    109.5000    292.8800
    124    119    125   1    107.8000    276.1440
    119    120    121   1    124.0000    585.7600
    119    120    126   1    117.0000    292.8800
    121    120    126   1    120.0000    292.8800
    120    121    122   1    124.0000    585.7600
    120    121    123   1    124.0000    585.7600
    122    121    123   1    117.9270    543.9200
    121    122    127   1    109.5000    292.8800
    121    122    128   1    109.5000    292.8800
    121    122    129   1    109.5000    292.8800
    127    122    128   1    107.8000    276.1440
    127    122    129   1    107.8000    276.1440
    128    122    129   1    107.8000    276.1440
    121    123    130   1    109.5000    292.8800
    121    123    131   1    109.5000    292.8800
    121    123    132   1    112.0270    585.7600
    130    123    131   1    107.8000    276.1440
    130    123    132   1    110.7000    313.8000
    131    123    132   1    110.7000    313.8000
    123    132    133   1    112.0270    585.7600
    123    132    137   1    110.7000    313.8000
    123    132    138   1    110.7000    313.8000
    133    132    137   1    109.5000    292.8800
    133    132    138   1    109.5000    292.8800
    137    132    138   1    107.8000    276.1440
    132    133    134   1    124.0000    585.7600
    132    133    139   1    117.0000    292.8800
    134    133    139   1    120.0000    292.8800
    133    134    135   1    124.0000    585.7600
    133    134    136   1    124.0000    585.7600
    135    134    136   1    117.9270    543.9200
    134    135    140   1    109.5000    292.8800
    134    135    141   1    109.5000    292.8800
    134    135    142   1    109.5000    292.8800
    140    135    141   1    107.8000    276.1440
    140    135    142   1    107.8000    276.1440
    141    135    142   1    107.8000    276.1440
    134    136    143   1    109.5000    292.8800
    134    136    144   1    109.5000    292.8800
    134    136    145   1    112.0270    585.7600
    143    136    144   1    107.8000    276.1440
    143    136    145   1    110.7000    313.8000
    144    136    145   1    110.7000    313.8000
    136    145    146   1    112.0270    585.7600
    136    145    150   1    110.7000    313.8000
    136    145    151   1    110.7000    313.8000
    146    145    150   1    109.5000    292.8800
    146    145    151   1    109.5000    292.8800
    150    145    151   1    107.8000    276.1440
    145    146    147   1    124.0000    585.7600
    145    146    152   1    117.0000    292.8800
    147    146    152   1    120.0000    292.8800
    146    147    148   1    124.0000    585.7600
    146    147    149   1    124.0000    585.7600
    148    147    149   1    117.9270    543.9200
    147    148    153   1    109.5000    292.8800
    147    148    154   1    109.5000    292.8800
    147    148    155   1    109.5000    292.8800
    153    148    154   1    107.8000    276.1440
    153    148    155   1    107.8000    276.1440
    154    148    155   1    107.8000    276.1440
    147    149    156   1    109.5000    292.8800
    147    149    157   1    109.5000    292.8800
    147    149    158   1    112.0270    585.7600
    156    149    157   1    107.8000    276.1440
    156    149    158   1    110.7000    313.8000
    157    149    158   1    110.7000    313.8000
    149    158    159   1    112.0270    585.7600
    149    158    163   1    110.7000    313.8000
    149    158    164   1    110.7000    313.8000
    159    158    163   1    109.5000    292.8800
    159    158    164   1    109.5000    292.8800
    163    158    164   1    107.8000    276.1440
    158    159    160   1    124.0000    585.7600
    158    159    165   1    117.0000    292.8800
    160    159    165   1    120.0000    292.8800
    159    160    161   1    124.0000    585.7600
    159    160    162   1    124.0000    585.7600
    161    160    162   1    117.9270    543.9200
    160    161    166   1    109.5000    292.8800
    160    161    167   1    109.5000    292.8800
    160    161    168   1    109.5000    292.8800
    166    161    167   1    107.8000    276.1440
    166    161    168   1    107.8000    276.1440
    167    161    168   1    107.8000    276.1440
    160    162    169   1    109.5000    292.8800
    160    162    170   1    109.5000    292.8800
    160    162    171   1    112.0270    585.7600
    169    162    170   1    107.8000    276.1440
    169    162    171   1    110.7000    313.8000
    170    162    171   1    110.7000    313.8000
    162    171    172   1    112.0270    585.7600
    162    171    176   1    110.7000    313.8000
    162    171    177   1    110.7000    313.8000
    172    171    176   1    109.5000    292.8800
    172    171    177   1    109.5000    292.8800
    176    171    177   1    107.8000    276.1440
    171    172    173   1    124.0000    585.7600
    171    172    178   1    117.0000    292.8800
    173    172    178   1    120.0000    292.8800
    172    173    174   1    124.0000    585.7600
    172    173    175   1    124.0000    585.7600
    174    173    175   1    117.9270    543.9200
    173    174    179   1    109.5000    292.8800
    173    174    180   1    109.5000    292.8800
    173    174    181   1    109.5000    292.8800
    179    174    180   1    107.8000    276.1440
    179    174    181   1    107.8000    276.1440
    180    174    181   1    107.8000    276.1440
    173    175    182   1    109.5000    292.8800
    173    175    183   1    109.5000    292.8800
    173    175    184   1    112.0270    585.7600
    182    175    183   1    107.8000    276.1440
    182    175    184   1    110.7000    313.8000
    183    175    184   1    110.7000    313.8000
    175    184    185   1    112.0270    585.7600
    175    184    189   1    110.7000    313.8000
    175    184    190   1    110.7000    313.8000
    185    184    189   1    109.5000    292.8800
    185    184    190   1    109.5000    292.8800
    189    184    190   1    107.8000    276.1440
    184    185    186   1    124.0000    585.7600
    184    185    191   1    117.0000    292.8800
    186    185    191   1    120.0000    292.8800
    185    186    187   1    124.0000    585.7600
    185    186    188   1    124.0000    585.7600
    187    186    188   1    117.9270    543.9200
    186    187    192   1    109.5000    292.8800
    186    187    193   1    109.5000    292.8800
    186    187    194   1    109.5000    292.8800
    192    187    193   1    107.8000    276.1440
    192    187    194   1    107.8000    276.1440
    193    187    194   1    107.8000    276.1440
    186    188    195   1    109.5000    292.8800
    186    188    196   1    109.5000    292.8800
    186    188    197   1    112.0270    585.7600
    195    188    196   1    107.8000    276.1440
    195    188    197   1    110.7000    313.8000
    196    188    197   1    110.7000    313.8000
    188    197    198   1    112.0270    585.7600
    188    197    202   1    110.7000    313.8000
    188    197    203   1    110.7000    313.8000
    198    197    202   1    109.5000    292.8800
    198    197    203   1    109.5000    292.8800
    202    197    203   1    107.8000    276.1440
    197    198    199   1    124.0000    585.7600
    197    198    204   1    117.0000    292.8800
    199    198    204   1    120.0000    292.8800
    198    199    200   1    124.0000    585.7600
    198    199    201   1    124.0000    585.7600
    200    199    201   1    117.9270    543.9200
    199    200    205   1    109.5000    292.8800
    199    200    206   1    109.5000    292.8800
    199    200    207   1    109.5000    292.8800
    205    200    206   1    107.8000    276.1440
    205    200    207   1    107.8000    276.1440
    206    200    207   1    107.8000    276.1440
    199    201    208   1    109.5000    292.8800
    199    201    209   1    109.5000    292.8800
    199    201    210   1    112.0270    585.7600
    208    201    209   1    107.8000    276.1440
    208    201    210   1    110.7000    313.8000
    209    201    210   1    110.7000    313.8000
    201    210    211   1    112.0270    585.7600
    201    210    215   1    110.7000    313.8000
    201    210    216   1    110.7000    313.8000
    211    210    215   1    109.5000    292.8800
    211    210    216   1    109.5000    292.8800
    215    210    216   1    107.8000    276.1440
    210    211    212   1    124.0000    585.7600
    210    211    217   1    117.0000    292.8800
    212    211    217   1    120.0000    292.8800
    211    212    213   1    124.0000    585.7600
    211    212    214   1    124.0000    585.7600
    213    212    214   1    117.9270    543.9200
    212    213    218   1    109.5000    292.8800
    212    213    219   1    109.5000    292.8800
    212    213    220   1    109.5000    292.8800
    218    213    219   1    107.8000    276.1440
    218    213    220   1    107.8000    276.1440
    219    213    220   1    107.8000    276.1440
    212    214    221   1    109.5000    292.8800
    212    214    222   1    109.5000    292.8800
    212    214    223   1    112.0270    585.7600
    221    214    222   1    107.8000    276.1440
    221    214    223   1    110.7000    313.8000
    222    214    223   1    110.7000    313.8000
    214    223    224   1    112.0270    585.7600
    214    223    228   1    110.7000    313.8000
    214    223    229   1    110.7000    313.8000
    224    223    228   1    109.5000    292.8800
    224    223    229   1    109.5000    292.8800
    228    223    229   1    107.8000    276.1440
    223    224    225   1    124.0000    585.7600
    223    224    230   1    117.0000    292.8800
    225    224    230   1    120.0000    292.8800
    224    225    226   1    124.0000    585.7600
    224    225    227   1    124.0000    585.7600
    226    225    227   1    117.9270    543.9200
    225    226    231   1    109.5000    292.8800
    225    226    232   1    109.5000    292.8800
    225    226    233   1    109.5000    292.8800
    231    226    232   1    107.8000    276.1440
    231    226    233   1    107.8000    276.1440
    232    226    233   1    107.8000    276.1440
    225    227    234   1    109.5000    292.8800
    225    227    235   1    109.5000    292.8800
    225    227    236   1    112.0270    585.7600
    234    227    235   1    107.8000    276.1440
    234    227    236   1    110.7000    313.8000
    235    227    236   1    110.7000    313.8000
    227    236    237   1    112.0270    585.7600
    227    236    241   1    110.7000    313.8000
    227    236    242   1    110.7000    313.8000
    237    236    241   1    109.5000    292.8800
    237    236    242   1    109.5000    292.8800
    241    236    242   1    107.8000    276.1440
    236    237    238   1    124.0000    585.7600
    236    237    243   1    117.0000    292.8800
    238    237    243   1    120.0000    292.8800
    237    238    239   1    124.0000    585.7600
    237    238    240   1    124.0000    585.7600
    239    238    240   1    117.9270    543.9200
    238    239    244   1    109.5000    292.8800
    238    239    245   1    109.5000    292.8800
    238    239    246   1    109.5000    292.8800
    244    239    245   1    107.8000    276.1440
    244    239    246   1    107.8000    276.1440
    245    239    246   1    107.8000    276.1440
    238    240    247   1    109.5000    292.8800
    238    240    248   1    109.5000    292.8800
    238    240    249   1    112.0270    585.7600
    247    240    248   1    107.8000    276.1440
    247    240    249   1    110.7000    313.8000
    248    240    249   1    110.7000    313.8000
    240    249    250   1    112.0270    585.7600
    240    249    254   1    110.7000    313.8000
    240    249    255   1    110.7000    313.8000
    250    249    254   1    109.5000    292.8800
    250    249    255   1    109.5000    292.8800
    254    249    255   1    107.8000    276.1440
    249    250    251   1    124.0000    585.7600
    249    250    256   1    117.0000    292.8800
    251    250    256   1    120.0000    292.8800
    250    251    252   1    124.0000    585.7600
    250    251    253   1    124.0000    585.7600
    252    251    253   1    117.9270    543.9200
    251    252    257   1    109.5000    292.8800
    251    252    258   1    109.5000    292.8800
    251    252    259   1    109.5000    292.8800
    257    252    258   1    107.8000    276.1440
    257    252    259   1    107.8000    276.1440
    258    252    259   1    107.8000    276.1440
    251    253    260   1    109.5000    292.8800
    251    253    261   1    109.5000    292.8800
    251    253    262   1    109.5000    292.8800
    260    253    261   1    107.8000    276.1440
    260    253    262   1    107.8000    276.1440
    261    253    262   1    107.8000    276.1440

[ dihedrals ]
; Proper dihedrals
      6      1      2      3   5     0.00000     0.00000     0.00000  0.0
      6      1      2      8   5     0.00000     0.00000     2.76981  0.0
      7      1      2      3   5     0.00000     0.00000     0.00000  0.0
      7      1      2      8   5     0.00000     0.00000     2.76981  0.0
     14      1      2      3   5     0.00000     0.00000     0.00000  0.0
     14      1      2      8   5     0.00000     0.00000     2.76981  0.0
      1      2      3      4   5     0.00000    58.57600     0.00000  0.0
      1      2      3      5   5     0.00000    58.57600     0.00000  0.0
      8      2      3      4   5     0.00000    58.57600     0.00000  0.0
      8      2      3      5   5     0.00000    58.57600     0.00000  0.0
      2      3      4      9   5     0.00000     0.00000     0.00000  0.0
      2      3      4     10   5     0.00000     0.00000     0.00000  0.0
      2      3      4     11   5     0.00000     0.00000     0.00000  0.0
      5      3      4      9   5     0.00000     0.00000     2.91206  0.0
      5      3      4     10   5     0.00000     0.00000     2.91206  0.0
      5      3      4     11   5     0.00000     0.00000     2.91206  0.0
      2      3      5     12   5     0.00000     0.00000     0.00000  0.0
      2      3      5     13   5     0.00000     0.00000     0.00000  0.0
      2      3      5     15   5     0.82425     1.27612    -4.23839  0.0
      4      3      5     12   5     0.00000     0.00000     2.91206  0.0
      4      3      5     13   5     0.00000     0.00000     2.91206  0.0
      4      3      5     15   5     3.92041     0.71546     0.82006  0.0
      3      5     15     16   5     2.59408     1.23010     0.63178  0.0
      3      5     15     20   5     0.00000     0.00000     1.25520  0.0
      3      5     15     21   5     0.00000     0.00000     1.25520  0.0
     12      5     15     16   5     0.00000     0.00000     1.25520  0.0
     12      5     15     20   5     0.00000     0.00000     1.25520  0.0
     12      5     15     21   5     0.00000     0.00000     1.25520  0.0
     13      5     15     16   5     0.00000     0.00000     1.25520  0.0
     13      5     15     20   5     0.00000     0.00000     1.25520  0.0
     13      5     15     21   5     0.00000     0.00000     1.25520  0.0
      5     15     16     17   5     0.82425     1.27612    -4.23839  0.0
      5     15     16     22   5     0.00000     0.00000     0.00000  0.0
     20     15     16     17   5     0.00000     0.00000     0.00000  0.0
     20     15     16     22   5     0.00000     0.00000     2.76981  0.0
     21     15     16     17   5     0.00000     0.00000     0.00000  0.0
     21     15     16     22   5     0.00000     0.00000     2.76981  0.0
     15     16     17     18   5     0.00000    58.57600     0.00000  0.0
     15     16     17     19   5     0.00000    58.57600     0.00000  0.0
     22     16     17     18   5     0.00000    58.57600     0.00000  0.0
     22     16     17     19   5     0.00000    58.57600     0.00000  0.0
     16     17     18     23   5     0.00000     0.00000     0.00000  0.0
     16     17     18     24   5     0.00000     0.00000     0.00000  0.0
     16     17     18     25   5     0.00000     0.00000     0.00000  0.0
     19     17     18     23   5     0.00000     0.00000     2.91206  0.0
     19     17     18     24   5     0.00000     0.00000     2.91206  0.0
     19     17     18     25   5     0.00000     0.00000     2.91206  0.0
     16     17     19     26   5     0.00000     0.00000     0.00000  0.0
     16     17     19     27   5     0.00000     0.00000     0.00000  0.0
     16     17     19     28   5     0.82425     1.27612    -4.23839  0.0
     18     17     19     26   5     0.00000     0.00000     2.91206  0.0
     18     17     19     27   5     0.00000     0.00000     2.91206  0.0
     18     17     19     28   5     3.92041     0.71546     0.82006  0.0
     17     19     28     29   5     2.59408     1.23010     0.63178  0.0
     17     19     28     33   5     0.00000     0.00000     1.25520  0.0
     17     19     28     34   5     0.00000     0.00000     1.25520  0.0
     26     19     28     29   5     0.00000     0.00000     1.25520  0.0
     26     19     28     33   5     0.00000     0.00000     1.25520  0.0
     26     19     28     34   5     0.00000     0.00000     1.25520  0.0
     27     19     28     29   5     0.00000     0.00000     1.25520  0.0
     27     19     28     33   5     0.00000     0.00000     1.25520  0.0
     27     19     28     34   5     0.00000     0.00000     1.25520  0.0
     19     28     29     30   5     0.82425     1.27612    -4.23839  0.0
     19     28     29     35   5     0.00000     0.00000     0.00000  0.0
     33     28     29     30   5     0.00000     0.00000     0.00000  0.0
     33     28     29     35   5     0.00000     0.00000     2.76981  0.0
     34     28     29     30   5     0.00000     0.00000     0.00000  0.0
     34     28     29     35   5     0.00000     0.00000     2.76981  0.0
     28     29     30     31   5     0.00000    58.57600     0.00000  0.0
     28     29     30     32   5     0.00000    58.57600     0.00000  0.0
     35     29     30     31   5     0.00000    58.57600     0.00000  0.0
     35     29     30     32   5     0.00000    58.57600     0.00000  0.0
     29     30     31     36   5     0.00000     0.00000     0.00000  0.0
     29     30     31     37   5     0.00000     0.00000     0.00000  0.0
     29     30     31     38   5     0.00000     0.00000     0.00000  0.0
     32     30     31     36   5     0.00000     0.00000     2.91206  0.0
     32     30     31     37   5     0.00000     0.00000     2.91206  0.0
     32     30     31     38   5     0.00000     0.00000     2.91206  0.0
     29     30     32     39   5     0.00000     0.00000     0.00000  0.0
     29     30     32     40   5     0.00000     0.00000     0.00000  0.0
     29     30     32     41   5     0.82425     1.27612    -4.23839  0.0
     31     30     32     39   5     0.00000     0.00000     2.91206  0.0
     31     30     32     40   5     0.00000     0.00000     2.91206  0.0
     31     30     32     41   5     3.92041     0.71546     0.82006  0.0
     30     32     41     42   5     2.59408     1.23010     0.63178  0.0
     30     32     41     46   5     0.00000     0.00000     1.25520  0.0
     30     32     41     47   5     0.00000     0.00000     1.25520  0.0
     39     32     41     42   5     0.00000     0.00000     1.25520  0.0
     39     32     41     46   5     0.00000     0.00000     1.25520  0.0
     39     32     41     47   5     0.00000     0.00000     1.25520  0.0
     40     32     41     42   5     0.00000     0.00000     1.25520  0.0
     40     32     41     46   5     0.00000     0.00000     1.25520  0.0
     40     32     41     47   5     0.00000     0.00000     1.25520  0.0
     32     41     42     43   5     0.82425     1.27612    -4.23839  0.0
     32     41     42     48   5     0.00000     0.00000     0.00000  0.0
     46     41     42     43   5     0.00000     0.00000     0.00000  0.0
     46     41     42     48   5     0.00000     0.00000     2.76981  0.0
     47     41     42     43   5     0.00000     0.00000     0.00000  0.0
     47     41     42     48   5     0.00000     0.00000     2.76981  0.0
     41     42     43     44   5     0.00000    58.57600     0.00000  0.0
     41     42     43     45   5     0.00000    58.57600     0.00000  0.0
     48     42     43     44   5     0.00000    58.57600     0.00000  0.0
     48     42     43     45   5     0.00000    58.57600     0.00000  0.0
     42     43     44     49   5     0.00000     0.00000     0.00000  0.0
     42     43     44     50   5     0.00000     0.00000     0.00000  0.0
     42     43     44     51   5     0.00000     0.00000     0.00000  0.0
     45     43     44     49   5     0.00000     0.00000     2.91206  0.0
     45     43     44     50   5     0.00000     0.00000     2.91206  0.0
     45     43     44     51   5     0.00000     0.00000     2.91206  0.0
     42     43     45     52   5     0.00000     0.00000     0.00000  0.0
     42     43     45     53   5     0.00000     0.00000     0.00000  0.0
     42     43     45     54   5     0.82425     1.27612    -4.23839  0.0
     44     43     45     52   5     0.00000     0.00000     2.91206  0.0
     44     43     45     53   5     0.00000     0.00000     2.91206  0.0
     44     43     45     54   5     3.92041     0.71546     0.82006  0.0
     43     45     54     55   5     2.59408     1.23010     0.63178  0.0
     43     45     54     59   5     0.00000     0.00000     1.25520  0.0
     43     45     54     60   5     0.00000     0.00000     1.25520  0.0
     52     45     54     55   5     0.00000     0.00000     1.25520  0.0
     52     45     54     59   5     0.00000     0.00000     1.25520  0.0
     52     45     54     60   5     0.00000     0.00000     1.25520  0.0
     53     45     54     55   5     0.00000     0.00000     1.25520  0.0
     53     45     54     59   5     0.00000     0.00000     1.25520  0.0
     53     45     54     60   5     0.00000     0.00000     1.25520  0.0
     45     54     55     56   5     0.82425     1.27612    -4.23839  0.0
     45     54     55     61   5     0.00000     0.00000     0.00000  0.0
     59     54     55     56   5     0.00000     0.00000     0.00000  0.0
     59     54     55     61   5     0.00000     0.00000     2.76981  0.0
     60     54     55     56   5     0.00000     0.00000     0.00000  0.0
     60     54     55     61   5     0.00000     0.00000     2.76981  0.0
     54     55     56     57   5     0.00000    58.57600     0.00000  0.0
     54     55     56     58   5     0.00000    58.57600     0.00000  0.0
     61     55     56     57   5     0.00000    58.57600     0.00000  0.0
     61     55     56     58   5     0.00000    58.57600     0.00000  0.0
     55     56     57     62   5     0.00000     0.00000     0.00000  0.0
     55     56     57     63   5     0.00000     0.00000     0.00000  0.0
     55     56     57     64   5     0.00000     0.00000     0.00000  0.0
     58     56     57     62   5     0.00000     0.00000     2.91206  0.0
     58     56     57     63   5     0.00000     0.00000     2.91206  0.0
     58     56     57     64   5     0.00000     0.00000     2.91206  0.0
     55     56     58     65   5     0.00000     0.00000     0.00000  0.0
     55     56     58     66   5     0.00000     0.00000     0.00000  0.0
     55     56     58     67   5     0.82425     1.27612    -4.23839  0.0
     57     56     58     65   5     0.00000     0.00000     2.91206  0.0
     57     56     58     66   5     0.00000     0.00000     2.91206  0.0
     57     56     58     67   5     3.92041     0.71546     0.82006  0.0
     56     58     67     68   5     2.59408     1.23010     0.63178  0.0
     56     58     67     72   5     0.00000     0.00000     1.25520  0.0
     56     58     67     73   5     0.00000     0.00000     1.25520  0.0
     65     58     67     68   5     0.00000     0.00000     1.25520  0.0
     65     58     67     72   5     0.00000     0.00000     1.25520  0.0
     65     58     67     73   5     0.00000     0.00000     1.25520  0.0
     66     58     67     68   5     0.00000     0.00000     1.25520  0.0
     66     58     67     72   5     0.00000     0.00000     1.25520  0.0
     66     58     67     73   5     0.00000     0.00000     1.25520  0.0
     58     67     68     69   5     0.82425     1.27612    -4.23839  0.0
     58     67     68     74   5     0.00000     0.00000     0.00000  0.0
     72     67     68     69   5     0.00000     0.00000     0.00000  0.0
     72     67     68     74   5     0.00000     0.00000     2.76981  0.0
     73     67     68     69   5     0.00000     0.00000     0.00000  0.0
     73     67     68     74   5     0.00000     0.00000     2.76981  0.0
     67     68     69     70   5     0.00000    58.57600     0.00000  0.0
     67     68     69     71   5     0.00000    58.57600     0.00000  0.0
     74     68     69     70   5     0.00000    58.57600     0.00000  0.0
     74     68     69     71   5     0.00000    58.57600     0.00000  0.0
     68     69     70     75   5     0.00000     0.00000     0.00000  0.0
     68     69     70     76   5     0.00000     0.00000     0.00000  0.0
     68     69     70     77   5     0.00000     0.00000     0.00000  0.0
     71     69     70     75   5     0.00000     0.00000     2.91206  0.0
     71     69     70     76   5     0.00000     0.00000     2.91206  0.0
     71     69     70     77   5     0.00000     0.00000     2.91206  0.0
     68     69     71     78   5     0.00000     0.00000     0.00000  0.0
     68     69     71     79   5     0.00000     0.00000     0.00000  0.0
     68     69     71     80   5     0.82425     1.27612    -4.23839  0.0
     70     69     71     78   5     0.00000     0.00000     2.91206  0.0
     70     69     71     79   5     0.00000     0.00000     2.91206  0.0
     70     69     71     80   5     3.92041     0.71546     0.82006  0.0
     69     71     80     81   5     2.59408     1.23010     0.63178  0.0
     69     71     80     85   5     0.00000     0.00000     1.25520  0.0
     69     71     80     86   5     0.00000     0.00000     1.25520  0.0
     78     71     80     81   5     0.00000     0.00000     1.25520  0.0
     78     71     80     85   5     0.00000     0.00000     1.25520  0.0
     78     71     80     86   5     0.00000     0.00000     1.25520  0.0
     79     71     80     81   5     0.00000     0.00000     1.25520  0.0
     79     71     80     85   5     0.00000     0.00000     1.25520  0.0
     79     71     80     86   5     0.00000     0.00000     1.25520  0.0
     71     80     81     82   5     0.82425     1.27612    -4.23839  0.0
     71     80     81     87   5     0.00000     0.00000     0.00000  0.0
     85     80     81     82   5     0.00000     0.00000     0.00000  0.0
     85     80     81     87   5     0.00000     0.00000     2.76981  0.0
     86     80     81     82   5     0.00000     0.00000     0.00000  0.0
     86     80     81     87   5     0.00000     0.00000     2.76981  0.0
     80     81     82     83   5     0.00000    58.57600     0.00000  0.0
     80     81     82     84   5     0.00000    58.57600     0.00000  0.0
     87     81     82     83   5     0.00000    58.57600     0.00000  0.0
     87     81     82     84   5     0.00000    58.57600     0.00000  0.0
     81     82     83     88   5     0.00000     0.00000     0.00000  0.0
     81     82     83     89   5     0.00000     0.00000     0.00000  0.0
     81     82     83     90   5     0.00000     0.00000     0.00000  0.0
     84     82     83     88   5     0.00000     0.00000     2.91206  0.0
     84     82     83     89   5     0.00000     0.00000     2.91206  0.0
     84     82     83     90   5     0.00000     0.00000     2.91206  0.0
     81     82     84     91   5     0.00000     0.00000     0.00000  0.0
     81     82     84     92   5     0.00000     0.00000     0.00000  0.0
     81     82     84     93   5     0.82425     1.27612    -4.23839  0.0
     83     82     84     91   5     0.00000     0.00000     2.91206  0.0
     83     82     84     92   5     0.00000     0.00000     2.91206  0.0
     83     82     84     93   5     3.92041     0.71546     0.82006  0.0
     82     84     93     94   5     2.59408     1.23010     0.63178  0.0
     82     84     93     98   5     0.00000     0.00000     1.25520  0.0
     82     84     93     99   5     0.00000     0.00000     1.25520  0.0
     91     84     93     94   5     0.00000     0.00000     1.25520  0.0
     91     84     93     98   5     0.00000     0.00000     1.25520  0.0
     91     84     93     99   5     0.00000     0.00000     1.25520  0.0
     92     84     93     94   5     0.00000     0.00000     1.25520  0.0
     92     84     93     98   5     0.00000     0.00000     1.25520  0.0
     92     84     93     99   5     0.00000     0.00000     1.25520  0.0
     84     93     94     95   5     0.82425     1.27612    -4.23839  0.0
     84     93     94    100   5     0.00000     0.00000     0.00000  0.0
     98     93     94     95   5     0.00000     0.00000     0.00000  0.0
     98     93     94    100   5     0.00000     0.00000     2.76981  0.0
     99     93     94     95   5     0.00000     0.00000     0.00000  0.0
     99     93     94    100   5     0.00000     0.00000     2.76981  0.0
     93     94     95     96   5     0.00000    58.57600     0.00000  0.0
     93     94     95     97   5     0.00000    58.57600     0.00000  0.0
    100     94     95     96   5     0.00000    58.57600     0.00000  0.0
    100     94     95     97   5     0.00000    58.57600     0.00000  0.0
     94     95     96    101   5     0.00000     0.00000     0.00000  0.0
     94     95     96    102   5     0.00000     0.00000     0.00000  0.0
     94     95     96    103   5     0.00000     0.00000     0.00000  0.0
     97     95     96    101   5     0.00000     0.00000     2.91206  0.0
     97     95     96    102   5     0.00000     0.00000     2.91206  0.0
     97     95     96    103   5     0.00000     0.00000     2.91206  0.0
     94     95     97    104   5     0.00000     0.00000     0.00000  0.0
     94     95     97    105   5     0.00000     0.00000     0.00000  0.0
     94     95     97    106   5     0.82425     1.27612    -4.23839  0.0
     96     95     97    104   5     0.00000     0.00000     2.91206  0.0
     96     95     97    105   5     0.00000     0.00000     2.91206  0.0
     96     95     97    106   5     3.92041     0.71546     0.82006  0.0
     95     97    106    107   5     2.59408     1.23010     0.63178  0.0
     95     97    106    111   5     0.00000     0.00000     1.25520  0.0
     95     97    106    112   5     0.00000     0.00000     1.25520  0.0
    104     97    106    107   5     0.00000     0.00000     1.25520  0.0
    104     97    106    111   5     0.00000     0.00000     1.25520  0.0
    104     97    106    112   5     0.00000     0.00000     1.25520  0.0
    105     97    106    107   5     0.00000     0.00000     1.25520  0.0
    105     97    106    111   5     0.00000     0.00000     1.25520  0.0
    105     97    106    112   5     0.00000     0.00000     1.25520  0.0
     97    106    107    108   5     0.82425     1.27612    -4.23839  0.0
     97    106    107    113   5     0.00000     0.00000     0.00000  0.0
    111    106    107    108   5     0.00000     0.00000     0.00000  0.0
    111    106    107    113   5     0.00000     0.00000     2.76981  0.0
    112    106    107    108   5     0.00000     0.00000     0.00000  0.0
    112    106    107    113   5     0.00000     0.00000     2.76981  0.0
    106    107    108    109   5     0.00000    58.57600     0.00000  0.0
    106    107    108    110   5     0.00000    58.57600     0.00000  0.0
    113    107    108    109   5     0.00000    58.57600     0.00000  0.0
    113    107    108    110   5     0.00000    58.57600     0.00000  0.0
    107    108    109    114   5     0.00000     0.00000     0.00000  0.0
    107    108    109    115   5     0.00000     0.00000     0.00000  0.0
    107    108    109    116   5     0.00000     0.00000     0.00000  0.0
    110    108    109    114   5     0.00000     0.00000     2.91206  0.0
    110    108    109    115   5     0.00000     0.00000     2.91206  0.0
    110    108    109    116   5     0.00000     0.00000     2.91206  0.0
    107    108    110    117   5     0.00000     0.00000     0.00000  0.0
    107    108    110    118   5     0.00000     0.00000     0.00000  0.0
    107    108    110    119   5     0.82425     1.27612    -4.23839  0.0
    109    108    110    117   5     0.00000     0.00000     2.91206  0.0
    109    108    110    118   5     0.00000     0.00000     2.91206  0.0
    109    108    110    119   5     3.92041     0.71546     0.82006  0.0
    108    110    119    120   5     2.59408     1.23010     0.63178  0.0
    108    110    119    124   5     0.00000     0.00000     1.25520  0.0
    108    110    119    125   5     0.00000     0.00000     1.25520  0.0
    117    110    119    120   5     0.00000     0.00000     1.25520  0.0
    117    110    119    124   5     0.00000     0.00000     1.25520  0.0
    117    110    119    125   5     0.00000     0.00000     1.25520  0.0
    118    110    119    120   5     0.00000     0.00000     1.25520  0.0
    118    110    119    124   5     0.00000     0.00000     1.25520  0.0
    118    110    119    125   5     0.00000     0.00000     1.25520  0.0
    110    119    120    121   5     0.82425     1.27612    -4.23839  0.0
    110    119    120    126   5     0.00000     0.00000     0.00000  0.0
    124    119    120    121   5     0.00000     0.00000     0.00000  0.0
    124    119    120    126   5     0.00000     0.00000     2.76981  0.0
    125    119    120    121   5     0.00000     0.00000     0.00000  0.0
    125    119    120    126   5     0.00000     0.00000     2.76981  0.0
    119    120    121    122   5     0.00000    58.57600     0.00000  0.0
    119    120    121    123   5     0.00000    58.57600     0.00000  0.0
    126    120    121    122   5     0.00000    58.57600     0.00000  0.0
    126    120    121    123   5     0.00000    58.57600     0.00000  0.0
    120    121    122    127   5     0.00000     0.00000     0.00000  0.0
    120    121    122    128   5     0.00000     0.00000     0.00000  0.0
    120    121    122    129   5     0.00000     0.00000     0.00000  0.0
    123    121    122    127   5     0.00000     0.00000     2.91206  0.0
    123    121    122    128   5     0.00000     0.00000     2.91206  0.0
    123    121    122    129   5     0.00000     0.00000     2.91206  0.0
    120    121    123    130   5     0.00000     0.00000     0.00000  0.0
    120    121    123    131   5     0.00000     0.00000     0.00000  0.0
    120    121    123    132   5     0.82425     1.27612    -4.23839  0.0
    122    121    123    130   5     0.00000     0.00000     2.91206  0.0
    122    121    123    131   5     0.00000     0.00000     2.91206  0.0
    122    121    123    132   5     3.92041     0.71546     0.82006  0.0
    121    123    132    133   5     2.59408     1.23010     0.63178  0.0
    121    123    132    137   5     0.00000     0.00000     1.25520  0.0
    121    123    132    138   5     0.00000     0.00000     1.25520  0.0
    130    123    132    133   5     0.00000     0.00000     1.25520  0.0
    130    123    132    137   5     0.00000     0.00000     1.25520  0.0
    130    123    132    138   5     0.00000     0.00000     1.25520  0.0
    131    123    132    133   5     0.00000     0.00000     1.25520  0.0
    131    123    132    137   5     0.00000     0.00000     1.25520  0.0
    131    123    132    138   5     0.00000     0.00000     1.25520  0.0
    123    132    133    134   5     0.82425     1.27612    -4.23839  0.0
    123    132    133    139   5     0.00000     0.00000     0.00000  0.0
    137    132    133    134   5     0.00000     0.00000     0.00000  0.0
    137    132    133    139   5     0.00000     0.00000     2.76981  0.0
    138    132    133    134   5     0.00000     0.00000     0.00000  0.0
    138    132    133    139   5     0.00000     0.00000     2.76981  0.0
    132    133    134    135   5     0.00000    58.57600     0.00000  0.0
    132    133    134    136   5     0.00000    58.57600     0.00000  0.0
    139    133    134    135   5     0.00000    58.57600     0.00000  0.0
    139    133    134    136   5     0.00000    58.57600     0.00000  0.0
    133    134    135    140   5     0.00000     0.00000     0.00000  0.0
    133    134    135    141   5     0.00000     0.00000     0.00000  0.0
    133    134    135    142   5     0.00000     0.00000     0.00000  0.0
    136    134    135    140   5     0.00000     0.00000     2.91206  0.0
    136    134    135    141   5     0.00000     0.00000     2.91206  0.0
    136    134    135    142   5     0.00000     0.00000     2.91206  0.0
    133    134    136    143   5     0.00000     0.00000     0.00000  0.0
    133    134    136    144   5     0.00000     0.00000     0.00000  0.0
    133    134    136    145   5     0.82425     1.27612    -4.23839  0.0
    135    134    136    143   5     0.00000     0.00000     2.91206  0.0
    135    134    136    144   5     0.00000     0.00000     2.91206  0.0
    135    134    136    145   5     3.92041     0.71546     0.82006  0.0
    134    136    145    146   5     2.59408     1.23010     0.63178  0.0
    134    136    145    150   5     0.00000     0.00000     1.25520  0.0
    134    136    145    151   5     0.00000     0.00000     1.25520  0.0
    143    136    145    146   5     0.00000     0.00000     1.25520  0.0
    143    136    145    150   5     0.00000     0.00000     1.25520  0.0
    143    136    145    151   5     0.00000     0.00000     1.25520  0.0
    144    136    145    146   5     0.00000     0.00000     1.25520  0.0
    144    136    145    150   5     0.00000     0.00000     1.25520  0.0
    144    136    145    151   5     0.00000     0.00000     1.25520  0.0
    136    145    146    147   5     0.82425     1.27612    -4.23839  0.0
    136    145    146    152   5     0.00000     0.00000     0.00000  0.0
    150    145    146    147   5     0.00000     0.00000     0.00000  0.0
    150    145    146    152   5     0.00000     0.00000     2.76981  0.0
    151    145    146    147   5     0.00000     0.00000     0.00000  0.0
    151    145    146    152   5     0.00000     0.00000     2.76981  0.0
    145    146    147    148   5     0.00000    58.57600     0.00000  0.0
    145    146    147    149   5     0.00000    58.57600     0.00000  0.0
    152    146    147    148   5     0.00000    58.57600     0.00000  0.0
    152    146    147    149   5     0.00000    58.57600     0.00000  0.0
    146    147    148    153   5     0.00000     0.00000     0.00000  0.0
    146    147    148    154   5     0.00000     0.00000     0.00000  0.0
    146    147    148    155   5     0.00000     0.00000     0.00000  0.0
    149    147    148    153   5     0.00000     0.00000     2.91206  0.0
    149    147    148    154   5     0.00000     0.00000     2.91206  0.0
    149    147    148    155   5     0.00000     0.00000     2.91206  0.0
    146    147    149    156   5     0.00000     0.00000     0.00000  0.0
    146    147    149    157   5     0.00000     0.00000     0.00000  0.0
    146    147    149    158   5     0.82425     1.27612    -4.23839  0.0
    148    147    149    156   5     0.00000     0.00000     2.91206  0.0
    148    147    149    157   5     0.00000     0.00000     2.91206  0.0
    148    147    149    158   5     3.92041     0.71546     0.82006  0.0
    147    149    158    159   5     2.59408     1.23010     0.63178  0.0
    147    149    158    163   5     0.00000     0.00000     1.25520  0.0
    147    149    158    164   5     0.00000     0.00000     1.25520  0.0
    156    149    158    159   5     0.00000     0.00000     1.25520  0.0
    156    149    158    163   5     0.00000     0.00000     1.25520  0.0
    156    149    158    164   5     0.00000     0.00000     1.25520  0.0
    157    149    158    159   5     0.00000     0.00000     1.25520  0.0
    157    149    158    163   5     0.00000     0.00000     1.25520  0.0
    157    149    158    164   5     0.00000     0.00000     1.25520  0.0
    149    158    159    160   5     0.82425     1.27612    -4.23839  0.0
    149    158    159    165   5     0.00000     0.00000     0.00000  0.0
    163    158    159    160   5     0.00000     0.00000     0.00000  0.0
    163    158    159    165   5     0.00000     0.00000     2.76981  0.0
    164    158    159    160   5     0.00000     0.00000     0.00000  0.0
    164    158    159    165   5     0.00000     0.00000     2.76981  0.0
    158    159    160    161   5     0.00000    58.57600     0.00000  0.0
    158    159    160    162   5     0.00000    58.57600     0.00000  0.0
    165    159    160    161   5     0.00000    58.57600     0.00000  0.0
    165    159    160    162   5     0.00000    58.57600     0.00000  0.0
    159    160    161    166   5     0.00000     0.00000     0.00000  0.0
    159    160    161    167   5     0.00000     0.00000     0.00000  0.0
    159    160    161    168   5     0.00000     0.00000     0.00000  0.0
    162    160    161    166   5     0.00000     0.00000     2.91206  0.0
    162    160    161    167   5     0.00000     0.00000     2.91206  0.0
    162    160    161    168   5     0.00000     0.00000     2.91206  0.0
    159    160    162    169   5     0.00000     0.00000     0.00000  0.0
    159    160    162    170   5     0.00000     0.00000     0.00000  0.0
    159    160    162    171   5     0.82425     1.27612    -4.23839  0.0
    161    160    162    169   5     0.00000     0.00000     2.91206  0.0
    161    160    162    170   5     0.00000     0.00000     2.91206  0.0
    161    160    162    171   5     3.92041     0.71546     0.82006  0.0
    160    162    171    172   5     2.59408     1.23010     0.63178  0.0
    160    162    171    176   5     0.00000     0.00000     1.25520  0.0
    160    162    171    177   5     0.00000     0.00000     1.25520  0.0
    169    162    171    172   5     0.00000     0.00000     1.25520  0.0
    169    162    171    176   5     0.00000     0.00000     1.25520  0.0
    169    162    171    177   5     0.00000     0.00000     1.25520  0.0
    170    162    171    172   5     0.00000     0.00000     1.25520  0.0
    170    162    171    176   5     0.00000     0.00000     1.25520  0.0
    170    162    171    177   5     0.00000     0.00000     1.25520  0.0
    162    171    172    173   5     0.82425     1.27612    -4.23839  0.0
    162    171    172    178   5     0.00000     0.00000     0.00000  0.0
    176    171    172    173   5     0.00000     0.00000     0.00000  0.0
    176    171    172    178   5     0.00000     0.00000     2.76981  0.0
    177    171    172    173   5     0.00000     0.00000     0.00000  0.0
    177    171    172    178   5     0.00000     0.00000     2.76981  0.0
    171    172    173    174   5     0.00000    58.57600     0.00000  0.0
    171    172    173    175   5     0.00000    58.57600     0.00000  0.0
    178    172    173    174   5     0.00000    58.57600     0.00000  0.0
    178    172    173    175   5     0.00000    58.57600     0.00000  0.0
    172    173    174    179   5     0.00000     0.00000     0.00000  0.0
    172    173    174    180   5     0.00000     0.00000     0.00000  0.0
    172    173    174    181   5     0.00000     0.00000     0.00000  0.0
    175    173    174    179   5     0.00000     0.00000     2.91206  0.0
    175    173    174    180   5     0.00000     0.00000     2.91206  0.0
    175    173    174    181   5     0.00000     0.00000     2.91206  0.0
    172    173    175    182   5     0.00000     0.00000     0.00000  0.0
    172    173    175    183   5     0.00000     0.00000     0.00000  0.0
    172    173    175    184   5     0.82425     1.27612    -4.23839  0.0
    174    173    175    182   5     0.00000     0.00000     2.91206  0.0
    174    173    175    183   5     0.00000     0.00000     2.91206  0.0
    174    173    175    184   5     3.92041     0.71546     0.82006  0.0
    173    175    184    185   5     2.59408     1.23010     0.63178  0.0
    173    175    184    189   5     0.00000     0.00000     1.25520  0.0
    173    175    184    190   5     0.00000     0.00000     1.25520  0.0
    182    175    184    185   5     0.00000     0.00000     1.25520  0.0
    182    175    184    189   5     0.00000     0.00000     1.25520  0.0
    182    175    184    190   5     0.00000     0.00000     1.25520  0.0
    183    175    184    185   5     0.00000     0.00000     1.25520  0.0
    183    175    184    189   5     0.00000     0.00000     1.25520  0.0
    183    175    184    190   5     0.00000     0.00000     1.25520  0.0
    175    184    185    186   5     0.82425     1.27612    -4.23839  0.0
    175    184    185    191   5     0.00000     0.00000     0.00000  0.0
    189    184    185    186   5     0.00000     0.00000     0.00000  0.0
    189    184    185    191   5     0.00000     0.00000     2.76981  0.0
    190    184    185    186   5     0.00000     0.00000     0.00000  0.0
    190    184    185    191   5     0.00000     0.00000     2.76981  0.0
    184    185    186    187   5     0.00000    58.57600     0.00000  0.0
    184    185    186    188   5     0.00000    58.57600     0.00000  0.0
    191    185    186    187   5     0.00000    58.57600     0.00000  0.0
    191    185    186    188   5     0.00000    58.57600     0.00000  0.0
    185    186    187    192   5     0.00000     0.00000     0.00000  0.0
    185    186    187    193   5     0.00000     0.00000     0.00000  0.0
    185    186    187    194   5     0.00000     0.00000     0.00000  0.0
    188    186    187    192   5     0.00000     0.00000     2.91206  0.0
    188    186    187    193   5     0.00000     0.00000     2.91206  0.0
    188    186    187    194   5     0.00000     0.00000     2.91206  0.0
    185    186    188    195   5     0.00000     0.00000     0.00000  0.0
    185    186    188    196   5     0.00000     0.00000     0.00000  0.0
    185    186    188    197   5     0.82425     1.27612    -4.23839  0.0
    187    186    188    195   5     0.00000     0.00000     2.91206  0.0
    187    186    188    196   5     0.00000     0.00000     2.91206  0.0
    187    186    188    197   5     3.92041     0.71546     0.82006  0.0
    186    188    197    198   5     2.59408     1.23010     0.63178  0.0
    186    188    197    202   5     0.00000     0.00000     1.25520  0.0
    186    188    197    203   5     0.00000     0.00000     1.25520  0.0
    195    188    197    198   5     0.00000     0.00000     1.25520  0.0
    195    188    197    202   5     0.00000     0.00000     1.25520  0.0
    195    188    197    203   5     0.00000     0.00000     1.25520  0.0
    196    188    197    198   5     0.00000     0.00000     1.25520  0.0
    196    188    197    202   5     0.00000     0.00000     1.25520  0.0
    196    188    197    203   5     0.00000     0.00000     1.25520  0.0
    188    197    198    199   5     0.82425     1.27612    -4.23839  0.0
    188    197    198    204   5     0.00000     0.00000     0.00000  0.0
    202    197    198    199   5     0.00000     0.00000     0.00000  0.0
    202    197    198    204   5     0.00000     0.00000     2.76981  0.0
    203    197    198    199   5     0.00000     0.00000     0.00000  0.0
    203    197    198    204   5     0.00000     0.00000     2.76981  0.0
    197    198    199    200   5     0.00000    58.57600     0.00000  0.0
    197    198    199    201   5     0.00000    58.57600     0.00000  0.0
    204    198    199    200   5     0.00000    58.57600     0.00000  0.0
    204    198    199    201   5     0.00000    58.57600     0.00000  0.0
    198    199    200    205   5     0.00000     0.00000     0.00000  0.0
    198    199    200    206   5     0.00000     0.00000     0.00000  0.0
    198    199    200    207   5     0.00000     0.00000     0.00000  0.0
    201    199    200    205   5     0.00000     0.00000     2.91206  0.0
    201    199    200    206   5     0.00000     0.00000     2.91206  0.0
    201    199    200    207   5     0.00000     0.00000     2.91206  0.0
    198    199    201    208   5     0.00000     0.00000     0.00000  0.0
    198    199    201    209   5     0.00000     0.00000     0.00000  0.0
    198    199    201    210   5     0.82425     1.27612    -4.23839  0.0
    200    199    201    208   5     0.00000     0.00000     2.91206  0.0
    200    199    201    209   5     0.00000     0.00000     2.91206  0.0
    200    199    201    210   5     3.92041     0.71546     0.82006  0.0
    199    201    210    211   5     2.59408     1.23010     0.63178  0.0
    199    201    210    215   5     0.00000     0.00000     1.25520  0.0
    199    201    210    216   5     0.00000     0.00000     1.25520  0.0
    208    201    210    211   5     0.00000     0.00000     1.25520  0.0
    208    201    210    215   5     0.00000     0.00000     1.25520  0.0
    208    201    210    216   5     0.00000     0.00000     1.25520  0.0
    209    201    210    211   5     0.00000     0.00000     1.25520  0.0
    209    201    210    215   5     0.00000     0.00000     1.25520  0.0
    209    201    210    216   5     0.00000     0.00000     1.25520  0.0
    201    210    211    212   5     0.82425     1.27612    -4.23839  0.0
    201    210    211    217   5     0.00000     0.00000     0.00000  0.0
    215    210    211    212   5     0.00000     0.00000     0.00000  0.0
    215    210    211    217   5     0.00000     0.00000     2.76981  0.0
    216    210    211    212   5     0.00000     0.00000     0.00000  0.0
    216    210    211    217   5     0.00000     0.00000     2.76981  0.0
    210    211    212    213   5     0.00000    58.57600     0.00000  0.0
    210    211    212    214   5     0.00000    58.57600     0.00000  0.0
    217    211    212    213   5     0.00000    58.57600     0.00000  0.0
    217    211    212    214   5     0.00000    58.57600     0.00000  0.0
    211    212    213    218   5     0.00000     0.00000     0.00000  0.0
    211    212    213    219   5     0.00000     0.00000     0.00000  0.0
    211    212    213    220   5     0.00000     0.00000     0.00000  0.0
    214    212    213    218   5     0.00000     0.00000     2.91206  0.0
    214    212    213    219   5     0.00000     0.00000     2.91206  0.0
    214    212    213    220   5     0.00000     0.00000     2.91206  0.0
    211    212    214    221   5     0.00000     0.00000     0.00000  0.0
    211    212    214    222   5     0.00000     0.00000     0.00000  0.0
    211    212    214    223   5     0.82425     1.27612    -4.23839  0.0
    213    212    214    221   5     0.00000     0.00000     2.91206  0.0
    213    212    214    222   5     0.00000     0.00000     2.91206  0.0
    213    212    214    223   5     3.92041     0.71546     0.82006  0.0
    212    214    223    224   5     2.59408     1.23010     0.63178  0.0
    212    214    223    228   5     0.00000     0.00000     1.25520  0.0
    212    214    223    229   5     0.00000     0.00000     1.25520  0.0
    221    214    223    224   5     0.00000     0.00000     1.25520  0.0
    221    214    223    228   5     0.00000     0.00000     1.25520  0.0
    221    214    223    229   5     0.00000     0.00000     1.25520  0.0
    222    214    223    224   5     0.00000     0.00000     1.25520  0.0
    222    214    223    228   5     0.00000     0.00000     1.25520  0.0
    222    214    223    229   5     0.00000     0.00000     1.25520  0.0
    214    223    224    225   5     0.82425     1.27612    -4.23839  0.0
    214    223    224    230   5     0.00000     0.00000     0.00000  0.0
    228    223    224    225   5     0.00000     0.00000     0.00000  0.0
    228    223    224    230   5     0.00000     0.00000     2.76981  0.0
    229    223    224    225   5     0.00000     0.00000     0.00000  0.0
    229    223    224    230   5     0.00000     0.00000     2.76981  0.0
    223    224    225    226   5     0.00000    58.57600     0.00000  0.0
    223    224    225    227   5     0.00000    58.57600     0.00000  0.0
    230    224    225    226   5     0.00000    58.57600     0.00000  0.0
    230    224    225    227   5     0.00000    58.57600     0.00000  0.0
    224    225    226    231   5     0.00000     0.00000     0.00000  0.0
    224    225    226    232   5     0.00000     0.00000     0.00000  0.0
    224    225    226    233   5     0.00000     0.00000     0.00000  0.0
    227    225    226    231   5     0.00000     0.00000     2.91206  0.0
    227    225    226    232   5     0.00000     0.00000     2.91206  0.0
    227    225    226    233   5     0.00000     0.00000     2.91206  0.0
    224    225    227    234   5     0.00000     0.00000     0.00000  0.0
    224    225    227    235   5     0.00000     0.00000     0.00000  0.0
    224    225    227    236   5     0.82425     1.27612    -4.23839  0.0
    226    225    227    234   5     0.00000     0.00000     2.91206  0.0
    226    225    227    235   5     0.00000     0.00000     2.91206  0.0
    226    225    227    236   5     3.92041     0.71546     0.82006  0.0
    225    227    236    237   5     2.59408     1.23010     0.63178  0.0
    225    227    236    241   5     0.00000     0.00000     1.25520  0.0
    225    227    236    242   5     0.00000     0.00000     1.25520  0.0
    234    227    236    237   5     0.00000     0.00000     1.25520  0.0
    234    227    236    241   5     0.00000     0.00000     1.25520  0.0
    234    227    236    242   5     0.00000     0.00000     1.25520  0.0
    235    227    236    237   5     0.00000     0.00000     1.25520  0.0
    235    227    236    241   5     0.00000     0.00000     1.25520  0.0
    235    227    236    242   5     0.00000     0.00000     1.25520  0.0
    227    236    237    238   5     0.82425     1.27612    -4.23839  0.0
    227    236    237    243   5     0.00000     0.00000     0.00000  0.0
    241    236    237    238   5     0.00000     0.00000     0.00000  0.0
    241    236    237    243   5     0.00000     0.00000     2.76981  0.0
    242    236    237    238   5     0.00000     0.00000     0.00000  0.0
    242    236    237    243   5     0.00000     0.00000     2.76981  0.0
    236    237    238    239   5     0.00000    58.57600     0.00000  0.0
    236    237    238    240   5     0.00000    58.57600     0.00000  0.0
    243    237    238    239   5     0.00000    58.57600     0.00000  0.0
    243    237    238    240   5     0.00000    58.57600     0.00000  0.0
    237    238    239    244   5     0.00000     0.00000     0.00000  0.0
    237    238    239    245   5     0.00000     0.00000     0.00000  0.0
    237    238    239    246   5     0.00000     0.00000     0.00000  0.0
    240    238    239    244   5     0.00000     0.00000     2.91206  0.0
    240    238    239    245   5     0.00000     0.00000     2.91206  0.0
    240    238    239    246   5     0.00000     0.00000     2.91206  0.0
    237    238    240    247   5     0.00000     0.00000     0.00000  0.0
    237    238    240    248   5     0.00000     0.00000     0.00000  0.0
    237    238    240    249   5     0.82425     1.27612    -4.23839  0.0
    239    238    240    247   5     0.00000     0.00000     2.91206  0.0
    239    238    240    248   5     0.00000     0.00000     2.91206  0.0
    239    238    240    249   5     3.92041     0.71546     0.82006  0.0
    238    240    249    250   5     2.59408     1.23010     0.63178  0.0
    238    240    249    254   5     0.00000     0.00000     1.25520  0.0
    238    240    249    255   5     0.00000     0.00000     1.25520  0.0
    247    240    249    250   5     0.00000     0.00000     1.25520  0.0
    247    240    249    254   5     0.00000     0.00000     1.25520  0.0
    247    240    249    255   5     0.00000     0.00000     1.25520  0.0
    248    240    249    250   5     0.00000     0.00000     1.25520  0.0
    248    240    249    254   5     0.00000     0.00000     1.25520  0.0
    248    240    249    255   5     0.00000     0.00000     1.25520  0.0
    240    249    250    251   5     0.82425     1.27612    -4.23839  0.0
    240    249    250    256   5     0.00000     0.00000     0.00000  0.0
    254    249    250    251   5     0.00000     0.00000     0.00000  0.0
    254    249    250    256   5     0.00000     0.00000     2.76981  0.0
    255    249    250    251   5     0.00000     0.00000     0.00000  0.0
    255    249    250    256   5     0.00000     0.00000     2.76981  0.0
    249    250    251    252   5     0.00000    58.57600     0.00000  0.0
    249    250    251    253   5     0.00000    58.57600     0.00000  0.0
    256    250    251    252   5     0.00000    58.57600     0.00000  0.0
    256    250    251    253   5     0.00000    58.57600     0.00000  0.0
    250    251    252    257   5     0.00000     0.00000     0.00000  0.0
    250    251    252    258   5     0.00000     0.00000     0.00000  0.0
    250    251    252    259   5     0.00000     0.00000     0.00000  0.0
    253    251    252    257   5     0.00000     0.00000     2.91206  0.0
    253    251    252    258   5     0.00000     0.00000     2.91206  0.0
    253    251    252    259   5     0.00000     0.00000     2.91206  0.0
    250    251    253    260   5     0.00000     0.00000     0.00000  0.0
    250    251    253    261   5     0.00000     0.00000     0.00000  0.0
    250    251    253    262   5     0.00000     0.00000     0.00000  0.0
    252    251    253    260   5     0.00000     0.00000     2.91206  0.0
    252    251    253    261   5     0.00000     0.00000     2.91206  0.0
    252    251    253    262   5     0.00000     0.00000     2.91206  0.0

[ dihedrals ]
; Improper dihedrals
; h   i   j   k   funct
      1      3      2      8   5     0.00000     9.20480     0.00000  0.0
      2      4      3      5   5     0.00000     9.20480     0.00000  0.0
     15     17     16     22   5     0.00000     9.20480     0.00000  0.0
     16     18     17     19   5     0.00000     9.20480     0.00000  0.0
     28     30     29     35   5     0.00000     9.20480     0.00000  0.0
     29     31     30     32   5     0.00000     9.20480     0.00000  0.0
     41     43     42     48   5     0.00000     9.20480     0.00000  0.0
     42     44     43     45   5     0.00000     9.20480     0.00000  0.0
     54     56     55     61   5     0.00000     9.20480     0.00000  0.0
     55     57     56     58   5     0.00000     9.20480     0.00000  0.0
     67     69     68     74   5     0.00000     9.20480     0.00000  0.0
     68     70     69     71   5     0.00000     9.20480     0.00000  0.0
     80     82     81     87   5     0.00000     9.20480     0.00000  0.0
     81     83     82     84   5     0.00000     9.20480     0.00000  0.0
     93     95     94    100   5     0.00000     9.20480     0.00000  0.0
     94     96     95     97   5     0.00000     9.20480     0.00000  0.0
    106    108    107    113   5     0.00000     9.20480     0.00000  0.0
    107    109    108    110   5     0.00000     9.20480     0.00000  0.0
    119    121    120    126   5     0.00000     9.20480     0.00000  0.0
    120    122    121    123   5     0.00000     9.20480     0.00000  0.0
    132    134    133    139   5     0.00000     9.20480     0.00000  0.0
    133    135    134    136   5     0.00000     9.20480     0.00000  0.0
    145    147    146    152   5     0.00000     9.20480     0.00000  0.0
    146    148    147    149   5     0.00000     9.20480     0.00000  0.0
    158    160    159    165   5     0.00000     9.20480     0.00000  0.0
    159    161    160    162   5     0.00000     9.20480     0.00000  0.0
    171    173    172    178   5     0.00000     9.20480     0.00000  0.0
    172    174    173    175   5     0.00000     9.20480     0.00000  0.0
    184    186    185    191   5     0.00000     9.20480     0.00000  0.0
    185    187    186    188   5     0.00000     9.20480     0.00000  0.0
    197    199    198    204   5     0.00000     9.20480     0.00000  0.0
    198    200    199    201   5     0.00000     9.20480     0.00000  0.0
    210    212    211    217   5     0.00000     9.20480     0.00000  0.0
    211    213    212    214   5     0.00000     9.20480     0.00000  0.0
    223    225    224    230   5     0.00000     9.20480     0.00000  0.0
    224    226    225    227   5     0.00000     9.20480     0.00000  0.0
    236    238    237    243   5     0.00000     9.20480     0.00000  0.0
    237    239    238    240   5     0.00000     9.20480     0.00000  0.0
    249    251    250    256   5     0.00000     9.20480     0.00000  0.0
    250    252    251    253   5     0.00000     9.20480     0.00000  0.0
