Control file title. For DL_FIELD 4.10
49910
    1MOL     C1    1   7.696   1.844   1.297  0.0508 -0.2044  0.7121
    1MOL     C2    2   7.557   1.905   1.300  0.4990 -0.0459 -0.1763
    1MOL     C3    3   7.453   1.794   1.261  0.4034  0.0346  0.0719
    1MOL     O4    4   7.416   1.784   1.145 -0.4564 -0.1202 -0.5476
    1MOL     N5    5   7.413   1.708   1.353 -0.7852 -0.4339 -0.0271
    1MOL     C6    6   7.320   1.604   1.323  0.1328 -0.1905 -0.3200
    1MOL     C7    7   7.443   1.710   1.496  0.6364 -0.4256 -0.2032
    1MOL     H8    8   7.709   1.752   1.354  0.7421 -1.1987 -1.0251
    1MOL     H9    9   7.774   1.907   1.340  1.2278 -1.5318  0.5467
    1MOL    H10   10   7.541   1.923   1.406 -2.2530  1.5735 -0.8052
    1MOL    H11   11   7.237   1.635   1.259  0.1984  0.1017 -0.2621
    1MOL    H12   12   7.368   1.518   1.276  2.5002  0.1161  1.4757
    1MOL    H13   13   7.261   1.580   1.412  2.7527 -2.1796  0.9326
    1MOL    H14   14   7.386   1.796   1.533  1.2779  0.2689 -0.7948
    1MOL    H15   15   7.549   1.731   1.514  1.3720 -4.0120  0.0125
    1MOL    H16   16   7.424   1.613   1.540  0.9795 -0.5586 -0.3455
    1MOL    H17   17   7.719   1.806   1.198  0.4009  0.4236  0.5544
    1MOL    C18   18   7.557   2.043   1.232 -0.1112  0.1603  0.1535
    1MOL    C19   19   7.418   2.115   1.240  0.8223  0.1886  0.2080
    1MOL    C20   20   7.413   2.243   1.159 -0.1672 -0.5076  0.3210
    1MOL    O21   21   7.513   2.310   1.154 -0.1936  0.0475  0.7525
    1MOL    N22   22   7.304   2.277   1.089 -0.1672  0.2762 -0.2269
    1MOL    C23   23   7.286   2.399   1.016 -0.0045  0.7851 -0.3311
    1MOL    C24   24   7.187   2.188   1.072 -0.4520 -0.0427 -0.1546
    1MOL    H25   25   7.626   2.116   1.274 -0.3747 -0.7118  2.1545
    1MOL    H26   26   7.580   2.033   1.125  1.7187 -0.0283  0.5408
    1MOL    H27   27   7.348   2.042   1.198  1.3911  0.7609 -1.7574
    1MOL    H28   28   7.269   2.361   0.915  0.3508 -1.7929  0.5228
    1MOL    H29   29   7.198   2.454   1.049 -0.5404  0.5678 -1.3745
    1MOL    H30   30   7.372   2.466   1.024 -2.2769  3.4417  2.9033
    1MOL    H31   31   7.137   2.172   1.167  0.9471 -2.1820  0.2520
    1MOL    H32   32   7.206   2.091   1.027 -0.2036  0.8522 -2.0391
    1MOL    H33   33   7.115   2.239   1.007 -1.1859  1.7081  1.9521
    1MOL    C34   34   7.364   2.140   1.385 -0.6466  0.7028 -0.0239
    1MOL    C35   35   7.442   2.233   1.486  0.6513  0.1519  0.6491
    1MOL    C36   36   7.569   2.171   1.547 -0.1390 -0.4884  0.9689
    1MOL    O37   37   7.545   2.073   1.620  0.0423 -0.1470 -0.2609
    1MOL    N38   38   7.694   2.211   1.522 -0.6067  0.2176 -0.3338
    1MOL    C39   39   7.808   2.147   1.587 -0.1097 -0.1072  0.1610
    1MOL    C40   40   7.731   2.333   1.446  0.8363  0.1564  0.7097
    1MOL    H41   41   7.264   2.181   1.366 -1.0719 -0.3448 -0.0972
    1MOL    H42   42   7.346   2.044   1.433  0.1595  0.7588  0.3829
    1MOL    H43   43   7.472   2.324   1.434 -0.6020 -0.3242 -0.9225
    1MOL    H44   44   7.817   2.044   1.550  0.2823 -0.4284  1.1428
    1MOL    H45   45   0.046   2.203   1.568 -1.0246  0.7515 -1.8363
    1MOL    H46   46   7.803   2.128   1.694  0.3988 -0.2762  0.1558
    1MOL    H47   47   7.832   2.316   1.409  0.2046  1.2737 -1.6493
    1MOL    H48   48   7.752   2.421   1.507  2.6017  0.3978 -0.2136
    1MOL    H49   49   7.666   2.360   1.362 -2.9234  0.6120  3.6623
    1MOL    C50   50   7.331   2.272   1.588  0.3698 -0.1709 -0.3169
    1MOL    C51   51   7.366   2.376   1.700  0.9201 -0.2671  0.4903
    1MOL    C52   52   7.242   2.395   1.792  0.4802 -0.4582  0.7834
    1MOL    O53   53   7.161   2.485   1.765  0.1295 -0.1294  0.1190
    1MOL    N54   54   7.219   2.313   1.901 -0.3331 -0.0559  0.0753
    1MOL    C55   55   7.115   2.340   2.011 -0.0450 -0.2964  0.2399
    1MOL    C56   56   7.288   2.189   1.935 -0.0813 -0.1995 -0.8522
    1MOL    H57   57   7.250   2.304   1.524  1.3277  0.6025 -1.1514
    1MOL    H58   58   7.283   2.186   1.636 -0.6188  1.1327  1.0862
    1MOL    H59   59   7.447   2.342   1.765  0.5693  0.8603  1.5441
    1MOL    H60   60   7.153   2.342   2.113  2.4235  2.5949 -0.6790
    1MOL    H61   61   7.062   2.431   1.979  2.9847  1.0785 -1.0320
    1MOL    H62   62   7.042   2.259   2.016 -0.5087  0.0335 -0.8418
    1MOL    H63   63   7.229   2.099   1.916  0.0707 -0.5105  0.1298
    1MOL    H64   64   7.318   2.189   2.040 -1.6279 -0.6200 -0.3979
    1MOL    H65   65   7.383   2.171   1.885  1.8273  0.4682  2.4104
    1MOL    C66   66   7.413   2.508   1.646  0.4828  0.5642  0.0600
    1MOL    C67   67   7.472   2.608   1.748  0.4354  0.2413  0.4708
    1MOL    C68   68   7.443   2.747   1.700 -0.4612 -0.1982 -0.1881
    1MOL    O69   69   7.501   2.782   1.599 -0.1454  0.5952 -0.0456
    1MOL    N70   70   7.349   2.823   1.768  0.7599  0.2694  0.4780
    1MOL    C71   71   7.264   2.784   1.880  0.0192  0.2339  0.1999
    1MOL    C72   72   7.343   2.967   1.745  0.5011 -0.1276 -1.0024
    1MOL    H73   73   7.487   2.491   1.568 -0.0683  0.5941 -0.4756
    1MOL    H74   74   7.334   2.556   1.588 -0.4130  1.5302  2.0302
    1MOL    H75   75   7.429   2.595   1.848 -0.5910 -0.5702 -0.0653
    1MOL    H76   76   7.165   2.784   1.835  0.1493 -0.4300 -0.1054
    1MOL    H77   77   7.277   2.684   1.923 -1.8548 -0.7654 -1.4594
    1MOL    H78   78   7.264   2.857   1.960  3.7312  0.7511 -0.1558
    1MOL    H79   79   7.398   3.025   1.820 -0.9141  1.5051 -1.1866
    1MOL    H80   80   7.239   3.000   1.747  0.3329 -0.6754  0.1210
    1MOL    H81   81   7.374   2.999   1.645  0.6598  1.1799 -0.5530
    1MOL    C82   82   7.622   2.573   1.767  0.1151  0.2288  0.2434
    1MOL    C83   83   7.708   2.645   1.881 -0.3793 -0.1243  0.3204
    1MOL    C84   84   7.837   2.557   1.910 -0.1086 -1.1976  0.4776
    1MOL    O85   85   7.843   2.490   2.013 -0.1801  0.9039  0.1915
    1MOL    N86   86   0.087   2.547   1.823  0.0521 -0.8810  0.1482
    1MOL    C87   87   0.114   2.640   1.708 -0.3645 -0.2730  0.4675
    1MOL    C88   88   0.193   2.446   1.839 -0.6559 -0.0292  0.4649
    1MOL    H89   89   7.648   2.468   1.781 -1.1980 -0.1994 -0.4898
    1MOL    H90   90   7.661   2.606   1.671  0.4298 -0.2093  0.2190
    1MOL    H91   91   7.735   2.742   1.839  0.9428 -0.6960 -0.1989
    1MOL    H92   92   0.145   2.739   1.743  1.1889 -0.5196 -0.1748
    1MOL    H93   93   0.200   2.616   1.646 -1.8426  1.3390 -2.2820
    1MOL    H94   94   0.023   2.641   1.648  0.1366 -0.6907 -0.3013
    1MOL    H95   95   0.223   2.432   1.943  2.3091  1.4956 -0.1302
    1MOL    H96   96   0.288   2.477   1.796 -0.1123 -1.2505  0.7729
    1MOL    H97   97   0.156   2.351   1.800 -2.4969  0.7426  0.2763
    1MOL    C98   98   7.625   2.675   2.009 -0.2423 -0.4491 -0.2514
    1MOL    C99   99   7.692   2.765   2.114  0.1233 -0.7892  0.6978
    1MOL   C100  100   7.631   2.725   2.255 -0.5913 -0.0523  0.5079
    1MOL   O101  101   7.507   2.721   2.263  0.3415  0.0610  0.1166
    1MOL   N102  102   7.709   2.676   2.358 -0.0252 -0.8068 -0.5281
    1MOL   C103  103   7.853   2.699   2.368 -0.8577 -0.4364  0.1061
    1MOL   C104  104   7.644   2.613   2.472  0.0314  0.0970 -0.0489
    1MOL   H105  105   7.539   2.730   1.971  0.8485  1.4116 -0.0697
    1MOL   H106  106   7.585   2.586   2.057 -2.7634  0.5907 -0.3158
    1MOL   H107  107   7.800   2.751   2.118  0.1579 -0.6323  0.3855
    1MOL   H108  108   0.039   2.786   2.316 -2.7324 -0.0677 -0.7545
    1MOL   H109  109   0.035   2.709   2.470  2.0700  1.1585 -1.0156
    1MOL   H110  110   0.046   2.611   2.323 -2.0962 -1.1185  0.1344
    1MOL   H111  111   7.712   2.574   2.547  1.3514 -0.8726 -1.7132
    1MOL   H112  112   7.586   2.526   2.442 -1.8751  1.2870  0.0976
    1MOL   H113  113   7.567   2.675   2.518 -1.8436 -1.9570 -0.3405
    1MOL   C114  114   7.674   2.911   2.077  0.6382  0.1857 -0.3188
    1MOL   C115  115   7.743   3.018   2.165 -0.4766  0.6147 -0.1123
    1MOL   C116  116   7.673   3.157   2.166  0.5459 -0.3924 -0.0625
    1MOL   O117  117   7.637   3.202   2.056 -0.0448  0.3930  1.1808
    1MOL   N118  118   7.655   3.220   2.284  0.0798 -0.0387  0.2081
    1MOL   C119  119   7.566   3.335   2.290  0.2923  0.7348  0.4176
    1MOL   C120  120   7.712   3.180   2.407 -0.5222  0.1543  0.2161
    1MOL   H121  121   7.717   2.924   1.977  2.2737  1.3192  0.5100
    1MOL   H122  122   7.567   2.930   2.079  0.2910 -1.6770 -0.3090
    1MOL   H123  123   7.712   2.980   2.262  0.1790  1.2985  0.3656
    1MOL   H124  124   7.479   3.317   2.353  0.4022  2.4459  1.1004
    1MOL   H125  125   7.622   3.421   2.328  0.1797  0.2594  1.6925
    1MOL   H126  126   7.541   3.382   2.195  1.1925 -0.9122 -0.6486
    1MOL   H127  127   7.696   3.251   2.489 -1.2437 -0.8977  1.0005
    1MOL   H128  128   7.820   3.172   2.398 -0.6455 -1.1798 -0.0748
    1MOL   H129  129   7.665   3.090   2.445  0.4674 -0.2965  0.3715
    1MOL   C130  130   0.047   3.033   2.158  0.0413 -0.1195 -0.4139
    1MOL   C131  131   0.127   3.119   2.055 -0.5184  0.3942  0.5399
    1MOL   C132  132   0.095   3.086   1.911  0.4911  0.0470  0.5931
    1MOL   O133  133   0.083   2.965   1.888 -0.0863  0.3766 -0.1874
    1MOL   N134  134   0.076   3.184   1.816  0.5474  0.4555  0.3163
    1MOL   C135  135   0.084   3.330   1.835  0.0680 -0.4477 -0.7049
    1MOL   C136  136   0.024   3.140   1.686  0.8525  0.3415 -0.2385
    1MOL   H137  137   0.091   3.056   2.255 -3.7770  0.3430  1.2671
    1MOL   H138  138   0.073   2.929   2.136  1.6501  0.1094  0.3181
    1MOL   H139  139   0.098   3.220   2.083 -0.0017  0.1266  2.1278
    1MOL   H140  140   0.159   3.348   1.911 -1.4432 -1.3121  1.0349
    1MOL   H141  141   0.099   3.388   1.744  2.3231  1.1897  0.6776
    1MOL   H142  142   7.850   3.370   1.886  1.3309  1.3729  0.0738
    1MOL   H143  143   0.014   3.216   1.609  0.3667 -1.3879 -1.9348
    1MOL   H144  144   7.783   3.085   1.692  0.5310  0.8880 -0.2777
    1MOL   H145  145   0.094   3.063   1.653 -1.7407 -0.5744 -3.9413
    1MOL   C146  146   0.283   3.096   2.071  0.1899  0.2099  0.0699
    1MOL   C147  147   0.342   3.068   2.214 -0.5141  0.0822  0.6607
    1MOL   C148  148   0.307   3.190   2.307 -0.0541  0.5312  0.0192
    1MOL   O149  149   0.303   3.306   2.256 -0.0349  0.3014 -0.2207
    1MOL   N150  150   0.296   3.175   2.439 -0.1051  0.2649 -0.2756
    1MOL   C151  151   0.292   3.286   2.525  0.3019  0.4228  0.3112
    1MOL   C152  152   0.282   3.042   2.502  0.2604  0.3082  0.4185
    1MOL   H153  153   0.310   3.018   1.998  0.3064 -2.8346  3.2367
    1MOL   H154  154   0.337   3.180   2.028  0.4265 -0.6029 -1.2883
    1MOL   H155  155   0.302   2.984   2.272  0.3803 -0.7168  0.1502
    1MOL   H156  156   0.246   3.256   2.619 -1.1072 -1.7719 -1.0400
    1MOL   H157  157   0.394   3.316   2.550  0.1095  1.2568  0.1012
    1MOL   H158  158   0.245   3.376   2.486  2.4329  2.1126  1.4910
    1MOL   H159  159   0.181   3.015   2.471 -0.3315  0.4934  2.1184
    1MOL   H160  160   0.294   3.040   2.610 -1.0279 -1.9502  0.5364
    1MOL   H161  161   0.366   2.976   2.482 -0.1984  0.3344 -1.7618
    1MOL   C162  162   0.494   3.047   2.201 -0.0826  0.0366  0.4230
    1MOL   C163  163   0.525   2.905   2.146  0.3645 -0.0530 -0.3141
    1MOL   C164  164   0.474   2.797   2.243 -0.1592 -0.5674 -0.8130
    1MOL   O165  165   0.521   2.798   2.360 -1.0318  0.1531 -0.3850
    1MOL   N166  166   0.380   2.709   2.210  0.4112  0.1694  0.0958
    1MOL   C167  167   0.312   2.696   2.076  0.7413 -0.1929  0.4412
    1MOL   C168  168   0.350   2.603   2.306  0.1153 -0.0931 -0.3485
    1MOL   H169  169   0.546   3.114   2.133 -2.2512  0.6394 -0.7018
    1MOL   H170  170   0.538   3.051   2.301  1.3836  0.2791 -0.2272
    1MOL   H171  171   0.457   2.883   2.064  1.0011 -1.1536 -0.5597
    1MOL   H172  172   0.252   2.780   2.040 -2.5055 -3.7410 -2.8895
    1MOL   H173  173   0.387   2.677   2.000  0.7375  2.2824 -0.2190
    1MOL   H174  174   0.243   2.612   2.074 -0.2510  0.6112  0.3152
    1MOL   H175  175   0.434   2.537   2.329 -1.9820 -2.6234  0.3955
    1MOL   H176  176   0.270   2.537   2.271 -0.9532  1.9432 -1.8513
    1MOL   H177  177   0.314   2.650   2.397  2.9069 -0.0811  0.7962
    1MOL   C178  178   0.669   2.890   2.095  0.3406 -0.1907  0.2685
    1MOL   C179  179   0.697   2.936   1.952 -0.3765 -0.6601  0.5081
    1MOL   C180  180   0.625   2.857   1.840  0.4117  0.2989 -0.1959
    1MOL   O181  181   0.645   2.738   1.835  0.3820 -0.1828  0.0401
    1MOL   N182  182   0.524   2.912   1.765  0.4360  0.7279  0.0505
    1MOL   C183  183   0.459   2.832   1.656 -0.5786 -0.1895  0.1953
    1MOL   C184  184   0.509   3.059   1.743 -0.5314  0.1865  0.5560
    1MOL   H185  185   0.733   2.942   2.167 -1.4038  0.6049  1.2987
    1MOL   H186  186   0.706   2.789   2.110  0.8779  0.2666  2.2400
    1MOL   H187  187   0.656   3.037   1.957 -1.3369 -1.1378  3.1750
    1MOL   H188  188   0.492   2.729   1.646  1.4571  0.4362  0.0796
    1MOL   H189  189   0.351   2.826   1.664 -0.5309  0.3065  1.4068
    1MOL   H190  190   0.475   2.893   1.567 -0.8192  0.2021  0.4168
    1MOL   H191  191   0.582   3.090   1.669  0.4450  1.7191  2.1137
    1MOL   H192  192   0.510   3.128   1.828 -0.2493  2.1440 -1.0024
    1MOL   H193  193   0.420   3.082   1.685  0.1130  3.2648  0.6888
    1MOL   C194  194   0.854   2.940   1.920 -0.4131  0.2181 -0.4047
    1MOL   C195  195   0.892   3.011   1.788  0.6619 -0.0255 -0.0405
    1MOL   C196  196   0.965   2.919   1.680 -0.1878  0.3978 -0.0744
    1MOL   O197  197   1.047   2.840   1.724 -0.7680 -0.1595 -0.3440
    1MOL   N198  198   0.925   2.919   1.551  0.5047  0.0767 -0.0928
    1MOL   C199  199   0.794   2.976   1.501  0.5601  0.0230  0.5981
    1MOL   C200  200   1.025   2.894   1.443  0.1074  0.0674  0.6491
    1MOL   H201  201   0.913   2.991   1.996 -1.3942 -1.6958  1.6576
    1MOL   H202  202   0.892   2.838   1.928  1.9244  1.0366 -0.6704
    1MOL   H203  203   0.800   3.047   1.742  0.9087 -1.1981 -1.5157
    1MOL   H204  204   0.726   2.931   1.573 -0.4683 -0.0583 -0.4166
    1MOL   H205  205   0.780   3.084   1.506 -0.0720 -0.0106 -0.3007
    1MOL   H206  206   0.768   2.942   1.401 -0.8812  0.8088  0.7035
    1MOL   H207  207   0.992   2.823   1.366  1.7389 -0.4776  0.4457
    1MOL   H208  208   1.111   2.845   1.488  1.7722 -0.1142 -2.5638
    1MOL   H209  209   1.038   2.992   1.398 -1.6040 -0.5755 -1.3865
    1MOL   C210  210   0.967   3.148   1.802 -0.4599  0.2497  0.0906
    1MOL   C211  211   0.895   3.252   1.889  0.1967 -0.4746 -0.2706
    1MOL   C212  212   0.783   3.328   1.817  0.4069  0.5731 -0.5045
    1MOL   O213  213   0.788   3.341   1.694 -0.0369 -0.5557  0.0166
    1MOL   N214  214   0.673   3.359   1.892  0.3314  0.3999  0.1651
    1MOL   C215  215   0.663   3.370   2.038 -0.2354 -0.1660  0.4102
    1MOL   C216  216   0.552   3.400   1.820  0.4682 -1.3474 -0.3993
    1MOL   H217  217   1.059   3.137   1.860  0.3492  3.5038 -0.4663
    1MOL   H218  218   0.989   3.198   1.708 -0.8794 -3.1294 -1.8686
    1MOL   H219  219   0.866   3.203   1.982  0.4356  1.2559  0.7460
    1MOL   H220  220   0.559   3.351   2.066 -1.2586 -0.5784 -3.4427
    1MOL   H221  221   0.742   3.313   2.087  0.5083  1.1875  0.8268
    1MOL   H222  222   0.686   3.467   2.083 -1.3319 -0.9168  2.6935
    1MOL   H223  223   0.548   3.361   1.719 -0.2836  2.5085 -1.9528
    1MOL   H224  224   0.540   3.508   1.807  3.0998 -1.1450 -1.5436
    1MOL   H225  225   0.458   3.372   1.869 -0.3910  1.3637 -0.4041
    1MOL   C226  226   0.988   3.362   1.941  0.1300 -0.5091  0.8170
    1MOL   C227  227   1.094   3.331   2.057 -0.2326  0.0496 -0.2779
    1MOL   C228  228   1.027   3.286   2.190 -0.9249 -0.4262  0.5151
    1MOL   O229  229   0.928   3.345   2.227  0.2227  0.1182  0.6600
    1MOL   N230  230   1.074   3.177   2.256  0.0698  0.2235  0.0742
    1MOL   C231  231   0.990   3.128   2.365  0.1250 -0.3426 -0.2241
    1MOL   C232  232   1.158   3.076   2.197 -0.3199 -0.5017 -0.1061
    1MOL   H233  233   1.048   3.391   1.855 -1.7781 -0.2636 -0.4883
    1MOL   H234  234   0.936   3.452   1.973  1.8657  0.4486  0.9886
    1MOL   H235  235   1.167   3.257   2.024  0.1405  0.8680 -1.3651
    1MOL   H236  236   1.022   3.031   2.404 -1.1771 -1.6077 -2.2167
    1MOL   H237  237   0.979   3.196   2.449  0.0749 -0.3145 -0.2539
    1MOL   H238  238   0.888   3.101   2.340  0.6655 -1.6032 -1.0705
    1MOL   H239  239   1.259   3.117   2.198 -0.3608 -0.4026 -0.0303
    1MOL   H240  240   1.131   3.045   2.096 -2.0636 -0.0320  0.1984
    1MOL   H241  241   1.163   2.980   2.249 -0.8775 -0.6311 -0.2878
    1MOL   C242  242   1.185   3.445   2.084  0.1674 -0.4424  0.5238
    1MOL   C243  243   1.290   3.490   1.982  0.1866 -0.0678 -0.5093
    1MOL   C244  244   1.404   3.387   1.955  0.1577 -0.1452  0.6721
    1MOL   O245  245   1.469   3.347   2.054 -0.4850 -0.0803  0.4106
    1MOL   N246  246   1.425   3.339   1.831  0.0332  0.7836  0.3091
    1MOL   C247  247   1.540   3.252   1.807 -0.1164 -0.1406  0.2501
    1MOL   C248  248   1.325   3.335   1.725 -0.2495  0.6189 -0.3732
    1MOL   H249  249   1.121   3.531   2.102  0.3855 -0.0441 -0.5889
    1MOL   H250  250   1.239   3.421   2.176  0.3235  0.4786  0.6755
    1MOL   H251  251   1.236   3.490   1.888 -0.9721 -1.9784  0.1215
    1MOL   H252  252   1.569   3.248   1.702 -2.4584  0.6275 -0.4534
    1MOL   H253  253   1.625   3.283   1.868  0.8657 -2.9331  0.3695
    1MOL   H254  254   1.526   3.150   1.844 -1.2036 -0.4520 -0.9841
    1MOL   H255  255   1.295   3.433   1.689  1.9608  0.8806 -1.6028
    1MOL   H256  256   1.233   3.285   1.754  1.6486 -3.7371 -1.3808
    1MOL   H257  257   1.357   3.290   1.631  1.0884 -0.3854  0.5268
    1MOL   C258  258   1.349   3.626   2.029  0.0979  0.1403  0.4297
    1MOL   C259  259   1.286   3.750   1.961  0.1698  0.2889 -0.1481
    1MOL   C260  260   1.301   3.752   1.804 -0.2827 -0.6985 -0.5247
    1MOL   O261  261   1.415   3.765   1.759  0.1295  0.0471 -0.3108
    1MOL   N262  262   1.193   3.721   1.722  0.3979  0.3039 -0.0356
    1MOL   C263  263   1.053   3.758   1.762  0.1506  0.3238  0.0666
    1MOL   C264  264   1.223   3.721   1.576  0.1840  0.1941 -0.1038
    1MOL   H265  265   1.349   3.625   2.138 -1.6528 -0.0715  0.4490
    1MOL   H266  266   1.455   3.633   2.006  0.2657  1.4634  1.5333
    1MOL   H267  267   1.183   3.746   1.999  0.7562  0.7366  1.5440
    1MOL   H268  268   1.004   3.785   1.669  3.8063  3.0354 -1.1737
    1MOL   H269  269   0.998   3.676   1.809  0.3580 -0.2673 -0.7026
    1MOL   H270  270   1.052   3.844   1.829  1.3803  0.7308 -0.4245
    1MOL   H271  271   1.219   3.821   1.533 -0.7416 -0.3315 -1.2438
    1MOL   H272  272   1.140   3.668   1.531 -0.7436  0.3113  1.4145
    1MOL   H273  273   1.313   3.669   1.545  0.2560 -0.9542  1.9430
    1MOL   C274  274   1.342   3.883   2.021  0.2670  0.0982 -0.7801
    1MOL   C275  275   1.247   3.997   2.054  0.1694  0.4456  0.1625
    1MOL   C276  276   1.316   4.140   2.039 -0.1566 -0.7475  0.3447
    1MOL   O277  277   1.431   4.151   2.083 -0.4523  0.2586 -0.1854
    1MOL   N278  278   1.256   4.242   1.975 -0.0128 -0.2022  0.4233
    1MOL   C279  279   1.111   4.261   1.973  1.1254 -0.2565  0.2198
    1MOL   C280  280   1.335   4.348   1.914 -0.0279  0.2166 -0.6611
    1MOL   H281  281   1.416   3.865   2.098  0.4154 -0.3525 -1.0270
    1MOL   H282  282   1.415   3.926   1.953 -0.6245  0.6467 -1.4133
    1MOL   H283  283   1.165   3.986   1.983 -0.8497  2.6495  0.9510
    1MOL   H284  284   1.066   4.248   2.071  3.0643  2.8607  1.5935
    1MOL   H285  285   1.084   4.361   1.940  1.2815  0.0775  1.0994
    1MOL   H286  286   1.070   4.181   1.910 -2.5178  0.2431  1.8640
    1MOL   H287  287   1.442   4.329   1.911  0.2019  1.5193 -1.0297
    1MOL   H288  288   1.321   4.444   1.964  0.2524 -0.0990  0.0401
    1MOL   H289  289   1.303   4.352   1.810  1.6856  1.3187 -1.1584
    1MOL   C290  290   1.198   3.981   2.201  0.7051 -0.3609 -0.0848
    1MOL   C291  291   1.090   3.871   2.232 -0.0660  0.0276  0.1289
    1MOL   C292  292   0.964   3.876   2.139  0.3606 -0.1861  0.2915
    1MOL   O293  293   0.935   3.981   2.084 -0.2556 -0.1794  0.3039
    1MOL   N294  294   0.892   3.763   2.115 -0.9595  0.4763  0.4660
    1MOL   C295  295   0.780   3.763   2.024 -0.3671 -0.3235 -0.2860
    1MOL   C296  296   0.896   3.650   2.204 -0.2829 -0.6735  0.2907
    1MOL   H297  297   1.280   3.957   2.268 -0.4804  1.3741  2.0485
    1MOL   H298  298   1.155   4.075   2.236  2.3257  1.1102 -1.8859
    1MOL   H299  299   1.146   3.778   2.221  0.4779  0.3550  0.1584
    1MOL   H300  300   0.739   3.666   1.999 -1.9381  0.4623 -0.7882
    1MOL   H301  301   0.696   3.818   2.066 -0.3285 -1.6067  1.5397
    1MOL   H302  302   0.796   3.814   1.929  0.1292  1.0416  0.5031
    1MOL   H303  303   0.838   3.658   2.296 -0.6284 -0.9898  0.1053
    1MOL   H304  304   0.990   3.604   2.233 -0.1106 -0.6184 -0.1733
    1MOL   H305  305   0.844   3.563   2.164  0.1594 -0.7955 -0.0211
    1MOL   C306  306   1.061   3.883   2.385 -0.6064  0.5372 -0.1256
    1MOL   C307  307   1.170   3.846   2.495  0.5007  0.8864  0.7749
    1MOL   C308  308   1.236   3.706   2.466 -0.5250 -0.1362  0.2384
    1MOL   O309  309   1.159   3.618   2.423  0.8118 -0.3420  0.6002
    1MOL   N310  310   1.370   3.687   2.488  0.5604 -0.0212  0.3933
    1MOL   C311  311   1.434   3.566   2.440 -0.3213  0.8739  0.1951
    1MOL   C312  312   1.452   3.804   2.524 -0.1921 -0.4702 -0.2084
    1MOL   H313  313   1.018   3.977   2.417 -1.7389 -0.0329  0.0360
    1MOL   H314  314   0.982   3.811   2.407 -0.2491 -0.3713 -1.6886
    1MOL   H315  315   1.239   3.927   2.517  0.2904  1.8071 -1.8261
    1MOL   H316  316   1.411   3.547   2.335  1.4805  2.7961 -0.5616
    1MOL   H317  317   1.541   3.582   2.443  0.2906 -1.9492 -2.6053
    1MOL   H318  318   1.424   3.479   2.506  1.4583  0.4228 -0.1053
    1MOL   H319  319   1.449   3.889   2.455 -2.5219  0.8451  1.4326
    1MOL   H320  320   1.558   3.778   2.527 -0.1139  0.0176  2.3799
    1MOL   H321  321   1.426   3.842   2.623 -2.1649  1.7247 -1.5322
    1MOL   H322  322   1.122   3.835   2.592 -1.0321  0.0465 -0.0490
    2MOL     C1  323   1.254   6.461   3.099 -0.0057  0.3043  0.1080
    2MOL     C2  324   1.212   6.582   3.022  0.3246  0.4500  0.4679
    2MOL     C3  325   1.086   6.543   2.948  1.2792 -0.3882 -0.4615
    2MOL     O4  326   1.100   6.480   2.842 -0.1116 -0.1774  0.5092
    2MOL     N5  327   0.962   6.575   2.994  0.6180  0.2960 -0.4162
    2MOL     C6  328   0.946   6.657   3.116  0.4500  0.5447 -0.1001
    2MOL     C7  329   0.847   6.534   2.913 -0.7037 -0.0248  0.3516
    2MOL     H8  330   1.183   6.438   3.178  0.4695  2.2127  1.1137
    2MOL     H9  331   1.345   6.479   3.156 -0.2287  2.4414 -0.1623
    2MOL    H10  332   1.210   6.665   3.093  0.1605  1.7586 -1.0349
    2MOL    H11  333   0.842   6.673   3.145  1.0155  0.9853  1.7246
    2MOL    H12  334   0.981   6.605   3.205  0.2767 -1.5811 -1.2335
    2MOL    H13  335   0.995   6.753   3.101  0.8160  0.3507 -0.1553
    2MOL    H14  336   0.809   6.616   2.852  0.7441  0.3084 -0.1087
    2MOL    H15  337   0.762   6.499   2.972  0.1864 -2.3734  0.3014
    2MOL    H16  338   0.869   6.444   2.855 -0.8715  1.2471 -1.7553
    2MOL    H17  339   1.270   6.378   3.030 -0.3715  0.9307 -0.7522
    2MOL    C18  340   1.325   6.618   2.920 -0.1432 -0.3385  0.1547
    2MOL    C19  341   1.309   6.752   2.847  0.2438 -0.1754 -0.4621
    2MOL    C20  342   1.341   6.744   2.699  0.2592  0.0552 -0.3940
    2MOL    O21  343   1.458   6.713   2.678  0.4905  0.1066 -0.1828
    2MOL    N22  344   1.259   6.765   2.595 -0.7679  0.6591 -1.0011
    2MOL    C23  345   1.121   6.811   2.604 -0.2435  0.0685  0.3968
    2MOL    C24  346   1.305   6.763   2.456 -0.8821  0.0670 -0.4972
    2MOL    H25  347   1.424   6.605   2.963  0.2326 -0.2529 -0.6872
    2MOL    H26  348   1.325   6.535   2.850  3.0984  0.9410 -1.4448
    2MOL    H27  349   1.205   6.782   2.858 -0.1915 -0.7220 -2.8211
    2MOL    H28  350   1.121   6.920   2.613  0.7859  0.2103 -0.9941
    2MOL    H29  351   1.063   6.782   2.516  1.5992  0.4424 -0.9713
    2MOL    H30  352   1.061   6.773   2.687  0.4013 -0.8288  0.4593
    2MOL    H31  353   1.350   6.857   2.423 -1.2062  0.6039  0.5646
    2MOL    H32  354   1.239   6.726   2.378 -1.8965  1.9731 -0.5672
    2MOL    H33  355   1.388   6.691   2.452 -0.1894  0.8568 -0.5047
    2MOL    C34  356   1.398   6.863   2.906  0.6996  0.0214  0.5393
    2MOL    C35  357   1.327   7.002   2.929 -0.1409 -0.3494 -0.6030
    2MOL    C36  358   1.430   7.114   2.924 -0.0251 -0.1874 -0.3490
    2MOL    O37  359   1.501   7.127   3.024 -0.6418 -0.5022 -0.1521
    2MOL    N38  360   1.430   7.203   2.819 -0.3977 -0.1702  0.0530
    2MOL    C39  361   1.363   7.175   2.694 -0.1218  0.1930 -0.3613
    2MOL    C40  362   1.537   7.313   2.825 -0.0853  0.4188  0.2574
    2MOL    H41  363   1.440   6.840   3.004 -3.3098 -0.0523  2.3449
    2MOL    H42  364   1.492   6.876   2.853  0.1374 -1.6721 -0.9299
    2MOL    H43  365   1.252   7.019   2.852  0.4944  0.6569 -1.0129
    2MOL    H44  366   1.380   7.075   2.652 -0.4377  0.0197 -0.0836
    2MOL    H45  367   1.254   7.184   2.695 -0.4545 -3.1091  0.8599
    2MOL    H46  368   1.391   7.249   2.619 -1.6189  0.8360 -0.2982
    2MOL    H47  369   1.533   7.364   2.921 -0.1508  1.8938 -0.5041
    2MOL    H48  370   1.524   7.392   2.750 -1.6000  1.1256  1.2488
    2MOL    H49  371   1.636   7.271   2.809 -0.4027 -0.3806  0.3929
    2MOL    C50  372   1.247   7.002   3.058  0.4919 -0.3596 -0.1983
    2MOL    C51  373   1.116   7.089   3.046  0.3875  0.5168  0.5918
    2MOL    C52  374   1.071   7.121   3.190  0.4228  1.0528  0.6394
    2MOL    O53  375   1.039   7.027   3.268  0.2552  0.2292 -0.2802
    2MOL    N54  376   1.075   7.247   3.234  0.4614 -0.0811 -0.1007
    2MOL    C55  377   1.126   7.362   3.159  0.1684  0.0260 -0.7754
    2MOL    C56  378   1.022   7.274   3.374 -0.0879 -0.4239 -0.1507
    2MOL    H57  379   1.211   6.903   3.087  0.2547 -0.1377  0.2592
    2MOL    H58  380   1.307   7.040   3.140  0.0818 -0.6248  0.2274
    2MOL    H59  381   1.159   7.183   3.010  0.3577 -0.0386 -0.9054
    2MOL    H60  382   1.143   7.450   3.221  3.0087 -0.6248 -0.5542
    2MOL    H61  383   1.229   7.349   3.127  0.3462 -0.0910 -0.1480
    2MOL    H62  384   1.062   7.376   3.072 -1.3976 -2.3905 -0.0710
    2MOL    H63  385   0.913   7.277   3.374 -0.2114  3.3757  5.1983
    2MOL    H64  386   1.065   7.369   3.407 -0.7190  0.4298 -1.7166
    2MOL    H65  387   1.072   7.206   3.443 -0.7739 -0.8302 -0.0453
    2MOL    C66  388   1.006   7.021   2.958  0.0773 -0.1053  0.9356
    2MOL    C67  389   0.914   7.117   2.888  0.8106 -0.3764  0.2153
    2MOL    C68  390   0.796   7.039   2.833  0.4857 -0.0746 -0.3498
    2MOL    O69  391   0.818   6.941   2.764 -0.0151 -0.1146 -0.4630
    2MOL    N70  392   0.670   7.087   2.863  0.2969 -0.4207 -0.2853
    2MOL    C71  393   0.553   7.016   2.819 -1.0411  0.4547  0.6912
    2MOL    C72  394   0.641   7.199   2.940 -0.0502  0.1784 -0.0491
    2MOL    H73  395   1.058   6.956   2.887  1.8221  0.5444  1.5829
    2MOL    H74  396   0.956   6.957   3.030 -1.0304 -0.0158  0.2631
    2MOL    H75  397   0.886   7.195   2.959  2.1339 -0.2459  0.6071
    2MOL    H76  398   0.517   6.946   2.894 -0.4279 -1.1228 -0.4823
    2MOL    H77  399   0.472   7.089   2.809 -0.9990  0.1150 -2.4495
    2MOL    H78  400   0.567   6.965   2.724  2.4460 -1.6176  2.2364
    2MOL    H79  401   0.707   7.278   2.905  1.4847 -0.8595  0.4612
    2MOL    H80  402   0.664   7.174   3.044 -0.9188  1.8618  0.5705
    2MOL    H81  403   0.540   7.238   2.949  0.7021  2.2075 -0.2115
    2MOL    C82  404   0.983   7.192   2.779 -0.0202 -0.5040 -0.1774
    2MOL    C83  405   0.900   7.276   2.674 -0.2683  0.6852  0.3637
    2MOL    C84  406   0.981   7.264   2.536 -0.1521 -0.6743  0.0714
    2MOL    O85  407   1.075   7.341   2.518 -0.7729  0.0745 -0.3600
    2MOL    N86  408   0.931   7.185   2.439 -0.2532  0.1255  0.0775
    2MOL    C87  409   0.985   7.193   2.303 -0.2354  0.3400 -0.0533
    2MOL    C88  410   0.847   7.068   2.467  0.6307 -0.6119  0.1590
    2MOL    H89  411   1.071   7.244   2.816  0.1335 -1.6100  1.0320
    2MOL    H90  412   1.022   7.108   2.722 -2.4422 -1.6306 -0.2130
    2MOL    H91  413   0.799   7.238   2.659 -0.3608  1.6290 -1.4550
    2MOL    H92  414   1.016   7.094   2.269  1.1336  0.1901  1.5364
    2MOL    H93  415   0.913   7.225   2.228  1.2342  0.1088 -1.5908
    2MOL    H94  416   1.062   7.268   2.288  0.5492  0.1089  2.6570
    2MOL    H95  417   0.893   7.019   2.553 -1.6143  1.3279  2.5637
    2MOL    H96  418   0.848   7.002   2.381  2.4242  1.6121 -1.5842
    2MOL    H97  419   0.743   7.089   2.495  0.6867 -0.8209  0.5224
    2MOL    C98  420   0.888   7.421   2.729 -0.5513 -0.0573 -0.8493
    2MOL    C99  421   0.820   7.512   2.626  0.3287  0.0805  0.4262
    2MOL   C100  422   0.878   7.655   2.638 -0.4209  0.1603 -0.2272
    2MOL   O101  423   0.907   7.705   2.744  0.1663  0.4289 -0.5009
    2MOL   N102  424   0.903   7.734   2.531  0.1228 -0.4995  0.0483
    2MOL   C103  425   0.931   0.026   2.545 -0.9320  0.0594 -0.0315
    2MOL   C104  426   0.914   7.686   2.389  0.2927  0.1351  0.1848
    2MOL   H105  427   0.845   7.435   2.828  0.2230 -2.4791 -0.1103
    2MOL   H106  428   0.991   7.452   2.749  0.1248 -1.3884 -2.1189
    2MOL   H107  429   0.837   7.470   2.527 -2.0610  0.1028 -0.0194
    2MOL   H108  430   0.926   0.072   2.446  0.5177 -0.3361 -0.2993
    2MOL   H109  431   0.862   0.075   2.614 -0.8608  1.1250 -0.6945
    2MOL   H110  432   1.023   0.038   2.602 -1.2245  0.1058  0.4388
    2MOL   H111  433   0.936   7.767   2.320 -1.9162 -0.3951 -1.1727
    2MOL   H112  434   0.818   7.647   2.356 -0.4160  1.9537  0.0894
    2MOL   H113  435   0.991   7.608   2.384 -0.8421 -1.1791  2.1943
    2MOL   C114  436   0.669   7.504   2.652  0.1022  0.0077  0.2807
    2MOL   C115  437   0.581   7.569   2.544  0.2301  0.0443 -0.0816
    2MOL   C116  438   0.570   7.727   2.536 -0.2227  0.3149 -0.0494
    2MOL   O117  439   0.584   7.785   2.641  0.6637 -0.0166  0.0923
    2MOL   N118  440   0.555   7.783   2.411  1.3731  0.8990 -0.3215
    2MOL   C119  441   0.523   7.718   2.283 -0.0070  0.2437 -0.2749
    2MOL   C120  442   0.571   0.076   2.398  0.3286  0.1922 -0.4179
    2MOL   H121  443   0.645   7.402   2.681  1.2470 -0.7942 -1.4924
    2MOL   H122  444   0.650   7.556   2.746 -3.4593 -0.6233 -0.0417
    2MOL   H123  445   0.624   7.534   2.450 -3.2392 -1.4187 -1.1948
    2MOL   H124  446   0.486   7.616   2.294  2.3514 -0.5410  0.6791
    2MOL   H125  447   0.457   7.783   2.225 -0.3731 -0.1587 -0.3111
    2MOL   H126  448   0.606   7.702   2.215  0.9615  0.1142  0.9218
    2MOL   H127  449   0.584   0.129   2.493 -1.0479  1.1305 -0.7427
    2MOL   H128  450   0.482   0.118   2.351 -0.5235 -0.8158  0.2751
    2MOL   H129  451   0.661   0.108   2.345 -0.2374  0.0321 -1.4812
    2MOL   C130  452   0.441   7.496   2.549 -0.8222  0.2045 -0.5843
    2MOL   C131  453   0.344   7.542   2.662  0.5643  0.4970  0.2617
    2MOL   C132  454   0.367   7.464   2.791 -0.6084 -0.1112 -0.3397
    2MOL   O133  455   0.383   7.343   2.788 -0.0795 -0.1669 -0.1421
    2MOL   N134  456   0.382   7.535   2.909 -0.6622  0.3177 -0.0241
    2MOL   C135  457   0.389   7.465   3.035 -0.3345  0.6970 -0.5249
    2MOL   C136  458   0.400   7.679   2.922 -0.1514  0.4362  0.1202
    2MOL   H137  459   0.391   7.505   2.453 -1.1510  0.5889 -0.3769
    2MOL   H138  460   0.456   7.388   2.555 -1.6019  0.1577  0.6972
    2MOL   H139  461   0.364   7.648   2.679 -3.0913  1.5461 -1.5002
    2MOL   H140  462   0.370   7.526   3.123  0.2092 -3.3379  2.5386
    2MOL   H141  463   0.314   7.387   3.040 -0.6969  1.0598 -0.3131
    2MOL   H142  464   0.495   7.439   3.037 -0.5755 -0.2702  0.0044
    2MOL   H143  465   0.310   7.728   2.886 -1.0509  0.3789  2.2213
    2MOL   H144  466   0.492   7.717   2.876 -0.7213 -0.5702 -1.9038
    2MOL   H145  467   0.412   7.706   3.027  0.8532 -0.5903  0.2871
    2MOL   C146  468   0.200   7.514   2.611 -0.0949 -0.7768 -0.3638
    2MOL   C147  469   0.143   7.621   2.519 -0.3875  0.4181  0.4650
    2MOL   C148  470   0.121   7.761   2.577  0.0605  0.0976  0.1407
    2MOL   O149  471   0.075   7.766   2.688 -0.8299 -0.4280 -0.1066
    2MOL   N150  472   0.154   0.021   2.507 -0.9248  0.5758  0.2646
    2MOL   C151  473   0.094   0.145   2.563 -0.4107 -0.1550  0.1821
    2MOL   C152  474   0.219   0.037   2.376  0.6461  0.8350  0.4632
    2MOL   H153  475   0.201   7.421   2.553 -1.9878 -1.4974  0.7376
    2MOL   H154  476   0.127   7.502   2.690 -2.4548  0.7198 -2.2409
    2MOL   H155  477   0.225   7.638   2.450  0.2566 -0.5707  0.9684
    2MOL   H156  478   0.098   0.146   2.671 -1.5383 -0.2583  0.2330
    2MOL   H157  479   0.138   0.240   2.533 -2.2813  0.4416 -0.8219
    2MOL   H158  480   7.841   0.158   2.541 -0.4185 -0.4446  0.0482
    2MOL   H159  481   0.142   0.046   2.299 -0.2926 -1.3531  1.1256
    2MOL   H160  482   0.290   7.810   2.358  0.0681  0.4110  0.0560
    2MOL   H161  483   0.274   0.131   2.378  0.3486  1.0604 -0.9847
    2MOL   C162  484   0.022   7.581   2.440  0.9793  0.1705 -0.4574
    2MOL   C163  485   0.062   7.501   2.309  1.2512  0.5110  0.3376
    2MOL   C164  486   0.081   7.598   2.192  0.3731  0.5955 -0.0051
    2MOL   O165  487   7.847   7.681   2.184  0.0699 -0.0430  0.0213
    2MOL   N166  488   0.185   7.594   2.108  0.1687  0.5847 -0.0658
    2MOL   C167  489   0.296   7.497   2.107  0.4713  0.1517  0.3363
    2MOL   C168  490   0.191   7.697   2.007 -0.3195 -0.5458 -0.4656
    2MOL   H169  491   7.809   7.526   2.506  0.4308  0.0544 -1.1150
    2MOL   H170  492   7.810   7.664   2.412  1.5976  1.1701  0.9351
    2MOL   H171  493   0.156   7.448   2.318 -0.1403 -2.8207 -3.0792
    2MOL   H172  494   0.376   7.531   2.042  1.3844  0.9686  1.8652
    2MOL   H173  495   0.347   7.481   2.202  1.4540 -0.1155 -0.2285
    2MOL   H174  496   0.266   7.407   2.052 -0.2052  0.3379  0.3996
    2MOL   H175  497   0.105   7.763   2.006 -0.3174 -0.5045  0.9534
    2MOL   H176  498   0.183   7.651   1.909  0.7065  1.5747 -1.5596
    2MOL   H177  499   0.280   7.760   2.014 -1.6228  1.4394 -1.4254
    2MOL   C178  500   7.802   7.401   2.268 -0.0347  0.1497  0.1475
    2MOL   C179  501   7.779   7.285   2.370  0.0562 -0.4710  0.2208
    2MOL   C180  502   0.063   7.209   2.400 -0.5407 -0.0654  0.3841
    2MOL   O181  503   0.148   7.192   2.309  0.0832  0.2645  0.2321
    2MOL   N182  504   0.100   7.168   2.528 -0.4374  0.2890 -0.0195
    2MOL   C183  505   0.041   7.217   2.646  0.1716  0.0196  1.1036
    2MOL   C184  506   0.218   7.091   2.559  0.8656 -1.0177 -0.2162
    2MOL   H185  507   7.715   7.459   2.238 -1.4218 -2.4700 -1.0522
    2MOL   H186  508   7.819   7.361   2.168 -1.0192  1.1257 -0.4182
    2MOL   H187  509   7.732   7.326   2.460 -1.4029  0.5881 -1.0112
    2MOL   H188  510   0.105   7.213   2.734 -0.8523 -1.1036  1.8032
    2MOL   H189  511   7.845   7.314   2.639  2.3712  1.3313  2.9613
    2MOL   H190  512   7.811   7.151   2.667  2.6995 -3.4282  0.7085
    2MOL   H191  513   0.196   7.026   2.644  0.9255  1.1250  1.4810
    2MOL   H192  514   0.306   7.144   2.595 -0.7634  1.6681 -0.0478
    2MOL   H193  515   0.260   7.032   2.477 -1.4709 -2.0590 -0.6873
    2MOL   C194  516   7.688   7.183   2.304  0.4703  0.1080 -0.0945
    2MOL   C195  517   7.611   7.070   2.392 -0.1989 -0.4600  0.6415
    2MOL   C196  518   7.576   6.939   2.320  0.4470 -0.2463  0.7173
    2MOL   O197  519   7.467   6.929   2.264 -1.0688 -0.1716  0.2525
    2MOL   N198  520   7.672   6.843   2.311  0.1890  0.2748  0.3906
    2MOL   C199  521   7.807   6.855   2.371 -0.0815 -0.5875 -0.0366
    2MOL   C200  522   7.650   6.720   2.248 -0.5435  0.2334  0.1429
    2MOL   H201  523   7.615   7.234   2.242 -1.6041 -1.9253  0.5954
    2MOL   H202  524   7.752   7.125   2.238 -0.4035 -0.1177 -0.7526
    2MOL   H203  525   7.666   7.036   2.480 -0.4674 -3.8296 -0.4197
    2MOL   H204  526   7.803   6.899   2.471 -1.8485 -2.0524  0.5655
    2MOL   H205  527   7.844   6.755   2.391 -1.2450 -1.0923 -0.3444
    2MOL   H206  528   0.018   6.907   2.300  0.9785 -0.2233  1.1878
    2MOL   H207  529   7.724   6.642   2.265  0.2635  1.2535  1.4016
    2MOL   H208  530   7.643   6.739   2.141 -0.4724  0.0750  0.1104
    2MOL   H209  531   7.551   6.686   2.276  0.3854 -1.7981  1.0786
    2MOL   C210  532   7.480   7.150   2.435  0.6835  0.8332 -0.2543
    2MOL   C211  533   7.375   7.069   2.518 -0.7406 -0.7133  0.4880
    2MOL   C212  534   7.248   7.147   2.526  0.4782 -0.2317  0.2268
    2MOL   O213  535   7.229   7.215   2.624 -0.1985 -0.4450  0.5019
    2MOL   N214  536   7.165   7.141   2.419 -0.8860  0.1874  0.7362
    2MOL   C215  537   7.184   7.061   2.297 -0.1115 -0.5093 -0.2925
    2MOL   C216  538   7.038   7.221   2.420 -0.2561 -0.4610  0.1402
    2MOL   H217  539   7.502   7.242   2.488 -1.3858  0.5103  1.1902
    2MOL   H218  540   7.427   7.183   2.346 -1.1000  0.5311  0.6806
    2MOL   H219  541   7.355   6.974   2.468  2.0660 -1.6165  0.9490
    2MOL   H220  542   7.110   7.078   2.219  1.4750  0.5713 -1.5821
    2MOL   H221  543   7.271   7.100   2.245 -0.6693 -0.2130 -1.0175
    2MOL   H222  544   7.191   6.957   2.328 -0.3152  0.1820  2.2325
    2MOL   H223  545   7.008   7.247   2.319 -0.1550  2.9332  0.8992
    2MOL   H224  546   7.057   7.321   2.461 -3.5379  0.3164 -0.1155
    2MOL   H225  547   6.955   7.180   2.477 -1.4527 -0.1970 -1.4052
    2MOL   C226  548   7.436   7.013   2.657 -0.8519  0.0350  0.3820
    2MOL   C227  549   7.351   6.945   2.767  0.5014  0.6533 -0.5832
    2MOL   C228  550   7.428   6.932   2.900 -0.5981 -0.6406  0.2204
    2MOL   O229  551   7.551   6.941   2.902 -0.3162  0.0692 -0.9908
    2MOL   N230  552   7.368   6.899   3.020 -0.3211  0.1741  0.1918
    2MOL   C231  553   7.225   6.925   3.036 -0.5658  0.2366  0.5129
    2MOL   C232  554   7.441   6.835   3.134  0.6163 -0.5604  0.4976
    2MOL   H233  555   7.517   6.946   2.629  0.9409  2.9416 -1.7517
    2MOL   H234  556   7.491   7.097   2.700  0.4745 -0.4311 -0.3622
    2MOL   H235  557   7.275   7.020   2.786  0.3247  0.4079 -0.3146
    2MOL   H236  558   7.162   6.898   2.951  0.5288 -3.2313  0.7200
    2MOL   H237  559   7.191   6.871   3.124  1.8015  0.5696  1.6788
    2MOL   H238  560   7.210   7.032   3.052  0.6302  0.1796  2.1448
    2MOL   H239  561   7.544   6.870   3.136 -0.0213  1.4689 -0.5938
    2MOL   H240  562   7.435   6.729   3.112 -1.4029 -0.3217 -0.1923
    2MOL   H241  563   7.394   6.857   3.231 -0.7315 -2.9143  0.4203
    2MOL   C242  564   7.292   6.811   2.722 -0.5189  1.2105  0.3911
    2MOL   C243  565   7.375   6.683   2.746  0.3609 -0.0693 -0.4278
    2MOL   C244  566   7.511   6.676   2.671  0.6181  0.6124 -0.2421
    2MOL   O245  567   7.502   6.690   2.552 -0.4333 -0.2092 -0.4035
    2MOL   N246  568   7.626   6.640   2.732  0.7264 -0.4416 -0.2416
    2MOL   C247  569   7.638   6.620   2.879  0.3429 -0.1077  0.2413
    2MOL   C248  570   7.749   6.630   2.648  0.1725  0.3368 -0.2716
    2MOL   H249  571   7.189   6.805   2.759 -0.3585 -2.0621  0.4039
    2MOL   H250  572   7.276   6.822   2.614  0.9979 -0.7159 -0.0572
    2MOL   H251  573   7.378   6.687   2.855  1.4567 -1.1842 -0.4036
    2MOL   H252  574   7.539   6.595   2.916  0.5493 -1.4630 -0.1215
    2MOL   H253  575   7.716   6.548   2.904  1.2553 -0.1516 -2.5301
    2MOL   H254  576   7.660   6.717   2.924 -1.1063 -0.2956  1.3747
    2MOL   H255  577   7.840   6.630   2.707 -0.8194  1.4443  1.2779
    2MOL   H256  578   7.762   6.729   2.606  0.3539  0.5352  0.2535
    2MOL   H257  579   7.746   6.551   2.572  1.5731 -2.0881  2.1151
    2MOL   C258  580   7.300   6.551   2.725 -1.0826 -0.2726  0.0516
    2MOL   C259  581   7.237   6.512   2.586  0.0874  0.5508  0.9641
    2MOL   C260  582   7.112   6.591   2.546  0.4432 -0.1195  0.8147
    2MOL   O261  583   7.015   6.591   2.619 -0.4354 -0.3776  0.3272
    2MOL   N262  584   7.105   6.663   2.433  0.6477  0.0910  0.5870
    2MOL   C263  585   7.220   6.665   2.335 -0.6769  0.0729  0.6591
    2MOL   C264  586   6.982   6.730   2.387 -0.5721  0.6034  0.0521
    2MOL   H265  587   7.368   6.473   2.759 -1.1064 -0.5549 -0.5410
    2MOL   H266  588   7.219   6.551   2.798 -0.2063 -0.3748  1.0211
    2MOL   H267  589   7.311   6.526   2.507 -0.5137  3.2438  0.8583
    2MOL   H268  590   7.306   6.723   2.368 -1.6013  1.1790  1.1915
    2MOL   H269  591   7.250   6.562   2.316 -0.2947  0.4047 -0.5560
    2MOL   H270  592   7.202   6.710   2.238 -1.0738 -1.0085  0.2248
    2MOL   H271  593   6.894   6.665   2.390 -0.9796  1.2114  1.3076
    2MOL   H272  594   6.993   6.769   2.285  0.3770 -0.4004 -0.2338
    2MOL   H273  595   6.961   6.811   2.457 -2.1645  0.1279  0.1532
    2MOL   C274  596   7.193   6.363   2.582 -0.1589 -0.8923  0.8300
    2MOL   C275  597   7.305   6.259   2.586  0.4203  0.3839  0.0854
    2MOL   C276  598   7.395   6.255   2.455 -0.2982  0.4763 -0.1881
    2MOL   O277  599   7.342   6.250   2.347  0.5564 -0.3975 -0.3012
    2MOL   N278  600   7.529   6.268   2.457  0.4852 -0.0651 -0.2683
    2MOL   C279  601   7.608   6.299   2.574  0.5791 -0.1589  0.5623
    2MOL   C280  602   7.613   6.259   2.334  0.1048  0.4964 -0.5984
    2MOL   H281  603   7.106   6.334   2.639 -1.3252 -0.3143 -0.6168
    2MOL   H282  604   7.155   6.356   2.480 -0.9026 -0.8502  1.1053
    2MOL   H283  605   7.373   6.276   2.669  1.4463 -2.2743 -0.1305
    2MOL   H284  606   7.553   6.385   2.611 -1.1597 -1.3839  0.8671
    2MOL   H285  607   7.596   6.220   2.649  0.5985 -0.8193 -0.1242
    2MOL   H286  608   7.707   6.344   2.566  0.5650  0.4547  3.2163
    2MOL   H287  609   7.592   6.342   2.266  3.4248  0.7292 -1.3953
    2MOL   H288  610   7.589   6.168   2.278  0.8116 -0.1447  0.1342
    2MOL   H289  611   7.719   6.261   2.355  0.2885  0.6509 -1.4935
    2MOL   C290  612   7.239   6.115   2.601  0.2136 -0.8072 -0.5026
    2MOL   C291  613   7.345   6.006   2.630 -0.5723  0.1847 -0.3775
    2MOL   C292  614   7.299   5.864   2.581  0.2123 -0.6408  0.0387
    2MOL   O293  615   7.214   5.812   2.649 -0.1140 -0.0553 -0.1493
    2MOL   N294  616   7.364   5.796   2.483  0.1024 -0.3748 -0.2370
    2MOL   C295  617   7.454   5.861   2.390 -0.9029  0.2099  0.3334
    2MOL   C296  618   7.323   5.652   2.460  0.1044 -0.3936  0.6821
    2MOL   H297  619   7.162   6.118   2.678 -0.8383 -1.1305 -1.5071
    2MOL   H298  620   7.191   6.100   2.504 -0.2919 -4.5339  0.2631
    2MOL   H299  621   7.441   6.045   2.595 -0.3121  0.6094  0.8100
    2MOL   H300  622   7.473   5.798   2.303 -1.0306 -0.9274  1.1180
    2MOL   H301  623   7.431   5.965   2.365 -0.5023 -0.1623 -1.7075
    2MOL   H302  624   7.548   5.858   2.443 -0.8367 -1.0746  0.1574
    2MOL   H303  625   7.369   5.614   2.369  0.1278  0.7672  0.2024
    2MOL   H304  626   7.216   5.650   2.439  0.7301  0.7261 -2.9036
    2MOL   H305  627   7.348   5.595   2.549  1.7215 -0.0902  0.4391
    2MOL   C306  628   7.364   5.998   2.783 -0.4658  0.1601  0.1641
    2MOL   C307  629   7.457   5.897   2.855 -0.6895  0.3780  0.2361
    2MOL   C308  630   7.602   5.948   2.862  0.0502 -0.4726  0.5259
    2MOL   O309  631   7.649   6.008   2.761 -0.2540 -0.2281 -0.0085
    2MOL   N310  632   7.674   5.929   2.975  0.3657 -0.5687 -0.2150
    2MOL   C311  633   7.620   5.857   3.092  0.8033 -0.0234  0.3492
    2MOL   C312  634   7.813   5.968   2.967 -0.0438  0.0293 -0.3897
    2MOL   H313  635   7.417   6.089   2.810  1.5832 -0.7352 -0.7656
    2MOL   H314  636   7.269   6.012   2.834 -1.6311  0.7929 -2.1158
    2MOL   H315  637   7.423   5.889   2.958 -0.1066  0.4179  0.4316
    2MOL   H316  638   7.579   5.761   3.061  1.8362 -0.2114 -0.4401
    2MOL   H317  639   7.685   5.834   3.176  1.4748  2.8518  0.6629
    2MOL   H318  640   7.536   5.906   3.142  1.1007  1.0726 -0.2043
    2MOL   H319  641   0.018   5.953   2.876  0.8682 -0.6698  0.3035
    2MOL   H320  642   0.013   5.911   3.044 -0.2487 -0.2308 -0.4371
    2MOL   H321  643   7.819   6.073   2.996 -0.5651  0.1596 -0.7551
    2MOL   H322  644   7.460   5.793   2.822  0.5526 -0.8793  4.1230
    3MOL     C1  645   3.490   7.237   3.873 -0.2160  0.4892 -0.2692
    3MOL     C2  646   3.465   7.358   3.967 -0.4301  0.1812 -0.6238
    3MOL     C3  647   3.534   7.485   3.910 -0.0611  0.0732 -0.4832
    3MOL     O4  648   3.654   7.494   3.934  0.4647  0.1157 -0.4799
    3MOL     N5  649   3.462   7.586   3.848  0.5369  0.3002  0.7429
    3MOL     C6  650   3.333   7.561   3.779  0.6360  0.1672 -0.2484
    3MOL     C7  651   3.511   7.719   3.833 -0.0731 -0.2119 -0.8947
    3MOL     H8  652   3.425   7.150   3.887 -0.1500  0.2207 -1.5936
    3MOL     H9  653   3.584   7.185   3.890  0.2797  1.3805 -0.2609
    3MOL    H10  654   3.357   7.375   3.969 -0.6507 -1.2790  1.5700
    3MOL    H11  655   3.295   7.462   3.803 -0.3013  0.3615 -0.9144
    3MOL    H12  656   3.263   7.637   3.811  1.4598  1.4373 -1.3782
    3MOL    H13  657   3.359   7.558   3.673 -2.1254 -1.5968 -0.9205
    3MOL    H14  658   3.617   7.725   3.812  0.6897  1.5477  3.0598
    3MOL    H15  659   3.482   7.786   3.914 -0.6880  1.2709 -2.3206
    3MOL    H16  660   3.460   7.765   3.749 -2.7279  1.1357  1.3503
    3MOL    H17  661   3.474   7.267   3.769  0.7371 -1.9920 -1.1491
    3MOL    C18  662   3.515   7.315   4.113  0.2755  0.0561  0.3767
    3MOL    C19  663   3.479   7.409   4.229  0.4451 -0.1997  0.0862
    3MOL    C20  664   3.326   7.450   4.232  0.1942  0.4182 -0.1205
    3MOL    O21  665   3.283   7.558   4.184 -0.1301  0.4472 -0.5724
    3MOL    N22  666   3.242   7.369   4.298  0.2781  0.5154 -0.7917
    3MOL    C23  667   3.264   7.229   4.339 -0.5240  0.0519  0.0212
    3MOL    C24  668   3.110   7.423   4.331 -0.1128  0.3113 -0.6031
    3MOL    H25  669   3.468   7.220   4.135 -0.9708  0.8607  1.2493
    3MOL    H26  670   3.620   7.286   4.119  0.5123  1.0970  1.6926
    3MOL    H27  671   3.506   7.356   4.321 -0.3459 -1.2170 -0.2691
    3MOL    H28  672   3.367   7.193   4.344 -0.2879  0.4272 -1.6838
    3MOL    H29  673   3.231   7.216   4.442  0.6339  0.8942  0.5146
    3MOL    H30  674   3.206   7.154   4.285 -1.9176  1.0930  0.0380
    3MOL    H31  675   3.034   7.345   4.324 -0.2268  0.2713  0.9923
    3MOL    H32  676   3.071   7.502   4.266  1.8119  0.4197 -1.6493
    3MOL    H33  677   3.112   7.459   4.434 -1.8215  0.8372 -0.7281
    3MOL    C34  678   3.564   7.544   4.234  0.0775 -1.0847 -0.5120
    3MOL    C35  679   3.558   7.609   4.381  0.6799  0.6179 -0.4234
    3MOL    C36  680   3.602   7.755   4.374 -0.2750 -0.4216  0.7208
    3MOL    O37  681   3.725   7.775   4.382 -0.2188 -0.5661 -0.7962
    3MOL    N38  682   3.518   0.000   4.356  0.0011 -0.3525 -0.5287
    3MOL    C39  683   3.384   7.832   4.297 -0.4864  0.0814 -0.1938
    3MOL    C40  684   3.554   0.139   4.387 -0.1616  0.8967  0.0603
    3MOL    H41  685   3.664   7.516   4.202  0.7759  1.8126 -1.0206
    3MOL    H42  686   3.514   7.607   4.161  0.2068  0.3907  0.6342
    3MOL    H43  687   3.456   7.602   4.420  1.2410 -1.8305  0.6989
    3MOL    H44  688   3.386   7.765   4.211  2.3489  0.0688 -0.1718
    3MOL    H45  689   3.313   7.783   4.363 -0.0125  0.5648  0.6822
    3MOL    H46  690   3.357   0.074   4.250  0.3332 -0.4822 -1.8537
    3MOL    H47  691   3.506   0.211   4.321  0.6463 -1.7088 -3.5552
    3MOL    H48  692   3.662   0.148   4.388  0.1151 -1.9526  0.7447
    3MOL    H49  693   3.508   0.164   4.483 -1.6225  1.3925 -0.7425
    3MOL    C50  694   3.640   7.536   4.488 -0.0635 -0.1836  0.4323
    3MOL    C51  695   3.635   7.545   4.640 -0.4678 -0.5668 -0.5732
    3MOL    C52  696   3.490   7.539   4.690  0.9009  0.1767 -0.1180
    3MOL    O53  697   3.438   7.644   4.729  0.6984 -0.5443  0.2430
    3MOL    N54  698   3.423   7.423   4.689 -0.6004 -0.4578 -0.5796
    3MOL    C55  699   3.281   7.412   4.726  0.0858  0.6229  0.6606
    3MOL    C56  700   3.473   7.299   4.632 -0.4372 -0.5901  0.0558
    3MOL    H57  701   3.627   7.430   4.465  0.0843 -0.5535  2.0226
    3MOL    H58  702   3.745   7.535   4.456  0.0771  0.6941  0.8653
    3MOL    H59  703   3.681   7.453   4.677  0.0650 -0.5534 -1.1785
    3MOL    H60  704   3.240   7.345   4.651  0.5565 -2.0219  2.6531
    3MOL    H61  705   3.280   7.357   4.821  0.2134  0.2728  0.4622
    3MOL    H62  706   3.221   7.501   4.742  2.3368  2.3728 -0.3458
    3MOL    H63  707   3.580   7.283   4.641 -0.4102  0.5986  2.0894
    3MOL    H64  708   3.458   7.309   4.524  0.5407 -0.5423 -0.0809
    3MOL    H65  709   3.418   7.213   4.669 -2.2202  1.0467  1.3202
    3MOL    C66  710   3.723   7.665   4.700  0.2638 -0.5617  0.2582
    3MOL    C67  711   3.880   7.666   4.664  0.6738  0.1042 -0.0310
    3MOL    C68  712   3.964   7.542   4.717  0.1353  0.7097 -0.0912
    3MOL    O69  713   3.918   7.472   4.806 -0.0759 -0.4100 -0.1336
    3MOL    N70  714   4.094   7.517   4.665  0.3120 -0.3992 -0.5709
    3MOL    C71  715   4.171   7.599   4.573  1.0767  0.1438  0.0888
    3MOL    C72  716   4.174   7.406   4.721  0.2258 -0.5795 -0.2879
    3MOL    H73  717   3.681   7.759   4.662  0.9992 -0.2430  0.2379
    3MOL    H74  718   3.704   7.681   4.806  0.6353  0.2596  0.2110
    3MOL    H75  719   3.893   7.653   4.556  0.0346  0.9256 -0.2223
    3MOL    H76  720   4.224   7.541   4.498 -1.3939 -3.1230  0.7520
    3MOL    H77  721   4.104   7.655   4.508  1.7648  0.7235 -0.1212
    3MOL    H78  722   4.228   7.673   4.629  0.4321  1.0677 -0.4689
    3MOL    H79  723   4.145   7.312   4.675 -3.5336 -0.0931  0.8924
    3MOL    H80  724   4.164   7.401   4.829 -0.3005 -2.5297 -0.4159
    3MOL    H81  725   4.280   7.424   4.706  0.5891 -2.2565  0.1966
    3MOL    C82  726   3.939   7.801   4.703  0.3764  0.1192  0.0280
    3MOL    C83  727   3.970   7.822   4.855  0.2430 -0.4682  0.4479
    3MOL    C84  728   3.844   0.035   4.927  0.3446 -0.2137  0.3911
    3MOL    O85  729   3.790   0.131   4.866 -0.8745 -0.2811 -0.4758
    3MOL    N86  730   3.783   7.840   5.036  0.3475  0.9371  0.0365
    3MOL    C87  731   3.820   7.719   5.097  0.4421 -0.0621  0.2831
    3MOL    C88  732   3.665   0.050   5.102  0.6692 -0.3259  0.6685
    3MOL    H89  733   4.034   7.817   4.651 -0.3151  0.7487 -1.0873
    3MOL    H90  734   3.888   0.033   4.658  1.9353  1.2405  0.3471
    3MOL    H91  735   3.994   7.729   4.908  0.5758 -0.4408  0.3440
    3MOL    H92  736   3.922   7.720   5.136  0.2779 -1.3137  0.7525
    3MOL    H93  737   3.757   7.675   5.174 -2.9598  3.1475 -0.5028
    3MOL    H94  738   3.825   7.644   5.018 -0.9176  2.0784 -1.9218
    3MOL    H95  739   3.625   0.144   5.064 -0.5453 -1.2347 -0.3172
    3MOL    H96  740   3.703   0.083   5.199  0.3740  1.0139  0.3430
    3MOL    H97  741   3.593   7.829   5.137  3.0124 -1.1148  4.0719
    3MOL    C98  742   4.084   0.068   4.875  0.0476 -0.5707  0.1969
    3MOL    C99  743   4.229   0.015   4.907 -0.4184 -0.8970  0.5796
    3MOL   C100  744   4.237   7.781   5.033  0.0542  1.0094  0.3651
    3MOL   O101  745   4.159   7.815   5.125  1.0096 -0.0871 -0.1779
    3MOL   N102  746   4.319   7.669   5.052 -0.2687 -0.1679  0.1040
    3MOL   C103  747   4.424   7.639   4.957  0.9303  0.1483 -0.5788
    3MOL   C104  748   4.316   7.593   5.172 -0.3931 -0.1042  0.3948
    3MOL   H105  749   4.086   0.131   4.786 -2.2325  0.7310  1.0278
    3MOL   H106  750   4.075   0.150   4.946  2.3037 -1.7424  1.8481
    3MOL   H107  751   4.237   7.812   4.813 -2.2243  0.1757 -0.2343
    3MOL   H108  752   4.489   7.725   4.941  1.9408 -0.0965  2.0591
    3MOL   H109  753   4.492   7.562   4.995 -1.6726 -1.1497  1.5943
    3MOL   H110  754   4.377   7.609   4.863  1.7082  1.3765 -1.3729
    3MOL   H111  755   4.275   7.645   5.259 -0.3246  1.3042 -0.3970
    3MOL   H112  756   4.418   7.562   5.194 -0.1070  0.5868  0.0603
    3MOL   H113  757   4.266   7.496   5.161 -0.7870 -0.1917  2.6604
    3MOL   C114  758   4.329   0.136   4.922  0.4778 -0.2984  0.0903
    3MOL   C115  759   4.393   0.214   4.803  0.4356 -0.2560  0.2449
    3MOL   C116  760   4.457   0.113   4.706  0.6424  0.0525  0.1789
    3MOL   O117  761   4.557   0.050   4.746 -0.1711  0.0422  0.4580
    3MOL   N118  762   4.398   0.082   4.582  0.1539 -0.6483  0.3209
    3MOL   C119  763   4.451   7.837   4.492  0.3687 -0.6466 -0.1332
    3MOL   C120  764   4.268   0.129   4.534 -0.3632 -0.0365 -0.4953
    3MOL   H121  765   4.283   0.210   4.987  0.9914  2.1307 -2.2360
    3MOL   H122  766   4.417   0.098   4.974  1.8830  3.3853  0.5269
    3MOL   H123  767   4.319   0.279   4.757  0.9736  0.7158  0.7410
    3MOL   H124  768   4.488   0.031   4.401 -2.0012 -0.0345 -0.8200
    3MOL   H125  769   4.536   7.776   4.524  2.3471  1.6715 -0.8480
    3MOL   H126  770   4.376   7.766   4.457 -0.5901  1.2772 -2.0810
    3MOL   H127  771   4.183   0.060   4.541 -0.6351  0.4580  1.3563
    3MOL   H128  772   4.273   0.153   4.428  1.4835  0.9592 -0.2044
    3MOL   H129  773   4.255   0.231   4.569 -0.9842 -0.1523 -0.3810
    3MOL   C130  774   4.505   0.309   4.865 -0.1789  0.8215 -0.1635
    3MOL   C131  775   4.557   0.422   4.779 -0.2875  0.6056 -0.0850
    3MOL   C132  776   4.450   0.494   4.692  0.0892  0.8682  0.7014
    3MOL   O133  777   4.408   0.438   4.588 -0.3754  0.0515  0.3840
    3MOL   N134  778   4.405   0.620   4.718  0.4410 -0.0298  0.4001
    3MOL   C135  779   4.442   0.703   4.839 -0.2477  0.1959 -0.4647
    3MOL   C136  780   4.311   0.691   4.641 -0.3222 -0.4599 -0.5482
    3MOL   H137  781   4.448   0.367   4.938 -0.0806  1.3687 -0.5166
    3MOL   H138  782   4.580   0.252   4.919 -0.2506  1.5106  0.6717
    3MOL   H139  783   4.604   0.500   4.839 -1.7127 -0.1263  2.0535
    3MOL   H140  784   4.371   0.786   4.843 -1.0198 -0.5095  0.9306
    3MOL   H141  785   4.424   0.648   4.931 -1.1498  0.5891 -0.3955
    3MOL   H142  786   4.546   0.735   4.845 -0.5639  0.9963  0.9707
    3MOL   H143  787   4.217   0.688   4.696  0.5436  1.7621  1.1188
    3MOL   H144  788   4.308   0.649   4.540 -1.0684 -0.4233 -0.5446
    3MOL   H145  789   4.342   0.795   4.634 -3.2466  0.7773  3.3942
    3MOL   C146  790   4.679   0.372   4.695  0.3171 -0.2524  0.1401
    3MOL   C147  791   4.743   0.471   4.583  0.8767  0.0414  0.7925
    3MOL   C148  792   4.821   0.384   4.480 -0.2657  0.0767 -0.4165
    3MOL   O149  793   4.949   0.373   4.490  0.0333 -0.5361 -0.1964
    3MOL   N150  794   4.753   0.304   4.397 -0.1077  0.4172  0.0937
    3MOL   C151  795   4.613   0.316   4.363  0.3180 -0.0224 -0.3673
    3MOL   C152  796   4.821   0.190   4.330 -0.3499 -0.5734 -0.2899
    3MOL   H153  797   4.762   0.345   4.760 -0.1199 -0.7299  0.5010
    3MOL   H154  798   4.646   0.278   4.651  0.5351 -0.0947 -0.3598
    3MOL   H155  799   4.666   0.525   4.529  1.8216 -0.8286 -1.4979
    3MOL   H156  800   4.577   0.419   4.368  3.0820  1.0176 -1.0182
    3MOL   H157  801   4.584   0.288   4.262  0.9276  1.0945 -0.8606
    3MOL   H158  802   4.561   0.250   4.433  1.9038 -1.2406 -0.3091
    3MOL   H159  803   4.880   0.226   4.245  0.7683  1.7464  1.4098
    3MOL   H160  804   4.749   0.117   4.295  1.7424 -1.3705 -3.1836
    3MOL   H161  805   4.893   0.134   4.389 -0.9577 -1.6396 -0.5458
    3MOL   C162  806   4.822   0.583   4.647  0.2109 -0.1964  0.1903
    3MOL   C163  807   4.837   0.712   4.558 -0.4400 -0.1749  0.3288
    3MOL   C164  808   4.962   0.798   4.598  0.2539  0.1002 -0.2029
    3MOL   O165  809   4.952   0.881   4.689  0.2513 -0.4161 -0.2436
    3MOL   N166  810   5.074   0.793   4.522  0.9002 -0.3695 -0.2441
    3MOL   C167  811   5.183   0.892   4.529 -0.5380 -0.0474  0.3658
    3MOL   C168  812   5.108   0.689   4.423 -0.9184  0.5059 -0.2064
    3MOL   H169  813   4.784   0.612   4.745 -0.3134  3.2864 -0.9983
    3MOL   H170  814   4.925   0.554   4.670 -0.0392 -0.1108  1.4784
    3MOL   H171  815   4.846   0.683   4.454 -3.1894 -1.3260  0.3683
    3MOL   H172  816   5.217   0.916   4.630 -0.7887  2.5029 -0.1376
    3MOL   H173  817   5.275   0.861   4.480  0.2242  0.6682  1.3199
    3MOL   H174  818   5.147   0.979   4.476  0.0133 -0.2118 -0.2788
    3MOL   H175  819   5.088   0.588   4.459  1.2937  0.5793  1.3000
    3MOL   H176  820   5.215   0.692   4.408 -0.5143 -1.1529  2.0616
    3MOL   H177  821   5.055   0.702   4.329  0.1873 -1.5401 -1.1333
    3MOL   C178  822   4.712   0.800   4.563  0.0937  0.2631  0.3161
    3MOL   C179  823   4.674   0.911   4.467 -0.3319 -0.4405  0.0072
    3MOL   C180  824   4.704   0.868   4.324 -0.0462 -0.1962  0.0981
    3MOL   O181  825   4.816   0.861   4.284  0.0130 -0.0224 -0.5410
    3MOL   N182  826   4.607   0.839   4.235 -0.2139 -0.4107  0.0374
    3MOL   C183  827   4.460   0.845   4.274  0.4017  0.6809 -0.0110
    3MOL   C184  828   4.630   0.800   4.089  0.7221 -0.3824  0.1273
    3MOL   H185  829   4.627   0.734   4.546 -0.5841  0.1562  3.6879
    3MOL   H186  830   4.699   0.828   4.668 -0.9225 -2.1761  0.8816
    3MOL   H187  831   4.569   0.936   4.482 -0.1451  0.0311  0.5352
    3MOL   H188  832   4.397   0.826   4.187  1.1555  2.7505 -1.0529
    3MOL   H189  833   4.441   0.764   4.344  0.2012 -0.4943 -1.3780
    3MOL   H190  834   4.427   0.945   4.302  2.4947  1.7963 -1.3974
    3MOL   H191  835   4.592   0.700   4.069  0.3676 -0.1709 -0.2639
    3MOL   H192  836   4.737   0.793   4.072  0.8096 -1.6814  1.1760
    3MOL   H193  837   4.596   0.871   4.014 -1.0228 -1.7572 -0.4165
    3MOL   C194  838   4.735   1.053   4.500  0.5990 -0.7576  0.6189
    3MOL   C195  839   4.652   1.180   4.482 -0.0044  0.1515  0.2084
    3MOL   C196  840   4.646   1.218   4.332  0.2304  0.0340  0.2636
    3MOL   O197  841   4.747   1.243   4.269  0.4908  0.1878  0.0508
    3MOL   N198  842   4.525   1.219   4.269 -0.0490  0.2361 -0.0583
    3MOL   C199  843   4.517   1.207   4.129 -0.4696  0.4685  0.0905
    3MOL   C200  844   4.395   1.241   4.334 -0.0483 -0.4488  0.5680
    3MOL   H201  845   4.767   1.053   4.605  0.9042 -0.5508  0.5261
    3MOL   H202  846   4.828   1.065   4.445  0.8686  0.9631  1.4105
    3MOL   H203  847   4.552   1.166   4.522  0.3011  0.4735  1.0973
    3MOL   H204  848   4.548   1.107   4.100 -1.5971  0.5369 -1.4291
    3MOL   H205  849   4.418   1.221   4.085 -0.1433 -1.5470 -1.3804
    3MOL   H206  850   4.581   1.276   4.074  0.1827  0.9386  1.4270
    3MOL   H207  851   4.313   1.276   4.271 -0.4576 -1.8632  0.3111
    3MOL   H208  852   4.402   1.303   4.423 -0.5913 -2.9362  2.3795
    3MOL   H209  853   4.372   1.149   4.388 -1.3886 -0.5811 -0.1962
    3MOL   C210  854   4.719   1.294   4.562 -0.7169  0.1218 -0.6994
    3MOL   C211  855   4.694   1.294   4.721  0.1008 -0.3642  0.2508
    3MOL   C212  856   4.543   1.281   4.758 -0.2251 -0.7904  0.4985
    3MOL   O213  857   4.468   1.362   4.701  0.5070 -0.4709 -0.3693
    3MOL   N214  858   4.498   1.183   4.841 -0.3021 -0.4025  0.2728
    3MOL   C215  859   4.592   1.113   4.936  0.8351 -0.1152  0.5125
    3MOL   C216  860   4.359   1.142   4.863 -0.0078 -0.4837  0.0652
    3MOL   H217  861   4.827   1.298   4.547 -0.5819 -2.2389 -0.5890
    3MOL   H218  862   4.673   1.382   4.518  0.4852  0.8905 -0.4527
    3MOL   H219  863   4.737   1.202   4.761  1.1241  0.2505  0.5898
    3MOL   H220  864   4.641   1.043   4.869 -0.7566  0.7899 -1.6413
    3MOL   H221  865   4.664   1.184   4.975 -0.1919  1.9852 -1.3537
    3MOL   H222  866   4.545   1.062   5.021  0.0425 -0.8251 -0.3445
    3MOL   H223  867   4.298   1.232   4.850 -0.3415 -0.4846  1.4777
    3MOL   H224  868   4.354   1.105   4.966  0.9502  0.6324  0.5276
    3MOL   H225  869   4.322   1.065   4.796  1.8023 -2.0195  0.7967
    3MOL   C226  870   4.758   1.415   4.790 -0.0122 -0.4567 -0.2705
    3MOL   C227  871   4.910   1.406   4.803 -0.2684  0.0319  0.0198
    3MOL   C228  872   4.951   1.285   4.893 -0.3924 -0.2005 -0.0919
    3MOL   O229  873   4.903   1.280   5.007  0.1880  0.3281 -0.5376
    3MOL   N230  874   5.043   1.198   4.849  0.0777 -0.4758  0.0408
    3MOL   C231  875   5.077   1.180   4.709  0.4263  0.6426  0.0228
    3MOL   C232  876   5.115   1.120   4.942 -0.4589 -0.2310 -0.3149
    3MOL   H233  877   4.736   1.506   4.733  2.0987 -1.0311 -2.0758
    3MOL   H234  878   4.723   1.440   4.890 -1.3067 -1.9751 -0.3255
    3MOL   H235  879   4.950   1.396   4.702  1.6540  0.4874  0.7223
    3MOL   H236  880   5.150   1.102   4.687 -0.2260  0.2566 -0.8002
    3MOL   H237  881   4.986   1.157   4.653  1.4735 -1.2715 -0.9516
    3MOL   H238  882   5.111   1.277   4.674 -0.2150  0.0243 -2.3660
    3MOL   H239  883   5.180   1.175   5.011 -0.3773 -3.2537  2.1347
    3MOL   H240  884   5.161   1.026   4.909  1.8481  0.4040  0.9297
    3MOL   H241  885   5.037   1.078   5.005  0.4111 -0.7607  0.4317
    3MOL   C242  886   4.964   1.532   4.865 -0.1138 -0.2599  0.2964
    3MOL   C243  887   4.951   1.666   4.784 -0.5703  0.2041  0.1240
    3MOL   C244  888   5.032   1.667   4.649  0.2548  0.1294  0.4763
    3MOL   O245  889   5.156   1.659   4.652 -0.2193 -0.5328  0.0967
    3MOL   N246  890   4.964   1.674   4.536  0.1153 -0.1950 -0.0851
    3MOL   C247  891   4.817   1.684   4.515  0.2738 -0.0395  0.9640
    3MOL   C248  892   5.043   1.652   4.409 -0.2255 -0.3385  0.0317
    3MOL   H249  893   4.914   1.545   4.961  0.9515  1.9374  0.5889
    3MOL   H250  894   5.068   1.518   4.894 -0.1386  0.0674  0.5491
    3MOL   H251  895   4.848   1.687   4.756 -1.1984 -0.0978  2.1346
    3MOL   H252  896   4.777   1.769   4.570  1.8663  0.4285  1.4414
    3MOL   H253  897   4.794   1.690   4.409  1.8958  0.3635  0.6190
    3MOL   H254  898   4.776   1.587   4.543 -4.2992  0.8266 -2.1924
    3MOL   H255  899   5.136   1.598   4.430 -0.4222 -0.5046  0.4673
    3MOL   H256  900   5.070   1.745   4.358  2.6564 -0.8289  0.5407
    3MOL   H257  901   4.985   1.588   4.343 -1.8106  0.3907  0.6880
    3MOL   C258  902   4.996   1.785   4.871 -0.5462  0.3791  0.5586
    3MOL   C259  903   4.892   1.870   4.936 -0.3195  0.1971 -1.2359
    3MOL   C260  904   4.814   1.952   4.827  0.0422 -0.5652  0.0111
    3MOL   O261  905   4.871   2.040   4.765 -0.0443  0.4148 -0.4341
    3MOL   N262  906   4.684   1.923   4.797 -0.5291  0.6872  0.0438
    3MOL   C263  907   4.599   2.018   4.729  0.4213  0.4289  0.4260
    3MOL   C264  908   4.609   1.822   4.870  0.5366  0.3604  0.0254
    3MOL   H265  909   5.058   1.755   4.956  2.3974 -1.1976 -2.0410
    3MOL   H266  910   5.061   1.851   4.815  0.7907  1.0898  2.8634
    3MOL   H267  911   4.828   1.809   5.000  1.3453  0.7859  1.0152
    3MOL   H268  912   4.503   1.968   4.715  0.0226  1.0857  0.8042
    3MOL   H269  913   4.591   2.110   4.787  0.6860  2.1257 -2.1424
    3MOL   H270  914   4.639   2.043   4.631 -0.6901  2.0872  0.3801
    3MOL   H271  915   4.517   1.781   4.828  0.2239  1.7526 -0.6384
    3MOL   H272  916   4.580   1.856   4.969 -2.5798  1.9930 -1.4004
    3MOL   H273  917   4.659   1.725   4.880 -1.6254 -0.8942 -0.8119
    3MOL   C274  918   4.967   1.966   5.029 -0.4503 -0.3722  0.4127
    3MOL   C275  919   4.879   2.063   5.113  0.0587 -0.2394 -0.0325
    3MOL   C276  920   4.970   2.180   5.177  0.1798 -0.3783  0.3110
    3MOL   O277  921   5.046   2.152   5.269  0.1660  0.7169 -0.0471
    3MOL   N278  922   4.955   2.307   5.138 -0.4634 -0.6582  0.0404
    3MOL   C279  923   5.044   2.408   5.186 -0.2085 -0.3772 -0.1977
    3MOL   C280  924   4.852   2.360   5.044  0.2133  0.2252  0.2991
    3MOL   H281  925   5.039   1.917   5.096 -0.5767 -1.2636 -0.0990
    3MOL   H282  926   5.036   2.019   4.964 -1.3229 -1.3276 -1.3181
    3MOL   H283  927   4.820   2.108   5.033 -2.2136 -0.4793  1.4880
    3MOL   H284  928   5.009   2.510   5.168  1.2092  0.3354  1.0359
    3MOL   H285  929   5.080   2.394   5.288  0.1906  2.6279  0.1214
    3MOL   H286  930   5.135   2.409   5.127 -0.3794  2.6005 -0.4801
    3MOL   H287  931   4.748   2.360   5.076 -0.0131  1.4839 -0.3746
    3MOL   H288  932   4.859   2.317   4.944 -0.2425  1.1143 -0.1189
    3MOL   H289  933   4.860   2.464   5.011 -3.1223 -0.1342 -1.8460
    3MOL   C290  934   4.791   1.999   5.218  0.2430 -0.2478  0.5200
    3MOL   C291  935   4.693   2.100   5.281 -0.3402 -0.0749 -0.4657
    3MOL   C292  936   4.641   2.040   5.415  0.5315 -0.8813 -0.0391
    3MOL   O293  937   4.538   1.968   5.412 -0.7794 -0.1558  0.3914
    3MOL   N294  938   4.704   2.073   5.529 -0.1301 -0.2605  0.1905
    3MOL   C295  939   4.656   2.031   5.664 -0.4775 -0.3372  0.3681
    3MOL   C296  940   4.829   2.147   5.528  0.4155  0.4399  0.3245
    3MOL   H297  941   4.718   1.926   5.183  0.8677 -1.5334  1.8408
    3MOL   H298  942   4.857   1.946   5.287  0.9956 -0.4630 -0.3529
    3MOL   H299  943   4.734   2.198   5.304 -0.8778 -0.2109  1.1369
    3MOL   H300  944   4.548   2.018   5.674 -0.1013 -1.8397  2.9733
    3MOL   H301  945   4.701   1.935   5.688 -2.3158 -1.1381  0.6703
    3MOL   H302  946   4.682   2.102   5.742 -0.0055  0.4994 -0.5424
    3MOL   H303  947   4.807   2.254   5.518 -0.0028  0.4007  0.7719
    3MOL   H304  948   4.901   2.125   5.450 -2.6013 -2.7093 -1.7041
    3MOL   H305  949   4.867   2.130   5.629 -1.0095 -0.4345  0.7281
    3MOL   C306  950   4.584   2.141   5.188  0.2572  0.0901  0.1211
    3MOL   C307  951   4.487   2.249   5.235 -0.4811  0.5735 -0.5340
    3MOL   C308  952   4.385   2.297   5.135 -0.2482 -0.1547 -0.3445
    3MOL   O309  953   4.411   2.287   5.018 -0.5348  0.3636  0.5553
    3MOL   N310  954   4.270   2.357   5.176  0.0457 -0.0539  1.2992
    3MOL   C311  955   4.172   2.414   5.080 -0.1676  0.7791 -0.5098
    3MOL   C312  956   4.249   2.388   5.319 -0.9790 -0.0575 -0.0024
    3MOL   H313  957   4.622   2.173   5.091  1.0932  0.6580  0.6279
    3MOL   H314  958   4.527   2.051   5.165 -0.2955 -0.4251  3.3087
    3MOL   H315  959   4.433   2.206   5.319  2.1181 -0.0624  0.8670
    3MOL   H316  960   4.145   2.518   5.099 -1.1542  0.9525 -2.6643
    3MOL   H317  961   4.194   2.404   4.973  1.8110  2.1605 -0.2746
    3MOL   H318  962   4.078   2.360   5.087  0.8450 -0.7973  1.2880
    3MOL   H319  963   4.241   2.293   5.373  0.5665  0.6521  1.5103
    3MOL   H320  964   4.164   2.451   5.345 -1.2702 -0.9680  1.3243
    3MOL   H321  965   4.335   2.441   5.360 -1.9835 -0.2686  2.4892
    3MOL   H322  966   4.546   2.331   5.277  0.3980 -0.2923 -0.0572
    4MOL     C1  967   3.473   0.904   4.124 -0.7318 -0.1272 -0.3840
    4MOL     C2  968   3.495   0.846   3.986  0.0517  0.2729  0.4851
    4MOL     C3  969   3.614   0.916   3.915 -0.3736  0.4674 -0.9239
    4MOL     O4  970   3.606   1.036   3.892 -0.0380  0.1436 -0.6859
    4MOL     N5  971   3.721   0.846   3.871  0.1425 -0.6523 -0.0571
    4MOL     C6  972   3.756   0.717   3.915 -0.7994  0.0332  0.2810
    4MOL     C7  973   3.822   0.907   3.785  0.0554 -0.0586  0.3056
    4MOL     H8  974   3.489   1.009   4.146 -0.7446 -0.4434  1.1556
    4MOL     H9  975   3.538   0.858   4.198 -0.3407 -0.1063 -0.7135
    4MOL    H10  976   3.514   0.741   4.009 -1.0265  0.3994  2.0388
    4MOL    H11  977   3.848   0.674   3.875  0.6558 -0.7075  4.2602
    4MOL    H12  978   3.766   0.716   4.023 -0.9036 -0.1542  0.2907
    4MOL    H13  979   3.679   0.642   3.893  0.7322 -1.8927  1.3809
    4MOL    H14  980   3.877   0.830   3.731 -1.0429 -0.8918  0.3528
    4MOL    H15  981   3.897   0.959   3.845 -0.1952  0.6603  0.0030
    4MOL    H16  982   3.776   0.969   3.708 -3.6045 -1.4360  1.2927
    4MOL    H17  983   3.374   0.873   4.158  0.0078 -2.3090 -0.1197
    4MOL    C18  984   3.358   0.876   3.911 -0.0993  0.6154  0.4534
    4MOL    C19  985   3.343   0.828   3.762  0.9006 -0.3136 -0.4427
    4MOL    C20  986   3.209   0.875   3.713  0.7240 -0.7104  0.6879
    4MOL    O21  987   3.105   0.810   3.736  0.0883 -0.8597  0.0942
    4MOL    N22  988   3.204   0.981   3.630 -0.3289  0.3350 -0.9012
    4MOL    C23  989   3.320   1.070   3.601 -0.5811  0.3108  0.3424
    4MOL    C24  990   3.078   1.021   3.574  0.2490 -0.4940  0.6659
    4MOL    H25  991   3.280   0.841   3.979 -0.1377  2.8896  1.6087
    4MOL    H26  992   3.342   0.984   3.902  0.6062  0.7594  0.9259
    4MOL    H27  993   3.422   0.872   3.701  0.6026  0.0610 -0.5664
    4MOL    H28  994   3.405   1.070   3.670  0.2661  0.8308 -0.6776
    4MOL    H29  995   3.359   1.050   3.501  0.0079 -0.0242  0.6350
    4MOL    H30  996   3.284   1.173   3.610  0.5517  0.8592 -1.0622
    4MOL    H31  997   3.072   1.130   3.579  0.2817 -0.3801 -1.3337
    4MOL    H32  998   2.983   0.985   3.614 -0.3301  0.5553  0.2678
    4MOL    H33  999   3.087   0.988   3.471  0.4688 -1.5281  1.0044
    4MOL    C34 1000   3.350   0.672   3.752 -0.1747 -0.2537 -0.3457
    4MOL    C35 1001   3.391   0.634   3.607 -0.0776 -0.1106  0.0590
    4MOL    C36 1002   3.339   0.493   3.569  0.1240  0.4156  1.2020
    4MOL    O37 1003   3.411   0.394   3.595  0.1907  0.3256 -0.0479
    4MOL    N38 1004   3.229   0.472   3.493  0.2484  0.3428  0.8406
    4MOL    C39 1005   3.120   0.566   3.475 -0.0106  0.8630 -0.5960
    4MOL    C40 1006   3.201   0.336   3.458  0.0188  0.0714  0.0266
    4MOL    H41 1007   3.422   0.636   3.826  0.3814  2.0623  0.3030
    4MOL    H42 1008   3.252   0.626   3.761 -0.5077  0.2901 -1.1553
    4MOL    H43 1009   3.341   0.707   3.544  2.4079  1.1939 -0.4181
    4MOL    H44 1010   3.098   0.562   3.368  0.5255  0.0085 -0.6777
    4MOL    H45 1011   3.033   0.534   3.533  0.9538 -1.7059 -0.5229
    4MOL    H46 1012   3.139   0.665   3.517  0.5345 -0.2939  1.9790
    4MOL    H47 1013   3.098   0.325   3.426 -0.8186  1.0230  2.2714
    4MOL    H48 1014   3.209   0.270   3.544  3.1816 -0.4304 -0.5986
    4MOL    H49 1015   3.270   0.296   3.384  1.2707 -0.4951  1.4533
    4MOL    C50 1016   3.541   0.663   3.573 -0.0619 -0.3148 -0.0924
    4MOL    C51 1017   3.596   0.605   3.436 -0.3094  0.2815  0.0998
    4MOL    C52 1018   3.745   0.579   3.427 -0.2956  0.7095  0.4279
    4MOL    O53 1019   3.811   0.679   3.451 -0.4448  0.2287  0.0038
    4MOL    N54 1020   3.799   0.454   3.409  0.4441 -0.2335 -0.4248
    4MOL    C55 1021   3.724   0.329   3.404 -0.5550 -0.6838  0.4416
    4MOL    C56 1022   3.936   0.446   3.369  0.3904 -0.1650  0.4208
    4MOL    H57 1023   3.562   0.770   3.573  2.5748 -0.7906 -0.7256
    4MOL    H58 1024   3.589   0.608   3.654 -4.3992 -1.4341  1.9134
    4MOL    H59 1025   3.546   0.510   3.420  1.4026 -0.8515  1.3537
    4MOL    H60 1026   3.646   0.320   3.480 -1.9047 -0.6000 -0.8905
    4MOL    H61 1027   3.684   0.319   3.303 -0.0208  1.8779 -0.0516
    4MOL    H62 1028   3.797   0.250   3.422  1.7617  0.9265 -1.5616
    4MOL    H63 1029   3.996   0.478   3.455 -1.5707 -0.7039  2.0244
    4MOL    H64 1030   3.950   0.513   3.285 -0.4898  0.4753  0.7808
    4MOL    H65 1031   3.983   0.350   3.344  3.8928  1.0498  1.9306
    4MOL    C66 1032   3.566   0.703   3.322  0.7484 -0.7189 -0.0978
    4MOL    C67 1033   3.558   0.628   3.188 -0.2798  0.0996 -0.4363
    4MOL    C68 1034   3.546   0.739   3.082 -0.6358  0.2060 -0.5696
    4MOL    O69 1035   3.462   0.823   3.089  0.3226  0.2494 -0.1281
    4MOL    N70 1036   3.637   0.741   2.981  0.2887  0.1008  0.2795
    4MOL    C71 1037   3.758   0.647   2.969  0.4788 -0.0632  0.0733
    4MOL    C72 1038   3.627   0.839   2.876  0.0555  0.3399  0.6920
    4MOL    H73 1039   3.468   0.747   3.336  1.2062  1.0663 -2.3019
    4MOL    H74 1040   3.634   0.788   3.319  2.3857 -2.0224 -1.4712
    4MOL    H75 1041   3.652   0.575   3.173  0.5534  1.2071  0.7609
    4MOL    H76 1042   3.828   0.688   2.896  3.3684 -1.4480  1.9698
    4MOL    H77 1043   3.816   0.643   3.061  1.2857 -1.5220 -0.4929
    4MOL    H78 1044   3.721   0.551   2.932  1.0119 -0.4470  0.5324
    4MOL    H79 1045   3.533   0.840   2.821  0.5790  0.4350 -0.2079
    4MOL    H80 1046   3.701   0.840   2.796 -1.4562  1.2400 -0.7272
    4MOL    H81 1047   3.647   0.934   2.926  0.1028  1.1027 -0.7450
    4MOL    C82 1048   3.448   0.523   3.180  0.0423  0.0941  0.1610
    4MOL    C83 1049   3.394   0.474   3.042  0.6156  0.0646  0.5118
    4MOL    C84 1050   3.269   0.557   2.993 -0.2395  0.4508  0.8291
    4MOL    O85 1051   3.181   0.579   3.077 -0.1114  0.3511  0.1462
    4MOL    N86 1052   3.251   0.585   2.862 -0.1963  0.3925  0.2938
    4MOL    C87 1053   3.346   0.556   2.760 -0.4294  0.4401 -0.1771
    4MOL    C88 1054   3.140   0.675   2.820  0.2501 -0.1052 -0.4935
    4MOL    H89 1055   3.481   0.429   3.223 -1.0030 -0.0450  0.6734
    4MOL    H90 1056   3.364   0.542   3.247  0.1010 -3.4633  1.2989
    4MOL    H91 1057   3.480   0.467   2.976 -0.2285 -0.3301 -0.5580
    4MOL    H92 1058   3.404   0.465   2.771  0.7541  0.9682 -1.8623
    4MOL    H93 1059   3.312   0.545   2.657 -0.5947 -2.6809  0.1688
    4MOL    H94 1060   3.418   0.638   2.752  0.2021  0.0905  1.5548
    4MOL    H95 1061   3.184   0.774   2.836  1.9945 -0.8588 -0.5028
    4MOL    H96 1062   3.044   0.662   2.869  0.0837  1.1279 -0.4569
    4MOL    H97 1063   3.119   0.670   2.713 -0.6443  0.4515 -0.3524
    4MOL    C98 1064   3.344   0.326   3.057 -0.6378 -0.4328  0.3694
    4MOL    C99 1065   3.446   0.211   3.054  0.1076 -0.6690  0.4724
    4MOL   C100 1066   3.504   0.188   2.909 -0.2718 -0.2037  0.1339
    4MOL   O101 1067   3.416   0.181   2.817 -0.2669 -0.0977 -0.1197
    4MOL   N102 1068   3.633   0.221   2.875 -0.0863 -0.2652  0.6328
    4MOL   C103 1069   3.738   0.230   2.973 -0.4094  0.3311 -0.1781
    4MOL   C104 1070   3.685   0.249   2.736 -0.8703 -0.4687 -0.3313
    4MOL   H105 1071   3.290   0.330   3.151 -3.7644  1.8746 -1.3955
    4MOL   H106 1072   3.265   0.303   2.986  1.5307 -2.6595 -1.4080
    4MOL   H107 1073   3.527   0.252   3.114 -1.8309 -0.7442  3.2283
    4MOL   H108 1074   3.729   0.171   3.064 -1.2030 -0.5650 -0.8254
    4MOL   H109 1075   3.829   0.199   2.921  0.0537  0.3181  0.6370
    4MOL   H110 1076   3.741   0.333   3.008 -0.6586  0.1402  0.4115
    4MOL   H111 1077   3.720   0.350   2.716 -0.7028 -0.3323  0.6201
    4MOL   H112 1078   3.612   0.225   2.658 -0.6742 -0.4362 -0.5264
    4MOL   H113 1079   3.770   0.184   2.713 -1.1061 -1.2049  0.8213
    4MOL   C114 1080   3.396   0.084   3.132  0.0995  0.5336  0.6053
    4MOL   C115 1081   3.271   0.005   3.079 -0.4318 -0.1145 -0.3260
    4MOL   C116 1082   3.140   0.086   3.107  0.2728  0.4924 -0.6943
    4MOL   O117 1083   3.124   0.128   3.222  0.1955 -0.3146 -0.1238
    4MOL   N118 1084   3.041   0.104   3.013  0.0997 -0.6880  0.7120
    4MOL   C119 1085   3.059   0.067   2.871  0.0909 -0.2505 -0.2223
    4MOL   C120 1086   2.902   0.147   3.055  0.2039 -0.3523 -0.6048
    4MOL   H121 1087   3.483   0.019   3.143 -0.0429  0.1604 -0.3449
    4MOL   H122 1088   3.385   0.112   3.237 -0.5275  1.2171  0.3660
    4MOL   H123 1089   3.284   0.001   2.971  2.3224 -1.6001  0.0344
    4MOL   H124 1090   3.087   7.816   2.857  4.1988  0.7946 -0.2531
    4MOL   H125 1091   2.965   0.078   2.817 -0.7492  0.1825  1.2841
    4MOL   H126 1092   3.137   0.132   2.833  0.8334 -1.5779 -1.0139
    4MOL   H127 1093   2.898   0.203   3.149 -2.0218 -1.7951  0.1915
    4MOL   H128 1094   2.842   0.057   3.069 -0.3276  0.3183  1.6061
    4MOL   H129 1095   2.857   0.212   2.980 -0.2370 -1.0203 -0.9201
    4MOL   C130 1096   3.269   7.710   3.127  0.0035  0.0667  0.0117
    4MOL   C131 1097   3.286   7.679   3.278  0.1805 -0.4901  0.0478
    4MOL   C132 1098   3.443   7.700   3.325  0.1392  0.1842 -0.6877
    4MOL   O133 1099   3.531   7.638   3.267  0.3605  0.4403  0.0163
    4MOL   N134 1100   3.462   7.776   3.432 -0.3295  0.4691  0.2852
    4MOL   C135 1101   3.358   7.833   3.519 -0.2234 -0.3154 -0.5477
    4MOL   C136 1102   3.599   7.824   3.457  0.0500 -0.7395  0.2273
    4MOL   H137 1103   3.191   7.655   3.075  0.2349  1.3266 -1.7099
    4MOL   H138 1104   3.352   7.657   3.083  0.1929 -0.2641  0.7643
    4MOL   H139 1105   3.218   7.742   3.336  1.7671 -0.9272  2.4795
    4MOL   H140 1106   3.294   7.761   3.568 -0.8861 -1.5595 -3.1517
    4MOL   H141 1107   3.404   0.048   3.590  1.6355 -0.6280 -1.4076
    4MOL   H142 1108   3.300   0.047   3.456 -1.3351 -1.5065 -0.8054
    4MOL   H143 1109   3.606   7.814   3.566 -1.4558 -0.9730  0.3057
    4MOL   H144 1110   3.616   0.068   3.413 -1.2605  0.1882  1.6971
    4MOL   H145 1111   3.679   7.760   3.420 -2.4902 -2.9934 -1.5296
    4MOL   C146 1112   3.230   7.535   3.315  0.1129 -0.4678 -0.4899
    4MOL   C147 1113   3.316   7.411   3.270  0.0551 -0.0565 -0.4084
    4MOL   C148 1114   3.313   7.379   3.118  0.6858  0.1817  0.5163
    4MOL   O149 1115   3.206   7.344   3.063  0.4132 -0.2344  0.6092
    4MOL   N150 1116   3.427   7.386   3.041 -0.0391 -0.3057 -0.1038
    4MOL   C151 1117   3.561   7.351   3.100 -0.4143  0.3944 -1.0055
    4MOL   C152 1118   3.424   7.405   2.900  0.1268  0.5901  0.0200
    4MOL   H153 1119   3.215   7.539   3.423 -2.0372  0.5518 -0.8028
    4MOL   H154 1120   3.132   7.522   3.268  0.6140 -4.4364 -0.6036
    4MOL   H155 1121   3.418   7.428   3.304 -0.1534 -0.1065  0.2574
    4MOL   H156 1122   3.566   7.286   3.187  0.1910 -2.1154 -2.8875
    4MOL   H157 1123   3.599   7.295   3.015  1.2153  1.1899 -0.8245
    4MOL   H158 1124   3.623   7.440   3.112  0.0527  0.1416 -1.5326
    4MOL   H159 1125   3.516   7.411   2.841  0.0903 -0.1888 -0.1184
    4MOL   H160 1126   3.385   7.504   2.879 -0.3789  0.3510 -0.1583
    4MOL   H161 1127   3.356   7.328   2.864  0.7566 -1.2390  2.5675
    4MOL   C162 1128   3.293   7.280   3.354 -0.1930  0.2048  0.5969
    4MOL   C163 1129   3.157   7.204   3.345  0.0468 -0.1777 -0.2155
    4MOL   C164 1130   3.046   7.299   3.402 -0.5969 -0.2287 -0.2506
    4MOL   O165 1131   3.066   7.360   3.508 -0.1098 -0.1913  0.3724
    4MOL   N166 1132   2.932   7.319   3.329  0.3578 -0.0144 -0.2024
    4MOL   C167 1133   2.895   7.290   3.189  0.3179  0.2820 -0.0975
    4MOL   C168 1134   2.828   7.407   3.389 -0.2592 -0.2571 -0.2951
    4MOL   H169 1135   3.367   7.209   3.318 -0.8941 -1.2655  1.9566
    4MOL   H170 1136   3.322   7.291   3.459 -0.9971  0.7665  0.7666
    4MOL   H171 1137   3.134   7.181   3.242 -0.8728  0.5647 -0.1826
    4MOL   H172 1138   2.967   7.333   3.119 -1.4254  1.3021 -1.3125
    4MOL   H173 1139   2.896   7.183   3.173 -0.2203 -0.2262  2.9065
    4MOL   H174 1140   2.794   7.322   3.161 -0.1240 -1.2139 -0.2410
    4MOL   H175 1141   2.829   7.410   3.498 -0.3207 -0.3564 -0.2922
    4MOL   H176 1142   2.730   7.372   3.359 -0.9481 -0.7070  2.4204
    4MOL   H177 1143   2.839   7.513   3.365 -1.8486 -0.3592 -1.5572
    4MOL   C178 1144   3.160   7.073   3.424  0.3298 -0.1172 -0.2115
    4MOL   C179 1145   3.068   6.956   3.367  0.1910 -0.5117  0.3417
    4MOL   C180 1146   2.957   6.907   3.470  0.2760  0.3514  0.8425
    4MOL   O181 1147   2.994   6.850   3.570 -0.3087  0.1050  0.2454
    4MOL   N182 1148   2.831   6.927   3.451  0.6577 -0.5684 -0.2451
    4MOL   C183 1149   2.735   6.923   3.562 -0.2810  0.4201 -0.0961
    4MOL   C184 1150   2.764   6.949   3.324 -0.1425  0.3543 -0.8563
    4MOL   H185 1151   3.259   7.031   3.445 -0.8493 -2.5993  0.5233
    4MOL   H186 1152   3.137   7.096   3.528 -1.2201 -0.1312 -0.5497
    4MOL   H187 1153   3.018   6.989   3.276 -1.4296  0.5681  1.5977
    4MOL   H188 1154   2.777   6.932   3.662  0.1429  0.7088 -0.2995
    4MOL   H189 1155   2.671   7.009   3.542  1.6231  1.6778 -0.9596
    4MOL   H190 1156   2.683   6.829   3.546 -1.1832  0.6472  1.3885
    4MOL   H191 1157   2.665   6.905   3.321 -1.1894  2.6188 -0.8663
    4MOL   H192 1158   2.825   6.906   3.245 -1.5783  0.4848 -2.0513
    4MOL   H193 1159   2.763   7.053   3.291  3.0324  0.6162 -0.2873
    4MOL   C194 1160   3.159   6.836   3.331  0.3447  0.3307  0.3413
    4MOL   C195 1161   3.255   6.856   3.207 -0.1757  0.4121 -0.1215
    4MOL   C196 1162   3.174   6.851   3.078 -0.3291 -0.3357 -0.6981
    4MOL   O197 1163   3.066   6.791   3.079  0.1711 -0.9600 -0.3290
    4MOL   N198 1164   3.221   6.915   2.970  0.4557  0.1303 -0.6306
    4MOL   C199 1165   3.331   7.010   2.973  0.9466  0.0285  0.1566
    4MOL   C200 1166   3.147   6.909   2.845 -0.3550 -0.6783 -0.0535
    4MOL   H201 1167   3.218   6.806   3.418  0.3747 -0.2758  0.1146
    4MOL   H202 1168   3.095   6.749   3.322 -1.8506  1.8544  0.7094
    4MOL   H203 1169   3.314   6.947   3.213  0.8022 -0.3177  1.9167
    4MOL   H204 1170   3.410   6.984   3.043 -2.1809 -2.1552  3.0141
    4MOL   H205 1171   3.380   7.020   2.876 -1.8273  0.4088 -1.2637
    4MOL   H206 1172   3.275   7.098   3.003 -2.7362 -1.5582 -1.7547
    4MOL   H207 1173   3.060   6.975   2.852  1.0435  1.4891 -2.4594
    4MOL   H208 1174   3.107   6.810   2.824 -1.9770  0.1323 -0.8374
    4MOL   H209 1175   3.210   6.929   2.759  0.0097 -2.2640 -0.1694
    4MOL   C210 1176   3.369   6.751   3.205 -0.5408  0.0734  0.1411
    4MOL   C211 1177   3.448   6.723   3.330  0.5352  0.1954 -0.5631
    4MOL   C212 1178   3.498   6.854   3.404  0.3948 -0.3183  0.0623
    4MOL   O213 1179   3.541   6.945   3.334 -0.2481 -0.3233 -0.7771
    4MOL   N214 1180   3.493   6.857   3.540 -0.0018  0.3104  0.3430
    4MOL   C215 1181   3.445   6.756   3.632 -0.1908 -0.9472 -0.2016
    4MOL   C216 1182   3.546   6.970   3.608 -0.1377 -0.0545  0.1365
    4MOL   H217 1183   3.327   6.654   3.180 -1.1192  0.4567 -0.3911
    4MOL   H218 1184   3.439   6.783   3.128 -0.5811  3.6305  1.4593
    4MOL   H219 1185   3.389   6.659   3.397 -0.8965  1.4804 -0.5774
    4MOL   H220 1186   3.523   6.686   3.661  2.1589  1.3281 -0.8563
    4MOL   H221 1187   3.421   6.812   3.723  0.0070 -1.8571  0.4234
    4MOL   H222 1188   3.355   6.701   3.605 -1.8359  2.4745 -2.1071
    4MOL   H223 1189   3.609   6.948   3.694  0.2852  0.0971 -0.1347
    4MOL   H224 1190   3.466   7.034   3.648 -0.0530 -0.9575  1.8110
    4MOL   H225 1191   3.606   7.031   3.540  0.3937 -0.9274 -0.1797
    4MOL   C226 1192   3.576   6.645   3.282 -0.2809  0.6963 -0.7283
    4MOL   C227 1193   3.564   6.490   3.273  0.0671  0.2631 -0.1453
    4MOL   C228 1194   3.538   6.434   3.418 -0.5826  0.3656 -0.4726
    4MOL   O229 1195   3.620   6.443   3.514 -0.4316 -0.5381  0.3809
    4MOL   N230 1196   3.429   6.358   3.448 -0.0143  0.2205  0.4999
    4MOL   C231 1197   3.429   6.270   3.575  0.1099  0.1869  0.0313
    4MOL   C232 1198   3.298   6.374   3.389  0.4167 -0.1507  0.0868
    4MOL   H233 1199   3.617   6.692   3.192  0.8064 -1.3476 -1.3284
    4MOL   H234 1200   3.648   6.678   3.357 -0.6996 -0.4199  0.1698
    4MOL   H235 1201   3.482   6.462   3.208 -0.4321  2.4343 -0.4586
    4MOL   H236 1202   3.430   6.328   3.667 -3.8247 -1.0099  0.9306
    4MOL   H237 1203   3.336   6.213   3.579 -0.5369  1.2666  0.6518
    4MOL   H238 1204   3.514   6.202   3.569 -0.4329 -0.3674 -1.8005
    4MOL   H239 1205   3.278   6.474   3.350 -2.2018  0.2072  2.2444
    4MOL   H240 1206   3.216   6.345   3.455  0.8917 -3.6912 -0.7459
    4MOL   H241 1207   3.280   6.300   3.311  1.5819  0.4355 -0.7496
    4MOL   C242 1208   3.682   6.413   3.212  0.2969  0.8837  0.3496
    4MOL   C243 1209   3.737   6.459   3.073 -0.2674  0.6054  0.6277
    4MOL   C244 1210   3.634   6.505   2.959  0.2431 -0.2515 -0.4439
    4MOL   O245 1211   3.515   6.465   2.964  0.2436 -0.0171  0.0561
    4MOL   N246 1212   3.672   6.610   2.879  0.9795  0.3334  0.3474
    4MOL   C247 1213   3.809   6.638   2.829  0.7905  0.4814  1.0303
    4MOL   C248 1214   3.578   6.703   2.827 -0.8809 -0.3559  0.2447
    4MOL   H249 1215   3.766   6.405   3.282  0.7106 -0.5653 -0.2870
    4MOL   H250 1216   3.633   6.317   3.198 -0.3770  1.1908  0.6036
    4MOL   H251 1217   3.807   6.542   3.085 -0.9184  1.2437  0.0422
    4MOL   H252 1218   3.881   6.592   2.896  2.3054  3.2720  1.3896
    4MOL   H253 1219   3.812   6.590   2.731 -0.5405  0.1415  1.1507
    4MOL   H254 1220   3.842   6.742   2.820 -0.3930  0.7907  0.1966
    4MOL   H255 1221   3.573   6.704   2.718 -1.4969  1.3478  0.2663
    4MOL   H256 1222   3.605   6.803   2.863  0.8596 -1.2756  1.5718
    4MOL   H257 1223   3.478   6.683   2.865 -0.8380  0.5461  0.8482
    4MOL   C258 1224   3.814   6.338   3.012 -0.0281 -0.1852  0.1073
    4MOL   C259 1225   3.938   6.289   3.091 -0.3693 -0.4921 -0.1817
    4MOL   C260 1226   4.069   6.375   3.064  0.2746 -0.3510  0.1721
    4MOL   O261 1227   4.093   6.410   2.949  0.4401 -0.0178  0.1249
    4MOL   N262 1228   4.152   6.407   3.165 -0.1785  0.1294 -0.3814
    4MOL   C263 1229   4.282   6.475   3.134  0.1099 -0.7296  0.2235
    4MOL   C264 1230   4.157   6.337   3.295  0.6659 -0.2335 -0.3004
    4MOL   H265 1231   3.752   6.249   3.001 -1.7406  0.9890  0.0815
    4MOL   H266 1232   3.846   6.358   2.910 -0.8540 -1.3757 -0.3935
    4MOL   H267 1233   3.928   6.316   3.196  0.4895 -1.5474  0.1755
    4MOL   H268 1234   4.360   6.416   3.085  0.6171  1.6762 -2.0133
    4MOL   H269 1235   4.280   6.544   3.050  1.3227 -1.9154 -0.7990
    4MOL   H270 1236   4.327   6.527   3.219  0.2614  0.1924 -0.4143
    4MOL   H271 1237   4.260   6.309   3.318  1.0241  1.7213  0.6235
    4MOL   H272 1238   4.101   6.244   3.297  3.4898 -2.0618 -2.0474
    4MOL   H273 1239   4.118   6.408   3.367 -1.8255 -1.7733 -0.0599
    4MOL   C274 1240   3.965   6.135   3.079 -0.2196  0.5552  1.0309
    4MOL   C275 1241   4.039   6.081   2.947  0.3958  0.4628  0.0303
    4MOL   C276 1242   3.963   6.107   2.812 -0.2854  0.6639  0.5123
    4MOL   O277 1243   3.843   6.079   2.808  1.0438 -0.2256 -0.8268
    4MOL   N278 1244   4.022   6.164   2.704 -0.1210 -0.2024  0.2660
    4MOL   C279 1245   4.163   6.196   2.696 -0.5366 -0.9665  0.2317
    4MOL   C280 1246   3.942   6.195   2.584  0.3989 -0.0361  0.0176
    4MOL   H281 1247   4.011   6.099   3.171  0.3755  1.2881  1.0308
    4MOL   H282 1248   3.873   6.078   3.089  0.5470 -1.2144 -1.4438
    4MOL   H283 1249   4.130   6.139   2.934 -0.3630  0.9982 -3.5293
    4MOL   H284 1250   4.193   6.221   2.594 -3.0857 -0.5054 -0.4466
    4MOL   H285 1251   4.182   6.278   2.765  1.4522 -0.0182 -1.3844
    4MOL   H286 1252   4.221   6.105   2.717  1.4503  0.3577  0.5921
    4MOL   H287 1253   4.003   6.180   2.496  1.8864 -0.3014  1.0712
    4MOL   H288 1254   3.919   6.301   2.572  0.1651 -0.0320  0.4817
    4MOL   H289 1255   3.844   6.147   2.578  1.0373 -1.5769  1.6564
    4MOL   C290 1256   4.064   5.926   2.968  0.3187  0.0549 -0.0054
    4MOL   C291 1257   4.199   5.888   3.036 -0.1635  0.0874 -0.1952
    4MOL   C292 1258   4.210   5.943   3.182 -0.1217 -0.0074  0.0725
    4MOL   O293 1259   4.268   6.045   3.212 -0.1466 -0.2029 -0.5686
    4MOL   N294 1260   4.153   5.874   3.286  0.0919  0.7665 -0.5257
    4MOL   C295 1261   4.065   5.758   3.278 -0.5742 -0.5154  0.0942
    4MOL   C296 1262   4.174   5.921   3.423  0.2224  0.5737 -0.6196
    4MOL   H297 1263   3.980   5.884   3.023  1.4343  0.5754  2.1210
    4MOL   H298 1264   4.061   5.867   2.876 -0.6654 -0.8632  0.6049
    4MOL   H299 1265   4.208   5.780   3.033 -1.9182 -0.0428 -1.5012
    4MOL   H300 1266   4.068   5.696   3.189  0.0370  0.4242 -0.5505
    4MOL   H301 1267   4.087   5.698   3.366  1.2293  2.0108  1.4328
    4MOL   H302 1268   3.959   5.780   3.290 -0.5073 -0.4259  0.5369
    4MOL   H303 1269   4.123   5.868   3.503 -1.0463  0.8677 -1.2108
    4MOL   H304 1270   4.168   6.029   3.441 -1.0749  0.5868 -1.0458
    4MOL   H305 1271   4.280   5.905   3.442  0.0057  0.2181  0.3118
    4MOL   C306 1272   4.328   5.941   2.957  0.0561 -0.4422  0.7241
    4MOL   C307 1273   4.462   5.871   2.985 -0.2575  0.1849  0.8297
    4MOL   C308 1274   4.474   5.721   2.936  0.2191 -0.2941  0.1634
    4MOL   O309 1275   4.383   5.674   2.867 -0.5424  0.4473  0.6455
    4MOL   N310 1276   4.587   5.654   2.957  0.4058  0.0747  0.0162
    4MOL   C311 1277   4.606   5.514   2.909  0.3668 -0.0580 -0.0776
    4MOL   C312 1278   4.687   5.712   3.048  0.2192  0.0958 -0.0811
    4MOL   H313 1279   4.316   5.945   2.849  0.2332 -0.3611  0.7080
    4MOL   H314 1280   4.346   6.046   2.980  0.0147 -0.2005 -0.3356
    4MOL   H315 1281   4.544   5.923   2.937  0.4361 -0.2459  1.5287
    4MOL   H316 1282   4.682   5.462   2.967  1.1251  1.3388  0.2092
    4MOL   H317 1283   4.508   5.467   2.921  0.6833 -0.5474  0.6525
    4MOL   H318 1284   4.630   5.510   2.803  0.0528  0.4764 -0.1692
    4MOL   H319 1285   4.646   5.759   3.138 -2.5036 -2.1320 -0.0877
    4MOL   H320 1286   4.740   5.798   3.007 -0.2301  1.0256  1.2654
    4MOL   H321 1287   4.773   5.655   3.082  1.2269  0.5576 -1.8034
    4MOL   H322 1288   4.485   5.877   3.092  1.7406 -1.3246  0.5212
    5MOL     C1 1289   3.697   4.717   1.054 -0.2086  0.8669 -0.3116
    5MOL     C2 1290   3.593   4.674   1.159  0.4316  0.5869  0.6098
    5MOL     C3 1291   3.658   4.654   1.299 -0.2247 -0.1242 -0.2591
    5MOL     O4 1292   3.727   4.553   1.314  0.2203  0.0095 -0.4732
    5MOL     N5 1293   3.648   4.739   1.400  0.0438 -0.1511 -0.4236
    5MOL     C6 1294   3.713   4.715   1.529  0.2904 -0.1667 -0.1288
    5MOL     C7 1295   3.576   4.873   1.392 -0.0999 -0.2764  0.5539
    5MOL     H8 1296   3.783   4.650   1.052 -1.7137 -1.2783  2.4867
    5MOL     H9 1297   3.748   4.813   1.062 -0.9348  1.2004  0.4288
    5MOL    H10 1298   3.522   4.756   1.152  1.5356  1.5175  0.2435
    5MOL    H11 1299   3.658   4.630   1.571  0.7151  0.8448  2.5904
    5MOL    H12 1300   3.813   4.682   1.505  1.0299  0.3052  2.1413
    5MOL    H13 1301   3.720   4.790   1.608 -3.1818 -1.3799  1.4663
    5MOL    H14 1302   3.560   4.914   1.292 -2.5693  0.9940  1.4302
    5MOL    H15 1303   3.626   4.950   1.450 -0.1948  0.1334  0.0898
    5MOL    H16 1304   3.476   4.856   1.430 -0.1840 -1.1278 -0.0172
    5MOL    H17 1305   3.662   4.722   0.951 -0.1299  0.6206 -0.3505
    5MOL    C18 1306   3.517   4.543   1.109 -0.8988  0.0578  0.3844
    5MOL    C19 1307   3.365   4.544   1.132 -0.5917 -0.7226 -0.2611
    5MOL    C20 1308   3.319   4.582   1.270  0.4743  1.4926 -0.0697
    5MOL    O21 1309   3.361   4.526   1.371  0.9036 -0.6582 -0.3596
    5MOL    N22 1310   3.221   4.672   1.289  0.7243 -0.4938  0.1600
    5MOL    C23 1311   3.164   4.761   1.182 -0.6912  0.3158  0.4222
    5MOL    C24 1312   3.160   4.700   1.418 -0.2559 -0.4329  0.4108
    5MOL    H25 1313   3.547   4.525   1.006  0.5073 -1.5471  1.0601
    5MOL    H26 1314   3.556   4.458   1.165 -0.2023 -0.0731 -0.2866
    5MOL    H27 1315   3.330   4.614   1.056 -1.0983 -0.9046 -0.1934
    5MOL    H28 1316   3.232   4.845   1.170  0.9603 -0.8515  1.4081
    5MOL    H29 1317   3.137   4.705   1.093  0.7410 -0.2835  0.3487
    5MOL    H30 1318   3.066   4.798   1.213 -1.5943 -1.8605  0.2877
    5MOL    H31 1319   3.178   4.806   1.430 -2.1335 -0.2653  2.1167
    5MOL    H32 1320   3.223   4.664   1.499  0.9556  0.7447  0.0023
    5MOL    H33 1321   3.052   4.682   1.425 -0.6615  2.4336  2.0269
    5MOL    C34 1322   3.315   4.401   1.104  0.3950  0.1223 -0.7014
    5MOL    C35 1323   3.305   4.359   0.953  0.1250  0.5975 -0.1864
    5MOL    C36 1324   3.226   4.456   0.864 -0.2264 -0.1308  0.3040
    5MOL    O37 1325   3.293   4.537   0.805 -0.2140 -0.4205 -0.1344
    5MOL    N38 1326   3.093   4.439   0.842  0.2166  0.1877  0.6481
    5MOL    C39 1327   2.997   4.367   0.928  0.0965  0.2963  0.9047
    5MOL    C40 1328   3.023   4.532   0.750 -0.3688  0.4812  0.4980
    5MOL    H41 1329   3.378   4.330   1.157  0.4389  0.8697  0.2595
    5MOL    H42 1330   3.217   4.393   1.151 -1.3281  3.1575 -3.5380
    5MOL    H43 1331   3.406   4.375   0.915  0.6273  0.9112  1.2371
    5MOL    H44 1332   2.900   4.417   0.936 -1.8858 -3.6389  2.9863
    5MOL    H45 1333   2.988   4.269   0.881  0.2767  0.9144 -0.4496
    5MOL    H46 1334   3.020   4.354   1.034 -0.4779  0.9028  1.1081
    5MOL    H47 1335   3.015   4.631   0.796  1.4175  1.0389 -0.3508
    5MOL    H48 1336   2.929   4.496   0.710  0.1966  1.4993 -1.8775
    5MOL    H49 1337   3.086   4.552   0.663  1.0902 -0.7509  1.2330
    5MOL    C50 1338   3.284   4.206   0.929 -0.1654  0.7170 -0.2212
    5MOL    C51 1339   3.273   4.158   0.787 -0.7643 -0.2721  0.2051
    5MOL    C52 1340   3.221   4.014   0.776  0.6360 -0.0453 -0.9350
    5MOL    O53 1341   3.259   3.942   0.866  0.1630 -0.4781  0.2537
    5MOL    N54 1342   3.143   3.967   0.675  1.0159  0.3200 -0.3242
    5MOL    C55 1343   3.097   3.832   0.672 -0.1242 -0.3592  0.6263
    5MOL    C56 1344   3.101   4.044   0.559 -0.4295  0.0973 -0.1958
    5MOL    H57 1345   3.379   4.163   0.961 -0.0765  1.2776  0.2878
    5MOL    H58 1346   3.215   4.163   1.002 -0.1693  0.4122 -0.4051
    5MOL    H59 1347   3.192   4.213   0.739 -1.0675 -0.2457  0.7399
    5MOL    H60 1348   3.125   3.801   0.571  0.8783  0.5139  0.6162
    5MOL    H61 1349   3.151   3.769   0.742  0.3801 -0.4370  0.1723
    5MOL    H62 1350   2.989   3.822   0.670 -0.2921  1.2165  0.5738
    5MOL    H63 1351   3.022   4.113   0.589  0.9236  2.1014 -1.1063
    5MOL    H64 1352   3.062   3.985   0.475  1.7209 -1.0357 -0.4364
    5MOL    H65 1353   3.189   4.089   0.512 -0.0527 -1.8922 -1.4427
    5MOL    C66 1354   3.400   4.176   0.704  0.2907 -0.4072 -0.4705
    5MOL    C67 1355   3.525   4.106   0.759 -0.2536  1.0115 -0.3499
    5MOL    C68 1356   3.623   4.199   0.841 -0.4670  0.5123  0.2304
    5MOL    O69 1357   3.644   4.313   0.800  0.4174 -0.0445  0.1622
    5MOL    N70 1358   3.657   4.155   0.966  0.0689  0.7787  0.1967
    5MOL    C71 1359   3.648   4.008   1.003 -0.7306  0.3381  0.2706
    5MOL    C72 1360   3.733   4.239   1.060 -0.0010 -0.2999 -0.4234
    5MOL    H73 1361   3.375   4.119   0.614 -0.5105 -1.2817  0.2941
    5MOL    H74 1362   3.420   4.279   0.676 -1.3338  0.0761  0.1234
    5MOL    H75 1363   3.488   4.028   0.826  1.4983  0.3393 -0.1523
    5MOL    H76 1364   3.686   3.944   0.923 -3.2322  1.3904 -1.8661
    5MOL    H77 1365   3.709   3.986   1.090 -0.4920 -0.2388 -0.0398
    5MOL    H78 1366   3.549   3.977   1.035 -0.1858 -1.2993  0.3990
    5MOL    H79 1367   3.825   4.190   1.092  1.3733  1.6345 -1.3338
    5MOL    H80 1368   3.674   4.262   1.149  0.1602 -0.3120 -0.3146
    5MOL    H81 1369   3.757   4.341   1.032 -0.6977 -0.0279 -0.0462
    5MOL    C82 1370   3.610   4.037   0.648 -0.1906 -0.1240  0.4343
    5MOL    C83 1371   3.672   4.124   0.529 -0.6361 -0.7580 -0.3966
    5MOL    C84 1372   3.572   4.140   0.408  0.0662  0.7519 -0.2474
    5MOL    O85 1373   3.521   4.036   0.356  0.7530 -0.0987  0.4461
    5MOL    N86 1374   3.543   4.263   0.359 -0.0161 -0.0129 -0.1694
    5MOL    C87 1375   3.577   4.392   0.409  0.1590 -0.2964 -0.3603
    5MOL    C88 1376   3.458   4.259   0.236  1.0688  0.3246 -0.4954
    5MOL    H89 1377   3.687   3.978   0.696 -1.3073  0.6876  3.3537
    5MOL    H90 1378   3.540   3.963   0.610 -0.9752  0.1697  1.2806
    5MOL    H91 1379   3.680   4.226   0.566 -1.1068 -1.1023  0.6714
    5MOL    H92 1380   3.534   4.411   0.507  1.2201  1.2309 -0.1566
    5MOL    H93 1381   3.684   4.416   0.406  0.0195  0.2217 -1.4430
    5MOL    H94 1382   3.534   4.469   0.345 -1.8531 -0.1988  1.0607
    5MOL    H95 1383   3.441   4.356   0.189  0.0081 -0.2003 -1.2295
    5MOL    H96 1384   3.361   4.214   0.260 -0.4428  3.6088 -0.2394
    5MOL    H97 1385   3.508   4.198   0.161 -0.2035  0.4914 -1.5052
    5MOL    C98 1386   3.814   4.093   0.479 -0.5449 -0.4780  0.2697
    5MOL    C99 1387   3.929   4.141   0.576  0.2745 -0.4137  0.2168
    5MOL   C100 1388   3.953   4.284   0.569  0.6070 -0.6567 -0.0705
    5MOL   O101 1389   3.936   4.342   0.459 -0.0979 -0.4973 -0.2900
    5MOL   N102 1390   3.985   4.355   0.681  0.0641 -0.0864 -1.0279
    5MOL   C103 1391   4.044   4.290   0.802 -0.4112  0.0624  0.2626
    5MOL   C104 1392   3.999   4.497   0.679  0.2512  0.3575  0.1216
    5MOL   H105 1393   3.826   3.985   0.492  0.5912 -0.4596 -0.5943
    5MOL   H106 1394   3.837   4.109   0.374  0.5910  3.1039  1.0166
    5MOL   H107 1395   3.889   4.106   0.672 -0.2218 -2.4575 -0.7119
    5MOL   H108 1396   4.038   4.181   0.802 -0.1164  0.0413 -0.6431
    5MOL   H109 1397   4.152   4.285   0.793 -0.5732 -1.1338 -1.2297
    5MOL   H110 1398   4.024   4.348   0.892 -3.7240 -0.0678 -0.3052
    5MOL   H111 1399   4.056   4.537   0.595 -0.2838  0.0503 -0.3829
    5MOL   H112 1400   4.055   4.529   0.768 -0.7286 -1.2695  1.3525
    5MOL   H113 1401   3.895   4.529   0.673  0.0957 -0.0931  0.4218
    5MOL   C114 1402   4.058   4.056   0.543 -0.0335 -0.8850  0.0165
    5MOL   C115 1403   4.073   3.913   0.605 -0.0535 -0.0244 -0.2627
    5MOL   C116 1404   4.098   3.908   0.758 -0.1449 -0.1137  0.6376
    5MOL   O117 1405   4.191   3.971   0.806  0.2809  0.0001 -0.1951
    5MOL   N118 1406   4.014   3.844   0.846 -0.2809  0.3162 -0.7271
    5MOL   C119 1407   3.928   3.732   0.808  0.7401  0.0277  0.0065
    5MOL   C120 1408   4.009   3.895   0.980 -0.3312 -0.9368  0.5358
    5MOL   H121 1409   4.064   4.050   0.434  0.0430  1.4808 -0.1385
    5MOL   H122 1410   4.147   4.112   0.571 -1.1110 -0.0949  1.9268
    5MOL   H123 1411   3.972   3.875   0.592  0.4158 -1.2114 -0.4723
    5MOL   H124 1412   3.956   3.673   0.721  1.1366  1.0825 -0.5956
    5MOL   H125 1413   3.935   3.646   0.874 -0.1467 -0.7052 -0.8346
    5MOL   H126 1414   3.820   3.746   0.797  0.6049  0.2308  1.4862
    5MOL   H127 1415   3.928   3.840   1.029 -0.6931 -0.3752  0.5740
    5MOL   H128 1416   3.966   3.995   0.972 -1.4798 -1.3749  1.0325
    5MOL   H129 1417   4.099   3.891   1.042  0.7410 -0.9290 -1.0085
    5MOL   C130 1418   4.174   3.828   0.526  0.4759 -0.3288 -0.2030
    5MOL   C131 1419   4.319   3.871   0.519  0.4241 -0.4474 -0.0352
    5MOL   C132 1420   4.349   3.994   0.419  0.0661  0.3333 -0.4446
    5MOL   O133 1421   4.316   3.978   0.300  0.4825 -0.2243  0.3897
    5MOL   N134 1422   4.385   4.113   0.463  0.4039  0.0036 -0.2451
    5MOL   C135 1423   4.358   4.237   0.391  0.2106 -0.0715  0.3019
    5MOL   C136 1424   4.441   4.135   0.598  0.3538  0.5749  0.6995
    5MOL   H137 1425   4.168   3.733   0.580 -1.6280  1.1546  2.2881
    5MOL   H138 1426   4.135   3.811   0.426 -1.6430  0.2905  0.4950
    5MOL   H139 1427   4.349   3.891   0.622  1.1125 -1.7919  0.0306
    5MOL   H140 1428   4.271   4.277   0.442  1.4925  2.1773  0.7977
    5MOL   H141 1429   4.437   4.311   0.404 -1.7646  2.0053  0.7761
    5MOL   H142 1430   4.323   4.237   0.288 -0.8809  2.1632  0.6534
    5MOL   H143 1431   4.523   4.207   0.597  1.1833 -0.2415  3.7510
    5MOL   H144 1432   4.489   4.050   0.645 -0.3613 -0.8972 -1.1973
    5MOL   H145 1433   4.360   4.168   0.664  0.3274 -1.2876  1.6296
    5MOL   C146 1434   4.409   3.756   0.491  0.1527  0.2825  0.3217
    5MOL   C147 1435   4.446   3.656   0.600  0.3425  1.5077 -0.2297
    5MOL   C148 1436   4.532   3.712   0.707 -0.2394  0.0951  0.4286
    5MOL   O149 1437   4.647   3.748   0.670 -0.0034  0.0320  0.2479
    5MOL   N150 1438   4.493   3.722   0.838  0.5278  0.3420 -0.8654
    5MOL   C151 1439   4.372   3.665   0.905  0.4567  0.7859  0.4547
    5MOL   C152 1440   4.575   3.796   0.936 -0.3270  0.6543  0.3023
    5MOL   H153 1441   4.362   3.707   0.406  2.1403  0.2690 -0.8048
    5MOL   H154 1442   4.504   3.802   0.462  0.2613  0.9006  1.6066
    5MOL   H155 1443   4.353   3.626   0.649  0.2561  1.8973 -0.1496
    5MOL   H156 1444   4.302   3.631   0.829  0.8485  0.7961  0.0865
    5MOL   H157 1445   4.402   3.572   0.955 -1.0544  1.0515  1.8951
    5MOL   H158 1446   4.325   3.740   0.969 -1.4897  2.0224 -2.3458
    5MOL   H159 1447   4.522   3.869   0.998  0.8254 -0.6837  2.9430
    5MOL   H160 1448   4.658   3.847   0.887 -2.7753  1.1538 -3.4771
    5MOL   H161 1449   4.620   3.719   0.998  0.7315  1.2440  0.2890
    5MOL   C162 1450   4.518   3.532   0.543  0.2830 -0.2548  0.2995
    5MOL   C163 1451   4.534   3.397   0.623 -0.0432  0.4909 -0.5155
    5MOL   C164 1452   4.399   3.353   0.688  0.1683  0.0682 -0.0734
    5MOL   O165 1453   4.386   3.366   0.809 -0.2277 -0.2849 -0.1495
    5MOL   N166 1454   4.292   3.304   0.617  0.0261 -0.1338 -0.0115
    5MOL   C167 1455   4.289   3.290   0.472 -0.4659  0.2743 -0.1174
    5MOL   C168 1456   4.180   3.243   0.680 -0.2478  0.2738 -0.5412
    5MOL   H169 1457   4.475   3.499   0.448  2.1001  0.0261 -0.6460
    5MOL   H170 1458   4.618   3.564   0.514 -0.1241 -0.6518 -1.5953
    5MOL   H171 1459   4.568   3.315   0.559  0.7856 -0.7812  1.5316
    5MOL   H172 1460   4.199   3.240   0.436 -0.1920 -1.0485  0.9650
    5MOL   H173 1461   4.284   3.388   0.424  1.5242  0.8581  0.8258
    5MOL   H174 1462   4.379   3.239   0.434 -1.4428 -0.9497 -0.8452
    5MOL   H175 1463   4.110   3.191   0.615  0.8114 -2.2980  0.2984
    5MOL   H176 1464   4.135   3.325   0.735 -0.7851  0.3323 -1.0639
    5MOL   H177 1465   4.219   3.168   0.749 -2.1680  2.1195  2.6574
    5MOL   C178 1466   4.642   3.403   0.729  0.3529 -0.6362 -0.3800
    5MOL   C179 1467   4.693   3.267   0.794  0.2300  0.0316 -0.7572
    5MOL   C180 1468   4.757   3.301   0.935 -0.5682  0.1709  0.7927
    5MOL   O181 1469   4.858   3.370   0.931  0.1636  0.9070 -0.5410
    5MOL   N182 1470   4.718   3.239   1.051 -0.1336 -0.6031 -0.4073
    5MOL   C183 1471   4.581   3.183   1.064  0.5658  0.5936 -0.1089
    5MOL   C184 1472   4.792   3.254   1.176  0.5245  0.5224 -0.1221
    5MOL   H185 1473   4.725   3.467   0.701  0.9661 -2.1831 -2.1520
    5MOL   H186 1474   4.603   3.464   0.811  0.9650  0.6624 -1.0300
    5MOL   H187 1475   4.615   3.194   0.816  0.2290 -1.5960 -5.6078
    5MOL   H188 1476   4.557   3.196   1.170 -1.1335  1.4690 -0.5713
    5MOL   H189 1477   4.499   3.233   1.011  0.5833  2.4841  1.5678
    5MOL   H190 1478   4.576   3.075   1.051  0.9092  0.6572 -0.7365
    5MOL   H191 1479   4.769   3.334   1.246  0.4085 -1.6849  2.4559
    5MOL   H192 1480   4.900   3.258   1.158  0.3876  1.3848 -0.8245
    5MOL   H193 1481   4.780   3.158   1.226  2.1483  0.4669  0.1842
    5MOL   C194 1482   4.799   3.208   0.695 -0.4456 -0.1096 -0.0992
    5MOL   C195 1483   4.741   3.095   0.605  0.6256 -0.5626  0.1001
    5MOL   C196 1484   4.714   2.964   0.682 -0.8471 -0.4740 -0.3947
    5MOL   O197 1485   4.808   2.927   0.752  0.3594 -0.0240 -0.2236
    5MOL   N198 1486   4.602   2.887   0.658  0.6496 -0.6844  0.2858
    5MOL   C199 1487   4.589   2.760   0.722  0.6410  0.7184 -0.2823
    5MOL   C200 1488   4.505   2.936   0.559 -0.1129 -0.4182  0.2440
    5MOL   H201 1489   4.841   3.285   0.630 -0.0647 -0.7986 -0.6931
    5MOL   H202 1490   4.887   3.172   0.749 -0.9169 -0.7843  0.2266
    5MOL   H203 1491   4.647   3.130   0.561  1.0832  0.5501 -0.0101
    5MOL   H204 1492   4.534   2.783   0.814 -1.9095 -1.9004 -1.0846
    5MOL   H205 1493   4.534   2.690   0.659  0.2238  1.1467 -0.4004
    5MOL   H206 1494   4.685   2.714   0.745  0.7262  1.1628  0.2543
    5MOL   H207 1495   4.540   2.948   0.456  0.6484 -0.5834  0.4816
    5MOL   H208 1496   4.460   3.029   0.593 -1.2770 -1.9721  3.1129
    5MOL   H209 1497   4.414   2.876   0.553 -0.8100  0.5743  0.8932
    5MOL   C210 1498   4.847   3.073   0.488  0.0306  0.4701 -0.1955
    5MOL   C211 1499   4.852   3.173   0.375  0.1513  0.0713 -0.1939
    5MOL   C212 1500   4.721   3.223   0.314 -0.1605 -0.1068 -0.4573
    5MOL   O213 1501   4.624   3.153   0.304  0.5632  0.0706 -0.9225
    5MOL   N214 1502   4.711   3.357   0.285 -0.2170 -0.0528  0.0690
    5MOL   C215 1503   4.817   3.454   0.282  0.3294  0.2654 -0.4528
    5MOL   C216 1504   4.586   3.406   0.220 -0.5158  0.5670  0.0418
    5MOL   H217 1505   4.943   3.076   0.539 -1.3020  1.6155  2.3059
    5MOL   H218 1506   4.838   2.973   0.445  0.5498  0.3084  0.0733
    5MOL   H219 1507   4.900   3.256   0.425  0.1080  1.6526 -2.7024
    5MOL   H220 1508   4.779   3.556   0.286  0.1284  0.1802 -0.1338
    5MOL   H221 1509   4.879   3.464   0.371  0.3670  0.1320 -0.4643
    5MOL   H222 1510   4.866   3.436   0.186 -0.1155 -1.5780 -0.3594
    5MOL   H223 1511   4.569   3.511   0.243 -2.4565 -0.0975  1.7959
    5MOL   H224 1512   4.495   3.359   0.259  1.0656 -2.5159  0.1997
    5MOL   H225 1513   4.595   3.390   0.113 -0.1658 -0.8866  0.2729
    5MOL   C226 1514   4.940   3.133   0.249  0.7432  0.2312 -0.1231
    5MOL   C227 1515   5.091   3.112   0.274  0.1853  0.2077 -0.3202
    5MOL   C228 1516   5.156   3.244   0.317  0.0995 -0.3653  0.0211
    5MOL   O229 1517   5.164   3.336   0.239 -0.1415 -0.4094 -0.4225
    5MOL   N230 1518   5.196   3.267   0.445  0.3102  0.4147 -0.2299
    5MOL   C231 1519   5.204   3.405   0.493 -0.2858  0.3959 -0.1372
    5MOL   C232 1520   5.198   3.170   0.555 -0.8764  0.0940  0.2502
    5MOL   H233 1521   4.901   3.037   0.214 -0.0011  1.2389 -2.1478
    5MOL   H234 1522   4.924   3.198   0.163  1.9253  0.2393 -0.3436
    5MOL   H235 1523   5.097   3.033   0.349  0.2611 -0.2299 -0.7860
    5MOL   H236 1524   5.229   3.410   0.599 -0.5040 -3.3942  0.1366
    5MOL   H237 1525   5.280   3.461   0.438 -0.0419 -0.5844 -0.8145
    5MOL   H238 1526   5.107   3.455   0.498 -1.1520 -1.0893 -1.4614
    5MOL   H239 1527   5.289   3.168   0.616  0.3975  1.5391 -1.5387
    5MOL   H240 1528   5.180   3.066   0.525 -1.5508  0.7813 -1.7867
    5MOL   H241 1529   5.131   3.205   0.633 -0.5246 -1.8009  1.4572
    5MOL   C242 1530   5.157   3.051   0.147  0.1919 -0.0538  0.1071
    5MOL   C243 1531   5.293   2.987   0.163 -0.3084  0.1261  0.5154
    5MOL   C244 1532   5.359   2.977   0.024  0.2866 -0.7432 -0.6040
    5MOL   O245 1533   5.305   2.911   7.786 -0.2029  0.0064 -0.1413
    5MOL   N246 1534   5.482   3.029   0.005  0.7966 -0.2638 -0.3204
    5MOL   C247 1535   5.562   3.106   0.095 -0.0494  0.7979 -0.6856
    5MOL   C248 1536   5.547   3.012   7.729 -0.2312  0.0499  0.5798
    5MOL   H249 1537   5.095   2.973   0.102  0.9043 -0.0609 -0.8757
    5MOL   H250 1538   5.154   3.132   0.074  0.2198  1.5632  1.8565
    5MOL   H251 1539   5.350   3.060   0.221 -1.0375  0.5154  0.7572
    5MOL   H252 1540   5.579   3.039   0.179 -1.0194  2.2726  0.7236
    5MOL   H253 1541   5.665   3.125   0.065  0.3811 -1.1322 -0.4383
    5MOL   H254 1542   5.509   3.192   0.138 -0.2332  0.9272 -1.1603
    5MOL   H255 1543   5.509   3.097   7.672  1.0937  0.4144  0.2037
    5MOL   H256 1544   5.505   2.930   7.672  1.6458 -0.2537 -0.4307
    5MOL   H257 1545   5.655   3.005   7.741 -0.0983 -1.9031 -1.4563
    5MOL   C258 1546   5.293   2.855   0.249 -0.0683  0.6363  0.1042
    5MOL   C259 1547   5.213   2.730   0.190 -0.1641  0.3653 -0.4718
    5MOL   C260 1548   5.059   2.736   0.224 -1.0426 -0.0167 -0.0900
    5MOL   O261 1549   5.033   2.788   0.339  0.1617  0.1386  0.5435
    5MOL   N262 1550   4.973   2.703   0.128 -0.0558  0.8200 -0.1068
    5MOL   C263 1551   5.002   2.645   7.847  0.0403  0.2288 -0.2137
    5MOL   C264 1552   4.834   2.745   0.137 -0.8487 -0.0152 -0.4814
    5MOL   H265 1553   5.399   2.831   0.248 -0.6255 -1.9947 -2.0722
    5MOL   H266 1554   5.263   2.863   0.353  1.7028 -1.4688  0.8207
    5MOL   H267 1555   5.225   2.726   0.082  0.5714  0.8403 -0.4168
    5MOL   H268 1556   4.918   2.606   7.790  1.6318 -4.1361  0.1936
    5MOL   H269 1557   5.071   2.700   7.783  2.8584 -1.3051  1.3697
    5MOL   H270 1558   5.062   2.557   0.018  0.4872  0.5023 -0.3309
    5MOL   H271 1559   4.810   2.805   0.225  1.7308  1.0777 -0.4739
    5MOL   H272 1560   4.764   2.663   0.121  0.5857 -1.3808  0.1812
    5MOL   H273 1561   4.797   2.803   0.052  0.8685  1.5321 -0.2047
    5MOL   C274 1562   5.270   2.586   0.243  0.2883 -0.4910  0.4899
    5MOL   C275 1563   5.266   2.568   0.403  0.3953 -0.6434  0.6827
    5MOL   C276 1564   5.409   2.582   0.451 -0.1083  0.1340 -0.1608
    5MOL   O277 1565   5.490   2.502   0.404 -0.2687 -0.2356 -0.4774
    5MOL   N278 1566   5.454   2.681   0.531  0.2706 -0.1056  0.2410
    5MOL   C279 1567   5.600   2.710   0.542  0.3164 -0.0857  0.9641
    5MOL   C280 1568   5.364   2.764   0.611 -0.4770  0.2134  0.0327
    5MOL   H281 1569   5.212   2.513   0.187  2.2898 -0.2828 -1.9442
    5MOL   H282 1570   5.366   2.568   0.195 -1.7624 -2.6115 -3.0244
    5MOL   H283 1571   5.204   2.649   0.441 -0.0268  0.1492 -1.6098
    5MOL   H284 1572   5.622   2.809   0.582 -0.6666  1.0180 -1.1081
    5MOL   H285 1573   5.637   2.635   0.612  0.2496 -0.1020  0.9821
    5MOL   H286 1574   5.648   2.689   0.447 -0.3046  1.5965  0.2565
    5MOL   H287 1575   5.358   2.865   0.570 -0.0084  0.1690 -0.1437
    5MOL   H288 1576   5.389   2.771   0.717  1.3415  1.1918 -0.4434
    5MOL   H289 1577   5.262   2.724   0.611 -0.0320 -0.9528 -0.8079
    5MOL   C290 1578   5.210   2.431   0.452  0.1759 -0.1175 -0.7683
    5MOL   C291 1579   5.117   2.433   0.578  0.5028  0.5449  0.2841
    5MOL   C292 1580   5.192   2.443   0.711 -0.2859 -0.0810  0.3351
    5MOL   O293 1581   5.295   2.380   0.737 -0.4431 -0.1509  0.7698
    5MOL   N294 1582   5.145   2.536   0.801  0.6027  0.1237  0.5081
    5MOL   C295 1583   5.223   2.571   0.919  0.6709  0.5017  0.3610
    5MOL   C296 1584   5.006   2.591   0.800 -0.5120 -0.3075 -0.6063
    5MOL   H297 1585   5.150   2.397   0.368 -1.3894 -0.2733  0.3791
    5MOL   H298 1586   5.279   2.351   0.481 -0.9596 -0.2859  1.6163
    5MOL   H299 1587   5.061   2.525   0.561 -2.5480 -0.7271  3.0006
    5MOL   H300 1588   5.305   2.639   0.897  0.2188  0.5988 -1.0386
    5MOL   H301 1589   5.156   2.614   0.994  0.0487 -0.8209  0.5802
    5MOL   H302 1590   5.265   2.479   0.959  0.1212  0.6304  1.2522
    5MOL   H303 1591   4.984   2.633   0.702  2.3011 -2.2034 -2.1390
    5MOL   H304 1592   4.997   2.685   0.854  1.5146  0.7153 -1.9930
    5MOL   H305 1593   4.930   2.521   0.835 -0.4682 -0.0392  0.0290
    5MOL   C306 1594   5.021   2.310   0.583  0.4743 -0.0308  0.1420
    5MOL   C307 1595   4.911   2.310   0.473 -0.0000 -0.7484 -0.1970
    5MOL   C308 1596   4.795   2.415   0.481  0.9727  0.0119 -0.5593
    5MOL   O309 1597   4.772   2.468   0.587  0.5192  0.3433  0.1347
    5MOL   N310 1598   4.709   2.446   0.375  0.0579  0.3068 -0.6051
    5MOL   C311 1599   4.732   2.392   0.240 -0.4899 -0.2648  0.0934
    5MOL   C312 1600   4.602   2.545   0.387  0.2377 -0.1695  0.4031
    5MOL   H313 1601   5.082   2.222   0.562  0.6574  0.1692 -0.1713
    5MOL   H314 1602   4.978   2.296   0.682  0.2334 -2.3523 -0.2540
    5MOL   H315 1603   4.952   2.334   0.375 -1.3189  2.3829 -0.0533
    5MOL   H316 1604   4.831   2.422   0.205 -1.2453  1.4271 -0.6786
    5MOL   H317 1605   4.747   2.284   0.246 -2.2146 -0.4235  2.1404
    5MOL   H318 1606   4.659   2.418   0.162 -0.1923  2.4677  0.6679
    5MOL   H319 1607   4.548   2.562   0.294  1.1085  2.6060  0.3645
    5MOL   H320 1608   4.651   2.636   0.422 -2.0186  1.9053 -1.6469
    5MOL   H321 1609   4.527   2.509   0.457 -0.5892  0.0266 -0.3857
    5MOL   H322 1610   4.866   2.211   0.484 -0.3788 -0.4624  0.9081
    6MOL     C1 1611   4.750   0.684   3.056 -0.2566 -0.6858 -0.5812
    6MOL     C2 1612   4.835   0.802   3.005 -0.5098 -0.2854  0.1219
    6MOL     C3 1613   4.827   0.912   3.113 -0.3386 -0.3923  0.5572
    6MOL     O4 1614   4.719   0.933   3.161  0.2796 -0.2621  0.2011
    6MOL     N5 1615   4.938   0.984   3.157  0.3146 -0.0336  0.0824
    6MOL     C6 1616   5.072   0.991   3.086  0.0090 -0.4757 -0.2023
    6MOL     C7 1617   4.944   1.062   3.284  0.5432  0.3185 -0.7502
    6MOL     H8 1618   4.643   0.700   3.045 -0.2548  0.6760  1.2159
    6MOL     H9 1619   4.763   0.677   3.164 -1.4102  3.0414 -0.1215
    6MOL    H10 1620   4.940   0.775   2.995 -0.7248 -0.9060 -0.5067
    6MOL    H11 1621   5.146   0.923   3.128 -0.0147 -1.4836 -1.7568
    6MOL    H12 1622   5.055   0.981   2.979 -0.2999  2.0337 -0.4304
    6MOL    H13 1623   5.127   1.085   3.081  3.6313 -2.5677 -1.7856
    6MOL    H14 1624   5.017   1.013   3.350 -0.8121 -1.2966 -0.4061
    6MOL    H15 1625   4.850   1.073   3.339  0.0514  0.7705 -1.6822
    6MOL    H16 1626   4.979   1.163   3.263 -0.4202  1.0691  1.1661
    6MOL    H17 1627   4.783   0.593   3.006 -0.4485 -0.5937 -0.8766
    6MOL    C18 1628   4.775   0.847   2.871  0.2054 -0.1656  0.0967
    6MOL    C19 1629   4.802   0.761   2.752  0.2536 -0.2389  0.0627
    6MOL    C20 1630   4.955   0.756   2.712  0.3794 -0.1828 -0.5620
    6MOL    O21 1631   5.020   0.857   2.754 -0.8935  0.2329  0.1090
    6MOL    N22 1632   5.007   0.654   2.643 -0.1651 -0.2528  0.4338
    6MOL    C23 1633   5.146   0.653   2.601  0.0373  0.2429  0.1161
    6MOL    C24 1634   4.929   0.533   2.607  0.2881 -0.5356  0.5600
    6MOL    H25 1635   4.667   0.859   2.881 -0.0090 -1.7084 -0.2969
    6MOL    H26 1636   4.811   0.949   2.860 -1.7516  0.7158  1.5034
    6MOL    H27 1637   4.777   0.659   2.783 -0.3652  0.1805  0.9707
    6MOL    H28 1638   5.209   0.604   2.675 -0.2895  1.5332  1.2757
    6MOL    H29 1639   5.160   0.585   2.517 -0.2826 -0.2953  0.4979
    6MOL    H30 1640   5.182   0.755   2.583  0.1882  0.4370  1.4535
    6MOL    H31 1641   4.869   0.557   2.519 -0.7274  1.5175  1.7930
    6MOL    H32 1642   4.878   0.496   2.695  2.2133  0.4387  2.1241
    6MOL    H33 1643   4.994   0.452   2.572  0.3802 -0.9464  1.6719
    6MOL    C34 1644   4.712   0.792   2.638 -0.4709  0.3002 -0.9208
    6MOL    C35 1645   4.737   0.928   2.557 -0.1682 -0.4613 -0.4605
    6MOL    C36 1646   4.602   1.003   2.526 -0.3025  0.4353 -0.5736
    6MOL    O37 1647   4.508   0.939   2.475  0.2388  0.1741 -0.5382
    6MOL    N38 1648   4.587   1.131   2.555  0.0229 -0.0674 -0.1217
    6MOL    C39 1649   4.456   1.197   2.537  0.5910  0.2344 -0.1049
    6MOL    C40 1650   4.691   1.231   2.578  0.5856  0.1154 -0.1025
    6MOL    H41 1651   4.727   0.707   2.572 -1.9826  0.3883 -1.4022
    6MOL    H42 1652   4.609   0.788   2.675 -0.7685  0.0262 -1.7592
    6MOL    H43 1653   4.796   0.997   2.617 -1.3858  0.0588  0.1499
    6MOL    H44 1654   4.369   1.131   2.544  0.3641  0.5452  0.0580
    6MOL    H45 1655   4.446   1.258   2.627 -0.1042 -0.3789  0.2453
    6MOL    H46 1656   4.448   1.268   2.454  1.5729  0.9598  0.4058
    6MOL    H47 1657   4.766   1.235   2.499  0.3555  1.2681 -0.2748
    6MOL    H48 1658   4.733   1.208   2.676 -1.4253 -0.4562  0.6433
    6MOL    H49 1659   4.659   1.336   2.575  0.4595  0.1267  1.4073
    6MOL    C50 1660   4.813   0.886   2.426 -0.5422  0.2488 -0.0759
    6MOL    C51 1661   4.906   0.984   2.353 -0.1710 -0.3631 -0.0267
    6MOL    C52 1662   4.945   0.924   2.222  0.8328  0.0687  0.2644
    6MOL    O53 1663   5.036   0.839   2.214 -0.3023 -1.0159  0.8805
    6MOL    N54 1664   4.874   0.959   2.113  0.2413 -0.0280  0.1130
    6MOL    C55 1665   4.900   0.893   1.978 -0.6828 -0.1713 -0.0255
    6MOL    C56 1666   4.743   1.033   2.102  0.6865 -0.0372  0.4028
    6MOL    H57 1667   4.869   0.794   2.446 -0.9744 -0.0832 -0.3892
    6MOL    H58 1668   4.736   0.854   2.355  0.4225  0.0163 -1.0348
    6MOL    H59 1669   4.842   1.064   2.317 -0.3827 -0.9639 -1.0041
    6MOL    H60 1670   4.857   0.794   1.965 -1.3724  0.2088 -0.6491
    6MOL    H61 1671   4.861   0.954   1.897 -1.4213  0.4820  0.8067
    6MOL    H62 1672   5.008   0.886   1.969 -0.6457  1.7334 -1.3368
    6MOL    H63 1673   4.669   1.012   2.180 -1.1070 -0.8637 -1.4732
    6MOL    H64 1674   4.682   0.999   2.018  1.2682  0.0380 -0.0511
    6MOL    H65 1675   4.742   1.142   2.106 -1.3014  0.0634 -1.5726
    6MOL    C66 1676   5.023   1.033   2.433 -0.0870 -0.3002 -0.8795
    6MOL    C67 1677   5.118   1.133   2.356 -0.3891  0.6986  0.4086
    6MOL    C68 1678   5.247   1.142   2.437 -0.8093 -0.4346 -0.3089
    6MOL    O69 1679   5.238   1.173   2.555  0.5380 -0.1625  0.0956
    6MOL    N70 1680   5.369   1.108   2.390 -0.0869 -0.1379  0.4285
    6MOL    C71 1681   5.492   1.153   2.457 -0.5016 -0.1608 -0.4975
    6MOL    C72 1682   5.392   1.023   2.268 -0.5960  0.1772 -0.2151
    6MOL    H73 1683   4.993   1.067   2.532 -0.7848 -1.8830 -0.5324
    6MOL    H74 1684   5.075   0.945   2.469  0.3473  0.7432  1.0705
    6MOL    H75 1685   5.134   1.089   2.257  1.6081  0.2335  0.9164
    6MOL    H76 1686   5.562   1.201   2.387  0.2786 -1.3197 -0.5273
    6MOL    H77 1687   5.467   1.231   2.529 -1.1172  1.7621 -2.7317
    6MOL    H78 1688   5.553   1.071   2.496 -0.1723 -0.3835 -1.4444
    6MOL    H79 1689   5.427   1.083   2.184  2.6558  1.5229  1.9829
    6MOL    H80 1690   5.301   0.963   2.258 -0.1886 -0.6127  0.7058
    6MOL    H81 1691   5.465   0.947   2.293 -1.3478 -1.0135 -1.6054
    6MOL    C82 1692   5.042   1.270   2.331 -0.5641  0.5009 -0.8139
    6MOL    C83 1693   5.044   1.315   2.186 -0.0334  0.0411 -0.2950
    6MOL    C84 1694   5.191   1.310   2.124  0.1567 -0.2861  0.0262
    6MOL    O85 1695   5.280   1.361   2.192 -0.5158 -0.2582  0.1266
    6MOL    N86 1696   5.212   1.249   2.004 -0.2367 -1.0667  0.1124
    6MOL    C87 1697   5.349   1.248   1.952 -0.3406 -0.1031 -0.1312
    6MOL    C88 1698   5.113   1.181   1.916 -0.6652  0.3628 -0.1443
    6MOL    H89 1699   4.938   1.260   2.362 -0.3317  0.4461 -0.0454
    6MOL    H90 1700   5.083   1.348   2.395 -0.9469  2.2075 -2.6043
    6MOL    H91 1701   4.982   1.241   2.136 -0.1565 -0.6322  0.8498
    6MOL    H92 1702   5.374   1.343   1.904  0.9815 -0.0967  0.5487
    6MOL    H93 1703   5.424   1.224   2.027  1.2037  0.5082 -1.4504
    6MOL    H94 1704   5.367   1.169   1.880 -0.4700 -0.9139  0.7163
    6MOL    H95 1705   5.070   1.090   1.958 -0.7182  0.5271  0.1592
    6MOL    H96 1706   5.159   1.148   1.823  3.3441 -3.0199  2.8395
    6MOL    H97 1707   5.025   1.244   1.903 -1.3063 -0.9329 -2.3350
    6MOL    C98 1708   4.996   1.460   2.177  0.4024  0.1187  0.0626
    6MOL    C99 1709   4.848   1.492   2.216  0.1068  0.3528  0.6264
    6MOL   C100 1710   4.753   1.478   2.098  0.2322  0.6311 -0.3021
    6MOL   O101 1711   4.787   1.522   1.987  0.3593  0.0339  0.7051
    6MOL   N102 1712   4.634   1.415   2.112 -0.5929  0.3746 -0.0937
    6MOL   C103 1713   4.580   1.354   2.233 -0.2147 -0.1717 -0.0433
    6MOL   C104 1714   4.545   1.399   1.999 -0.1141  0.3260  0.4201
    6MOL   H105 1715   5.066   1.533   2.218  1.3763 -2.1571  2.5977
    6MOL   H106 1716   5.002   1.480   2.070  0.1422 -1.7126 -0.3035
    6MOL   H107 1717   4.830   1.411   2.286  0.9611  0.8209  1.4026
    6MOL   H108 1718   4.611   1.252   2.256 -0.5320 -0.0365  1.0278
    6MOL   H109 1719   4.605   1.412   2.322 -2.2742  2.3354 -1.0315
    6MOL   H110 1720   4.471   1.352   2.229 -0.1467 -0.7952 -2.6498
    6MOL   H111 1721   4.492   1.305   1.998  0.7785 -0.1802 -0.2486
    6MOL   H112 1722   4.592   1.403   1.901 -1.6266  0.5966 -0.2994
    6MOL   H113 1723   4.478   1.485   2.003 -1.0047 -0.2375 -1.8435
    6MOL   C114 1724   4.827   1.635   2.276  0.3225  0.6745  0.3568
    6MOL   C115 1725   4.909   1.685   2.396 -0.2952 -0.1143 -0.6438
    6MOL   C116 1726   4.894   1.583   2.517 -0.1732  0.4885 -0.3060
    6MOL   O117 1727   4.782   1.541   2.541  0.1052  0.3735  1.3607
    6MOL   N118 1728   5.000   1.546   2.590  0.0660 -0.1866 -0.4374
    6MOL   C119 1729   4.988   1.436   2.688 -0.2816 -0.2425 -0.5063
    6MOL   C120 1730   5.134   1.586   2.553 -0.4364  0.0311 -0.7000
    6MOL   H121 1731   4.838   1.712   2.200 -2.6513  0.3022 -0.4887
    6MOL   H122 1732   4.722   1.629   2.304  0.9955 -0.8031  2.6734
    6MOL   H123 1733   5.011   1.686   2.358  0.0917 -2.5137  0.2655
    6MOL   H124 1734   4.996   1.341   2.635 -1.5826  0.0624 -1.2789
    6MOL   H125 1735   5.047   1.448   2.779 -2.2583 -1.3292  0.9696
    6MOL   H126 1736   4.886   1.440   2.724 -0.0060  0.7322  0.1957
    6MOL   H127 1737   5.206   1.547   2.626 -2.2389 -2.0640  0.0027
    6MOL   H128 1738   5.140   1.695   2.553  0.7632 -0.0082  0.9384
    6MOL   H129 1739   5.165   1.566   2.451  2.1668 -0.7522  0.1999
    6MOL   C130 1740   4.871   1.830   2.439  0.0081 -0.1958 -0.0393
    6MOL   C131 1741   4.724   1.855   2.493  0.2029 -0.3288 -0.4723
    6MOL   C132 1742   4.627   1.865   2.374  0.4509  0.4213  0.3691
    6MOL   O133 1743   4.656   1.948   2.285 -0.0338 -0.1881  0.2511
    6MOL   N134 1744   4.524   1.780   2.362 -0.3775 -0.2919  0.3481
    6MOL   C135 1745   4.449   1.777   2.241 -0.1653 -0.0920 -0.2798
    6MOL   C136 1746   4.469   1.706   2.477 -0.1569  0.7577  0.8229
    6MOL   H137 1747   4.940   1.868   2.514 -1.6988  3.4525 -0.2373
    6MOL   H138 1748   4.898   1.897   2.357  0.1395  2.2050  1.9199
    6MOL   H139 1749   4.707   1.769   2.558  2.1697 -0.3716  0.0185
    6MOL   H140 1750   4.508   1.815   2.157 -1.2386 -1.8268 -1.8510
    6MOL   H141 1751   4.419   1.677   2.210 -0.5156  0.3526 -1.3731
    6MOL   H142 1752   4.364   1.845   2.249  0.2923  0.4999 -0.3985
    6MOL   H143 1753   4.539   1.667   2.551  0.3795  1.0408  0.4597
    6MOL   H144 1754   4.412   1.616   2.453 -2.0193  2.5585 -1.8821
    6MOL   H145 1755   4.397   1.765   2.534 -1.9791 -0.2283 -0.3813
    6MOL   C146 1756   4.708   1.973   2.593 -0.2087 -0.4081 -0.4593
    6MOL   C147 1757   4.768   1.958   2.733  0.5469  0.5093  0.2394
    6MOL   C148 1758   4.684   1.855   2.810 -0.3350  0.4692 -0.1865
    6MOL   O149 1759   4.563   1.861   2.810 -0.0811  0.1204 -0.1467
    6MOL   N150 1760   4.746   1.751   2.871 -0.1599 -0.1284  1.2891
    6MOL   C151 1761   4.676   1.631   2.909 -0.4033  0.0289  0.0956
    6MOL   C152 1762   4.885   1.752   2.913  0.7347  0.0862  0.3353
    6MOL   H153 1763   4.746   2.062   2.544  0.7558 -0.0305  0.9476
    6MOL   H154 1764   4.601   1.994   2.601  0.1857  2.1445 -1.3628
    6MOL   H155 1765   4.870   1.922   2.727 -0.8959 -3.8595  0.7034
    6MOL   H156 1766   4.747   1.557   2.948  1.4170  0.6892 -1.8689
    6MOL   H157 1767   4.595   1.652   2.979  1.3855  3.2705  1.3686
    6MOL   H158 1768   4.636   1.586   2.819  2.9555 -1.8835 -0.5235
    6MOL   H159 1769   4.931   1.851   2.921  0.8529 -0.0887  2.2163
    6MOL   H160 1770   4.948   1.702   2.841 -0.4090 -0.5602 -0.2334
    6MOL   H161 1771   4.890   1.712   3.015 -0.4662 -2.7673 -0.6876
    6MOL   C162 1772   4.782   2.094   2.800 -0.2603 -0.2514 -0.2922
    6MOL   C163 1773   4.906   2.176   2.747  0.1262 -0.1627 -0.2093
    6MOL   C164 1774   5.044   2.108   2.783 -0.0343 -0.1392 -0.4857
    6MOL   O165 1775   5.061   2.066   2.893 -0.0354 -0.2003  0.2738
    6MOL   N166 1776   5.134   2.079   2.680  0.2261 -0.5987  0.7345
    6MOL   C167 1777   5.240   1.980   2.702 -0.1633  0.1043 -0.1309
    6MOL   C168 1778   5.141   2.157   2.559  0.0368  0.2784  0.4347
    6MOL   H169 1779   4.698   2.164   2.797  0.1370  0.4165  2.8361
    6MOL   H170 1780   4.802   2.076   2.905 -0.0620 -0.1850 -0.3183
    6MOL   H171 1781   4.908   2.175   2.638  2.1745  4.5112 -0.3219
    6MOL   H172 1782   5.327   2.045   2.699 -0.7083  0.9491  1.6137
    6MOL   H173 1783   5.241   1.927   2.798 -0.5696  0.3560  0.0150
    6MOL   H174 1784   5.261   1.911   2.620 -3.7166  2.1977 -2.9488
    6MOL   H175 1785   5.099   2.258   2.561  0.2695  0.4134 -1.1178
    6MOL   H176 1786   5.086   2.094   2.489  0.5968 -0.2631  0.4842
    6MOL   H177 1787   5.245   2.173   2.532  0.0436  0.9747  0.8624
    6MOL   C178 1788   4.903   2.330   2.782 -0.5281  0.2611 -0.4576
    6MOL   C179 1789   4.934   2.392   2.919  1.6013  0.5890 -0.1244
    6MOL   C180 1790   4.827   2.331   3.015 -0.3913  0.0849  0.8219
    6MOL   O181 1791   4.705   2.347   2.985  0.2219 -0.4784 -0.3111
    6MOL   N182 1792   4.857   2.263   3.128  0.2026 -0.8576 -0.6126
    6MOL   C183 1793   4.978   2.191   3.166 -0.4918  0.3371  0.3153
    6MOL   C184 1794   4.746   2.248   3.229 -0.4552 -0.3291  0.0992
    6MOL   H185 1795   4.968   2.374   2.706 -0.7974  2.3968  0.5256
    6MOL   H186 1796   4.803   2.364   2.753 -1.3395  0.0809  2.0622
    6MOL   H187 1797   5.031   2.358   2.953  1.0528  0.8378  1.7617
    6MOL   H188 1798   4.963   2.086   3.138  1.1482  0.5889 -1.6108
    6MOL   H189 1799   5.058   2.216   3.097 -0.7373  3.0983  0.9878
    6MOL   H190 1800   5.000   2.215   3.270  1.4676  1.2066 -0.2801
    6MOL   H191 1801   4.694   2.153   3.215 -2.0495  0.4177  0.7897
    6MOL   H192 1802   4.673   2.328   3.245 -0.0668 -0.2447  1.5080
    6MOL   H193 1803   4.787   2.240   3.330 -1.0158  3.2978  0.7030
    6MOL   C194 1804   4.935   2.545   2.907  0.0876  0.0024 -0.1160
    6MOL   C195 1805   4.920   2.630   3.038 -0.4847 -0.2404 -0.0887
    6MOL   C196 1806   4.938   2.780   3.007 -0.6119 -0.5440  0.1033
    6MOL   O197 1807   5.048   2.817   2.951  0.1906  0.2407 -0.3062
    6MOL   N198 1808   4.853   2.871   3.052 -0.2238  0.7461  0.1520
    6MOL   C199 1809   4.718   2.838   3.101 -0.1491 -0.6608  0.3188
    6MOL   C200 1810   4.880   3.009   3.058 -0.2946 -0.2020  0.3364
    6MOL   H201 1811   5.025   2.581   2.856 -0.2760 -1.0920 -1.5590
    6MOL   H202 1812   4.860   2.575   2.833 -0.1380 -2.6049 -0.9652
    6MOL   H203 1813   4.822   2.603   3.077  0.0644  2.0447  3.0829
    6MOL   H204 1814   4.648   2.818   3.020  0.8138  0.0866 -0.7096
    6MOL   H205 1815   4.712   2.747   3.160  0.5591 -1.4732 -0.8489
    6MOL   H206 1816   4.682   2.919   3.165  0.1341  0.2113 -0.6194
    6MOL   H207 1817   4.804   3.070   3.008  0.4661 -0.4594 -1.1883
    6MOL   H208 1818   4.979   3.036   3.021 -0.4966  1.4285  0.9326
    6MOL   H209 1819   4.877   3.046   3.160  0.4194  2.1170 -0.4426
    6MOL   C210 1820   5.033   2.600   3.148 -0.3967 -0.8831  0.2723
    6MOL   C211 1821   4.997   2.643   3.292 -0.0157 -0.2351 -0.1967
    6MOL   C212 1822   5.128   2.650   3.376 -0.3072  0.1181 -0.4973
    6MOL   O213 1823   5.167   2.546   3.425  0.0332  0.2177 -0.0231
    6MOL   N214 1824   5.191   2.765   3.383  0.3272 -0.6258  0.1275
    6MOL   C215 1825   5.330   2.772   3.415 -0.1143  0.2821 -0.1524
    6MOL   C216 1826   5.144   2.896   3.333  0.4978  0.7875  0.3299
    6MOL   H217 1827   5.051   2.493   3.145  1.6513 -0.6918  2.7570
    6MOL   H218 1828   5.132   2.636   3.119  0.8881 -2.7233  2.2637
    6MOL   H219 1829   4.957   2.744   3.300 -0.3857 -0.5415  2.3489
    6MOL   H220 1830   5.351   2.691   3.484  0.8811 -0.3872 -1.2257
    6MOL   H221 1831   5.384   2.731   3.330 -1.0311  0.6555 -0.9324
    6MOL   H222 1832   5.375   2.865   3.451 -0.6350  1.7028 -2.9928
    6MOL   H223 1833   5.202   2.985   3.355 -0.6933  1.7292 -0.2804
    6MOL   H224 1834   5.039   2.909   3.357  0.1042 -0.1518 -0.8234
    6MOL   H225 1835   5.147   2.893   3.224  0.2299  0.6555  0.3258
    6MOL   C226 1836   4.895   2.538   3.359 -0.3255  0.3045  0.2011
    6MOL   C227 1837   4.828   2.574   3.492  0.6109  0.8219  0.4927
    6MOL   C228 1838   4.759   2.712   3.476  0.0919 -0.1630  0.1382
    6MOL   O229 1839   4.819   2.815   3.497 -0.6210  0.8168  0.2238
    6MOL   N230 1840   4.622   2.721   3.472  0.3046 -0.0591 -0.0387
    6MOL   C231 1841   4.554   2.845   3.498 -0.1498  0.2243  0.2859
    6MOL   C232 1842   4.541   2.606   3.426 -0.6029 -0.1213 -0.1509
    6MOL   H233 1843   4.818   2.518   3.283  0.2346 -1.3221  0.0381
    6MOL   H234 1844   4.932   2.436   3.373 -1.5396  0.0336  1.5331
    6MOL   H235 1845   4.755   2.495   3.510  0.5482  0.8734  0.4686
    6MOL   H236 1846   4.594   2.885   3.592  1.4324 -0.9659  0.1496
    6MOL   H237 1847   4.572   2.914   3.415 -3.9962  0.1053 -0.7242
    6MOL   H238 1848   4.447   2.825   3.500 -0.0446 -0.8802 -2.8704
    6MOL   H239 1849   4.524   2.557   3.522  0.3824  0.9052  0.5632
    6MOL   H240 1850   4.593   2.539   3.358 -1.1500  0.6278 -1.3217
    6MOL   H241 1851   4.458   2.648   3.368 -1.0720 -1.6384 -0.6137
    6MOL   C242 1852   4.916   2.554   3.622  0.1048 -0.3933  0.0282
    6MOL   C243 1853   4.847   2.527   3.759 -0.1208  0.3535 -0.3455
    6MOL   C244 1854   4.784   2.389   3.765  0.5710 -0.6217  0.3369
    6MOL   O245 1855   4.664   2.374   3.739 -0.0045  0.4671  0.3197
    6MOL   N246 1856   4.861   2.283   3.802  0.3950 -0.1199 -1.0199
    6MOL   C247 1857   5.004   2.299   3.854 -0.4339  0.1718 -0.1454
    6MOL   C248 1858   4.823   2.143   3.774  0.7356  0.1446  0.5792
    6MOL   H249 1859   4.992   2.477   3.611 -0.1641 -0.8733  1.3657
    6MOL   H250 1860   4.971   2.648   3.628 -2.6074  1.1960  1.3336
    6MOL   H251 1861   4.932   2.540   3.826  0.3015  1.9852 -1.1675
    6MOL   H252 1862   5.041   2.199   3.879 -2.5697 -0.6622 -0.2153
    6MOL   H253 1863   5.067   2.327   3.770  1.9684  0.2116  1.5936
    6MOL   H254 1864   5.010   2.375   3.933  0.7454  0.9031 -0.9257
    6MOL   H255 1865   4.872   2.099   3.687 -1.6019  0.0954 -0.7530
    6MOL   H256 1866   4.715   2.134   3.772  0.8145 -0.5379 -1.5058
    6MOL   H257 1867   4.867   2.086   3.856 -0.1347 -2.5364 -0.7733
    6MOL   C258 1868   4.742   2.634   3.805 -0.7450  0.1293  0.2407
    6MOL   C259 1869   4.727   2.640   3.960  0.1133 -0.5039  0.1488
    6MOL   C260 1870   4.596   2.705   4.003 -0.4319 -0.3937  0.4823
    6MOL   O261 1871   4.586   2.821   3.966 -0.4696 -0.2312 -0.4285
    6MOL   N262 1872   4.502   2.644   4.077  0.7104  0.3185  0.3758
    6MOL   C263 1873   4.515   2.504   4.120 -0.3733  0.1244  0.0221
    6MOL   C264 1874   4.375   2.708   4.114 -0.8500 -0.2935  0.3821
    6MOL   H265 1875   4.760   2.737   3.775  1.1720 -0.1861  0.2366
    6MOL   H266 1876   4.652   2.607   3.751 -0.8995 -0.7542  0.9285
    6MOL   H267 1877   4.727   2.534   3.986 -1.4002 -0.3130  1.0067
    6MOL   H268 1878   4.599   2.516   4.189 -1.4102  1.2206  1.1247
    6MOL   H269 1879   4.431   2.463   4.176 -0.0847  1.2681  1.3159
    6MOL   H270 1880   4.548   2.426   4.052 -0.2625 -0.7995  1.1123
    6MOL   H271 1881   4.299   2.641   4.154 -1.9323  1.3583  1.1788
    6MOL   H272 1882   4.325   2.777   4.045  0.2715  0.5567  0.3987
    6MOL   H273 1883   4.402   2.782   4.190 -1.7679  0.9029 -0.4307
    6MOL   C274 1884   4.848   2.693   4.042  0.2579  0.1991  0.0286
    6MOL   C275 1885   4.900   2.831   4.016 -0.1270  1.2332 -0.0407
    6MOL   C276 1886   4.986   2.843   3.890  0.5651  0.3160 -0.3962
    6MOL   O277 1887   5.078   2.767   3.870  0.4124  0.3775  0.1959
    6MOL   N278 1888   4.959   2.941   3.799 -0.5461  0.0436 -0.4490
    6MOL   C279 1889   4.848   3.035   3.802 -0.2000 -0.5997  0.4517
    6MOL   C280 1890   5.042   2.938   3.677 -0.5504 -0.6569 -1.0276
    6MOL   H281 1891   4.828   2.678   4.148  0.4061 -0.7406 -0.0744
    6MOL   H282 1892   4.937   2.633   4.026  1.3686  2.3127 -1.8766
    6MOL   H283 1893   4.812   2.896   4.012 -2.5101 -1.7707  1.9532
    6MOL   H284 1894   4.752   2.988   3.821 -0.9028  1.0372  1.0322
    6MOL   H285 1895   4.873   3.116   3.871 -0.7030  0.4150 -0.5373
    6MOL   H286 1896   4.835   3.088   3.708 -0.4606 -1.9222 -0.2686
    6MOL   H287 1897   5.057   2.843   3.624  2.1179 -1.9037  1.8438
    6MOL   H288 1898   5.142   2.961   3.713  0.3491 -3.2359 -1.7131
    6MOL   H289 1899   5.021   3.014   3.602  3.1631  2.5783  1.0310
    6MOL   C290 1900   4.989   2.879   4.131 -0.0770  0.1919 -0.4773
    6MOL   C291 1901   4.925   2.943   4.257 -0.1520  0.3510  0.6001
    6MOL   C292 1902   4.826   3.048   4.208 -0.4231  1.1570 -0.4590
    6MOL   O293 1903   4.864   3.146   4.146 -0.3771  0.2111 -0.4304
    6MOL   N294 1904   4.697   3.018   4.232 -0.5767 -0.1701  0.1829
    6MOL   C295 1905   4.589   3.116   4.191 -1.0215 -0.3843 -0.4505
    6MOL   C296 1906   4.650   2.898   4.305 -0.3029  0.7364  0.0512
    6MOL   H297 1907   5.042   2.792   4.169 -0.9358 -0.8476 -1.6131
    6MOL   H298 1908   5.052   2.961   4.095 -1.2998  0.3259 -2.4370
    6MOL   H299 1909   4.884   2.852   4.300 -3.5907  1.8522  0.6961
    6MOL   H300 1910   4.581   3.204   4.255  1.6332  1.6759 -2.8681
    6MOL   H301 1911   4.600   3.159   4.092  0.8962  2.0706  0.8011
    6MOL   H302 1912   4.492   3.065   4.195 -0.4326 -1.3988  2.3152
    6MOL   H303 1913   4.544   2.876   4.312 -0.5665  1.6877 -0.9370
    6MOL   H304 1914   4.693   2.906   4.405  0.5194 -0.6789 -0.1728
    6MOL   H305 1915   4.686   2.805   4.260  1.2378  0.7694  1.1539
    6MOL   C306 1916   5.031   3.010   4.350  0.5811 -0.1792  0.5016
    6MOL   C307 1917   4.992   3.039   4.492 -0.2122  0.4804  0.0324
    6MOL   C308 1918   4.889   3.142   4.541  0.2299  0.3871 -0.3105
    6MOL   O309 1919   4.770   3.118   4.520  0.2828  0.4509  0.1033
    6MOL   N310 1920   4.935   3.252   4.609  0.3931 -0.4319  0.3737
    6MOL   C311 1921   5.072   3.309   4.618 -0.4104 -0.1194 -0.2076
    6MOL   C312 1922   4.837   3.325   4.690  0.1350  0.4894  0.4654
    6MOL   H313 1923   5.119   2.948   4.366  0.9443  0.4732  1.0334
    6MOL   H314 1924   5.068   3.097   4.296 -1.2747 -0.4635 -1.2690
    6MOL   H315 1925   4.952   2.944   4.527  0.1297  0.7163  1.0800
    6MOL   H316 1926   5.074   3.418   4.615 -2.4606 -0.0647 -0.1076
    6MOL   H317 1927   5.105   3.282   4.718 -0.8030  0.3146  0.0382
    6MOL   H318 1928   5.136   3.260   4.544  0.5365  1.5244 -0.4987
    6MOL   H319 1929   4.873   3.411   4.746  1.4707  0.1700  0.0925
    6MOL   H320 1930   4.796   3.250   4.759 -2.3320  0.8000 -0.5897
    6MOL   H321 1931   4.756   3.362   4.627  2.4944  0.7886 -2.4793
    6MOL   H322 1932   5.084   3.038   4.549 -0.0593 -1.2662 -0.2299
    7MOL     C1 1933   1.906   6.420   2.772 -0.3064  0.0328  0.1048
    7MOL     C2 1934   1.851   6.544   2.843 -0.0544  0.3175 -0.1959
    7MOL     C3 1935   1.747   6.497   2.943  0.9706  0.0913 -0.9911
    7MOL     O4 1936   1.683   6.399   2.913 -0.9288  0.6578  0.1592
    7MOL     N5 1937   1.721   6.575   3.051  0.4287  0.1680  0.5661
    7MOL     C6 1938   1.791   6.703   3.086 -0.0602 -0.2887  0.3094
    7MOL     C7 1939   1.633   6.534   3.156 -0.3415 -0.3327 -0.4498
    7MOL     H8 1940   1.986   6.446   2.702 -0.9230  1.6212 -0.0115
    7MOL     H9 1941   1.835   6.370   2.706 -0.7967  1.2307 -0.2762
    7MOL    H10 1942   1.930   6.604   2.887  0.1694  0.6664 -1.0623
    7MOL    H11 1943   1.890   6.692   3.129  0.9170  2.3359 -1.2048
    7MOL    H12 1944   1.800   6.763   2.996 -2.2964  0.2611  0.4175
    7MOL    H13 1945   1.734   6.777   3.142 -1.0275  0.5053 -1.6684
    7MOL    H14 1946   1.591   6.434   3.142 -1.7385  0.2758 -0.7072
    7MOL    H15 1947   1.554   6.608   3.168  0.6722  0.2151  3.4363
    7MOL    H16 1948   1.696   6.529   3.245  0.6680  2.7313 -0.9525
    7MOL    H17 1949   1.958   6.355   2.843  2.1921  0.6886 -1.0674
    7MOL    C18 1950   1.777   6.639   2.745  0.2774  0.6934 -0.2433
    7MOL    C19 1951   1.860   6.710   2.638  0.3299 -0.3821  0.5902
    7MOL    C20 1952   1.959   6.817   2.683  0.0978  0.3936 -0.6729
    7MOL    O21 1953   1.912   6.927   2.722 -0.2151 -0.1306 -0.0587
    7MOL    N22 1954   2.094   6.797   2.681  0.9323 -0.1370  0.0185
    7MOL    C23 1955   2.178   6.904   2.738 -0.3286  0.2662  0.4781
    7MOL    C24 1956   2.163   6.695   2.608 -0.3317 -0.4376 -0.0357
    7MOL    H25 1957   1.700   6.583   2.692 -0.7013 -1.2309  3.0619
    7MOL    H26 1958   1.721   6.713   2.801  1.3064  0.8833  0.5637
    7MOL    H27 1959   1.909   6.625   2.593  0.9273  0.4449 -0.3264
    7MOL    H28 1960   2.154   6.903   2.845 -2.7797 -2.2142 -0.0321
    7MOL    H29 1961   2.286   6.891   2.723 -0.7925  0.2660 -3.0790
    7MOL    H30 1962   2.145   6.998   2.695  1.7042 -0.2434 -2.2974
    7MOL    H31 1963   2.121   6.688   2.508  0.6978 -0.8676 -0.4446
    7MOL    H32 1964   2.170   6.602   2.665  1.1478 -0.9765 -1.0603
    7MOL    H33 1965   2.267   6.720   2.588 -0.8299  0.8929 -1.0176
    7MOL    C34 1966   1.761   6.768   2.533 -0.0492 -0.1395 -0.2452
    7MOL    C35 1967   1.817   6.868   2.428 -0.0804  0.0271  0.4449
    7MOL    C36 1968   1.705   6.961   2.368 -0.1793 -0.3107 -0.7748
    7MOL    O37 1969   1.633   6.917   2.277 -0.1656 -0.1158 -0.3074
    7MOL    N38 1970   1.677   7.085   2.421  0.2680 -0.3347 -0.1938
    7MOL    C39 1971   1.567   7.167   2.377 -0.3710  1.0351  0.0212
    7MOL    C40 1972   1.772   7.160   2.512 -0.3392 -0.2722 -0.1300
    7MOL    H41 1973   1.705   6.687   2.486 -0.7345 -0.1506  0.5704
    7MOL    H42 1974   1.678   6.824   2.578  1.3063  1.0370  0.8370
    7MOL    H43 1975   1.882   6.943   2.474 -0.2290  0.4904 -0.1122
    7MOL    H44 1976   1.531   7.211   2.471  1.7501 -1.8027  2.2606
    7MOL    H45 1977   1.601   7.247   2.311  1.2545 -0.2704 -0.7362
    7MOL    H46 1978   1.483   7.109   2.339 -1.0594  0.6592  2.0436
    7MOL    H47 1979   1.867   7.178   2.461  0.7262  0.5648  2.1000
    7MOL    H48 1980   1.792   7.097   2.599 -1.4792 -1.1300 -0.4789
    7MOL    H49 1981   1.723   7.250   2.550 -1.2817  1.0218 -4.1159
    7MOL    C50 1982   1.896   6.791   2.316  0.2041  0.2010 -0.1259
    7MOL    C51 1983   2.007   6.861   2.236 -0.0967 -0.6289 -0.1234
    7MOL    C52 1984   2.121   6.934   2.316  0.6374 -0.2483 -0.3459
    7MOL    O53 1985   2.094   7.039   2.374 -0.4961  0.2743  0.2468
    7MOL    N54 1986   2.249   6.889   2.312 -0.0221  0.3046  0.3809
    7MOL    C55 1987   2.350   6.942   2.415  0.1518 -0.0732  0.2434
    7MOL    C56 1988   2.295   6.772   2.242 -0.0369  0.2086  0.5877
    7MOL    H57 1989   1.942   6.708   2.369 -1.7117  0.2574  1.6943
    7MOL    H58 1990   1.834   6.738   2.244 -1.0788  0.5371  0.7295
    7MOL    H59 1991   2.053   6.789   2.169 -1.3603 -0.1478 -1.5254
    7MOL    H60 1992   2.394   6.864   2.478 -0.2198  0.0643  0.6717
    7MOL    H61 1993   2.435   6.996   2.374  0.8411 -1.6147 -0.4303
    7MOL    H62 1994   2.300   6.999   2.493 -0.4004  0.1712 -0.2889
    7MOL    H63 1995   2.271   6.774   2.136 -2.2830  0.8346  1.0787
    7MOL    H64 1996   2.228   6.695   2.280 -1.1630 -0.1604 -2.0462
    7MOL    H65 1997   2.399   6.764   2.272  0.2626  0.4013 -0.3910
    7MOL    C66 1998   1.939   6.958   2.137  0.2370  0.3236  0.0896
    7MOL    C67 1999   2.010   6.994   2.002  0.7650  0.1492 -0.3273
    7MOL    C68 2000   2.017   6.862   1.907  0.1671 -0.0673  0.5968
    7MOL    O69 2001   2.135   6.820   1.881  0.2035 -0.3727  0.2773
    7MOL    N70 2002   1.907   6.804   1.846 -0.4057 -0.0944 -0.7876
    7MOL    C71 2003   1.919   6.704   1.735 -1.0593  0.0385 -0.5804
    7MOL    C72 2004   1.768   6.837   1.868  0.5312 -1.0153  0.2565
    7MOL    H73 2005   1.840   6.924   2.106  0.4074 -0.2092  0.1241
    7MOL    H74 2006   1.910   7.051   2.185 -1.9391 -0.4269  0.2632
    7MOL    H75 2007   1.938   7.055   1.947 -2.2298 -3.7029 -0.9004
    7MOL    H76 2008   1.874   6.730   1.640 -1.4288  2.8473  0.3016
    7MOL    H77 2009   2.018   6.670   1.705 -1.0975 -2.2291  1.7100
    7MOL    H78 2010   1.862   6.617   1.767 -0.1428 -0.0908  0.7812
    7MOL    H79 2011   1.756   6.946   1.869  0.4420 -1.0294  1.1789
    7MOL    H80 2012   1.748   6.808   1.971  0.1126  0.8049  0.7141
    7MOL    H81 2013   1.698   6.793   1.798 -1.4572  1.0637  0.8632
    7MOL    C82 2014   2.149   7.070   2.018  0.8058 -0.7013  0.8889
    7MOL    C83 2015   2.132   7.218   2.079 -0.2057  0.0384  0.3110
    7MOL    C84 2016   2.065   7.328   1.990 -0.8078 -0.0385 -1.1486
    7MOL    O85 2017   2.091   7.324   1.870 -0.3491 -0.3531 -0.2177
    7MOL    N86 2018   1.980   7.430   2.034  0.2476 -0.2817 -0.2906
    7MOL    C87 2019   1.896   7.517   1.955  0.5434  0.2133 -0.5880
    7MOL    C88 2020   1.970   7.458   2.175  0.3446 -0.2153 -0.4495
    7MOL    H89 2021   2.222   7.011   2.074  0.5051 -2.2295 -0.2926
    7MOL    H90 2022   2.192   7.085   1.919 -0.2246  1.1257  0.6881
    7MOL    H91 2023   2.056   7.208   2.157 -0.1592  2.0003  0.6314
    7MOL    H92 2024   1.866   7.465   1.864  0.8650 -1.6758  0.3602
    7MOL    H93 2025   1.804   7.550   2.003  0.4267 -2.1009  0.8573
    7MOL    H94 2026   1.966   7.599   1.939  0.0517  0.8669  0.5648
    7MOL    H95 2027   1.922   7.553   2.198  1.6335  0.9467 -2.4429
    7MOL    H96 2028   2.071   7.464   2.217 -0.8056  0.0798  2.4152
    7MOL    H97 2029   1.916   7.379   2.228  1.5486 -0.8054 -0.0890
    7MOL    C98 2030   2.268   7.262   2.144  0.3884 -0.2635 -0.1318
    7MOL    C99 2031   2.377   7.310   2.051 -0.2589 -0.2311  0.2473
    7MOL   C100 2032   2.429   7.204   1.953 -0.3747  0.2773  0.1624
    7MOL   O101 2033   2.460   7.092   2.001 -0.0399 -0.3220  0.3600
    7MOL   N102 2034   2.456   7.245   1.825  0.2851 -0.3470 -0.6141
    7MOL   C103 2035   2.504   7.135   1.734 -0.4045 -0.2953  0.0792
    7MOL   C104 2036   2.420   7.367   1.755 -0.1827 -0.9026  0.3221
    7MOL   H105 2037   2.239   7.344   2.210  1.6812 -0.1374  0.3013
    7MOL   H106 2038   2.309   7.185   2.210  1.4824 -2.2104 -2.9800
    7MOL   H107 2039   2.339   7.398   2.000  0.2155 -0.8676 -1.2512
    7MOL   H108 2040   2.439   7.048   1.724  1.0415 -1.1820 -2.1889
    7MOL   H109 2041   2.519   7.164   1.630  1.3474  2.7037  1.1286
    7MOL   H110 2042   2.603   7.105   1.765  0.1137  2.5001  1.2026
    7MOL   H111 2043   2.496   7.443   1.769 -2.5630  1.6396 -0.0972
    7MOL   H112 2044   2.321   7.402   1.785 -0.7547 -0.3024 -2.1586
    7MOL   H113 2045   2.407   7.336   1.651  1.2920 -0.2814 -0.0588
    7MOL   C114 2046   2.502   7.368   2.131  0.4897 -0.7302  0.0684
    7MOL   C115 2047   2.498   7.507   2.208  0.1233 -0.3744  0.3186
    7MOL   C116 2048   2.468   7.628   2.117  0.2383 -0.0229 -0.2048
    7MOL   O117 2049   2.522   7.630   2.006 -0.4630  0.2319  0.5197
    7MOL   N118 2050   2.400   7.730   2.180  0.2576 -0.2987 -0.1873
    7MOL   C119 2051   2.413   0.010   2.124  0.1245 -0.6593 -0.7169
    7MOL   C120 2052   2.314   7.720   2.292 -0.3676  0.5220 -0.1225
    7MOL   H121 2053   2.525   7.287   2.200  1.3385  0.1996  0.9181
    7MOL   H122 2054   2.584   7.372   2.059  1.2541  1.3082  0.9732
    7MOL   H123 2055   2.420   7.484   2.280  0.2399 -2.4746 -0.2032
    7MOL   H124 2056   2.385   0.087   2.196 -0.8925  0.1036 -1.9243
    7MOL   H125 2057   2.507   0.034   2.075 -0.3385  1.0308 -0.7833
    7MOL   H126 2058   2.334   0.012   2.049  0.1126 -1.2068 -0.7220
    7MOL   H127 2059   2.256   7.811   2.308  2.0599  2.4471 -1.7806
    7MOL   H128 2060   2.379   7.705   2.379 -0.5919  1.5945  0.2430
    7MOL   H129 2061   2.243   7.639   2.280  0.5494  0.0708 -2.8669
    7MOL   C130 2062   2.630   7.531   2.282 -0.1928 -0.3823 -0.1941
    7MOL   C131 2063   2.657   7.438   2.402  0.5143  0.6413 -0.7947
    7MOL   C132 2064   2.588   7.478   2.533  0.8104 -0.1472 -0.6924
    7MOL   O133 2065   2.641   7.565   2.603  0.1142  0.0517  0.4769
    7MOL   N134 2066   2.473   7.426   2.578  0.2524 -0.2005  0.3713
    7MOL   C135 2067   2.384   7.339   2.506  0.2494  0.5698  0.6920
    7MOL   C136 2068   2.415   7.461   2.711 -0.5976  0.1640  0.7029
    7MOL   H137 2069   2.717   7.512   2.220  0.7457 -1.9888  1.5586
    7MOL   H138 2070   2.653   7.633   2.312  0.6862 -1.3154  2.4367
    7MOL   H139 2071   2.625   7.337   2.378  0.9104  0.4964 -0.7131
    7MOL   H140 2072   2.440   7.275   2.438 -2.5856 -0.6623 -0.5377
    7MOL   H141 2073   2.341   7.274   2.582 -0.1163  1.0422  0.8945
    7MOL   H142 2074   2.308   7.398   2.455  0.6422 -2.1601 -3.3160
    7MOL   H143 2075   2.333   7.397   2.744  0.2080 -1.4035 -0.2593
    7MOL   H144 2076   2.369   7.560   2.710 -1.2264 -0.1165 -1.6709
    7MOL   H145 2077   2.489   7.449   2.790 -0.9380 -1.9966  0.7361
    7MOL   C146 2078   2.807   7.411   2.435 -0.4425 -0.3358 -0.0000
    7MOL   C147 2079   2.881   7.299   2.350  0.6169 -0.0644  0.3490
    7MOL   C148 2080   2.807   7.169   2.359  0.3026 -0.5410 -0.4419
    7MOL   O149 2081   2.754   7.132   2.462  0.3086  0.0136  0.1534
    7MOL   N150 2082   2.793   7.101   2.242 -0.1286  0.3635 -0.1911
    7MOL   C151 2083   2.700   6.985   2.235 -0.2946 -0.4846  0.2833
    7MOL   C152 2084   2.889   7.100   2.131  0.4886  0.4229 -0.0897
    7MOL   H153 2085   2.856   7.509   2.431 -0.2129 -0.5164 -2.3544
    7MOL   H154 2086   2.814   7.376   2.538 -0.7164 -1.0534 -0.2264
    7MOL   H155 2087   2.878   7.328   2.245  0.8857 -0.8696  0.1214
    7MOL   H156 2088   2.683   6.919   2.320 -3.0119 -0.3074 -0.0630
    7MOL   H157 2089   2.609   7.042   2.215  1.6005  1.2454 -4.1381
    7MOL   H158 2090   2.707   6.925   2.145  0.9979  0.3726 -0.2048
    7MOL   H159 2091   2.978   7.164   2.129  1.0710 -0.3348  0.9396
    7MOL   H160 2092   2.834   7.117   2.039 -1.5069  0.3582  1.0645
    7MOL   H161 2093   2.936   7.002   2.126  0.2261  0.2067  1.4134
    7MOL   C162 2094   3.031   7.273   2.375  0.0452 -0.3588 -0.2345
    7MOL   C163 2095   3.089   7.271   2.525  0.5849  0.6098  0.5208
    7MOL   C164 2096   3.093   7.403   2.602 -0.2920 -0.9310  0.0529
    7MOL   O165 2097   3.126   7.496   2.534 -0.5041  0.3232  0.0263
    7MOL   N166 2098   3.049   7.418   2.736 -0.8814 -0.2391 -0.5679
    7MOL   C167 2099   2.968   7.317   2.797 -0.0748 -0.1653  0.6977
    7MOL   C168 2100   3.058   7.540   2.807  0.0916  0.1596 -0.2065
    7MOL   H169 2101   3.063   7.188   2.315  1.5149  0.7710 -1.1059
    7MOL   H170 2102   3.077   7.357   2.323 -0.1374 -1.1093 -1.6387
    7MOL   H171 2103   3.016   7.203   2.568  0.3482  0.3810 -0.2356
    7MOL   H172 2104   2.868   7.324   2.753 -0.3513  0.2463  1.3686
    7MOL   H173 2105   3.004   7.216   2.779 -1.2810 -0.2889 -1.2158
    7MOL   H174 2106   2.960   7.319   2.906  0.6496 -0.4782  0.7576
    7MOL   H175 2107   3.147   7.594   2.775  1.0166 -0.8930  0.5752
    7MOL   H176 2108   3.067   7.518   2.914  1.1241 -0.3307 -0.3879
    7MOL   H177 2109   2.975   7.609   2.792 -0.3751  0.0352  1.6103
    7MOL   C178 2110   3.225   7.187   2.539  0.5277 -0.1891  0.0272
    7MOL   C179 2111   3.357   7.257   2.482 -0.3805 -0.4121 -0.3057
    7MOL   C180 2112   3.345   7.284   2.331  0.1567  0.0410  0.0368
    7MOL   O181 2113   3.297   7.192   2.266  0.2615  0.2933 -0.2803
    7MOL   N182 2114   3.382   7.404   2.275 -0.1228  0.5342  0.4281
    7MOL   C183 2115   3.411   7.407   2.133 -0.5009  0.2329  0.2909
    7MOL   C184 2116   3.429   7.521   2.353  0.3798  0.9127  0.1335
    7MOL   H185 2117   3.236   7.157   2.644 -4.4919  3.6027  1.8497
    7MOL   H186 2118   3.216   7.091   2.489 -1.0980  0.8866 -1.7806
    7MOL   H187 2119   3.377   7.344   2.544 -1.6613 -1.1235  1.1520
    7MOL   H188 2120   3.394   7.508   2.095  1.2498  0.2960 -0.4042
    7MOL   H189 2121   3.512   7.386   2.098  0.3021 -0.7799  3.1219
    7MOL   H190 2122   3.344   7.340   2.079  0.1050 -1.6889  1.8819
    7MOL   H191 2123   3.443   7.615   2.299  1.3976 -0.1281 -1.4637
    7MOL   H192 2124   3.530   7.493   2.383 -0.6616 -2.7845  0.4454
    7MOL   H193 2125   3.367   7.539   2.441  0.4991  0.7619  0.2484
    7MOL   C194 2126   3.486   7.173   2.508 -0.2000  0.3856  0.1445
    7MOL   C195 2127   3.520   7.040   2.432 -0.1242 -0.1737 -0.2616
    7MOL   C196 2128   3.438   6.928   2.494  0.3089  0.8076  0.7961
    7MOL   O197 2129   3.440   6.926   2.617 -0.0120  0.1671  0.2388
    7MOL   N198 2130   3.366   6.839   2.422 -0.3618  0.2680  0.4215
    7MOL   C199 2131   3.360   6.840   2.274 -0.3010 -0.2151  0.1689
    7MOL   C200 2132   3.303   6.716   2.479  0.2377  0.2167  0.4205
    7MOL   H201 2133   3.568   7.242   2.491  0.2625 -0.1679  0.1194
    7MOL   H202 2134   3.497   7.155   2.615 -0.7337 -2.5416 -0.2585
    7MOL   H203 2135   3.482   7.049   2.330 -0.8975  0.4468  0.0767
    7MOL   H204 2136   3.458   6.855   2.229  1.0849  0.2846  3.2237
    7MOL   H205 2137   3.328   6.740   2.247 -0.5833 -0.5516  1.7029
    7MOL   H206 2138   3.292   6.923   2.254 -1.2844 -0.6477  1.6020
    7MOL   H207 2139   3.251   6.752   2.567  1.4659  0.5946  1.0075
    7MOL   H208 2140   3.382   6.645   2.506 -0.7796 -1.3261 -0.5343
    7MOL   H209 2141   3.233   6.666   2.411 -0.8790 -0.3687  1.9866
    7MOL   C210 2142   3.661   7.007   2.454 -0.1352 -0.5657  0.4967
    7MOL   C211 2143   3.765   7.095   2.375 -0.1793 -0.2826  0.0321
    7MOL   C212 2144   3.739   7.086   2.223 -0.5887 -0.2185  0.4612
    7MOL   O213 2145   3.701   6.975   2.173 -0.2356 -0.1428 -0.1738
    7MOL   N214 2146   3.754   7.198   2.153 -0.2041 -0.5752  0.8457
    7MOL   C215 2147   3.742   7.197   2.003 -0.6382 -0.3291 -0.0989
    7MOL   C216 2148   3.791   7.328   2.207 -0.5551 -0.1306  0.0237
    7MOL   H217 2149   3.690   7.011   2.559  0.5837 -0.6476  0.3003
    7MOL   H218 2150   3.678   6.904   2.422  0.7760 -0.5476  0.8958
    7MOL   H219 2151   3.745   7.196   2.410 -0.8979 -0.1916 -0.6176
    7MOL   H220 2152   3.824   7.251   1.957  0.4820 -0.7883  1.3020
    7MOL   H221 2153   3.757   7.098   1.961  0.6692 -0.8823  1.5725
    7MOL   H222 2154   3.651   7.245   1.967  0.1145  2.3999  1.4932
    7MOL   H223 2155   3.721   7.380   2.272  0.1490  0.2708  0.4581
    7MOL   H224 2156   3.820   7.393   2.124 -1.5208  0.0160 -0.1990
    7MOL   H225 2157   3.887   7.324   2.259  0.4776 -2.1968 -1.9074
    7MOL   C226 2158   3.905   7.048   2.410  0.5196  0.2678  0.3484
    7MOL   C227 2159   3.960   7.072   2.555  0.4082 -0.1933  0.0123
    7MOL   C228 2160   3.925   7.209   2.615  0.0061 -0.7916 -0.2220
    7MOL   O229 2161   3.917   7.308   2.546 -0.5873  1.1668  0.4324
    7MOL   N230 2162   3.891   7.221   2.747 -0.2036 -0.2024 -0.3447
    7MOL   C231 2163   3.832   7.340   2.806  0.0778  0.0028 -0.0131
    7MOL   C232 2164   3.897   7.101   2.844  0.1802  0.3821 -0.1684
    7MOL   H233 2165   3.912   6.943   2.383 -2.2400  0.1944 -0.2595
    7MOL   H234 2166   3.981   7.083   2.340  1.4912 -3.4232 -0.5471
    7MOL   H235 2167   3.909   6.990   2.606 -0.7946  0.3265 -0.3402
    7MOL   H236 2168   3.725   7.331   2.826  0.3633  0.4772  1.8548
    7MOL   H237 2169   3.875   7.356   2.905  0.0190  0.4255 -0.0541
    7MOL   H238 2170   3.854   7.435   2.758  0.1446 -0.9262 -1.8845
    7MOL   H239 2171   3.822   7.023   2.834  4.2535 -3.9886  2.0814
    7MOL   H240 2172   3.901   7.136   2.947  1.5853  0.9170 -0.3831
    7MOL   H241 2173   3.992   7.048   2.835 -0.7940 -1.4789  0.4448
    7MOL   C242 2174   4.118   7.050   2.558  0.6635 -0.1305  0.4498
    7MOL   C243 2175   4.174   6.916   2.504 -0.4211  0.3018 -0.6746
    7MOL   C244 2176   4.116   6.784   2.566  0.0126  0.3300 -0.2277
    7MOL   O245 2177   4.094   6.779   2.687  0.5804  0.1163  0.2435
    7MOL   N246 2178   4.099   6.672   2.488  0.2442 -0.1015 -0.2193
    7MOL   C247 2179   4.118   6.661   2.347 -0.1329 -0.8317  0.1101
    7MOL   C248 2180   4.082   6.537   2.543 -0.0619 -0.1426 -0.4969
    7MOL   H249 2181   4.169   7.125   2.498 -3.3482  2.7057  0.4086
    7MOL   H250 2182   4.152   7.065   2.661  0.8586  0.2286  0.3343
    7MOL   H251 2183   4.152   6.916   2.397  0.0878  0.0881 -0.7796
    7MOL   H252 2184   4.120   6.559   2.308 -3.2182  0.2331 -3.1897
    7MOL   H253 2185   4.028   6.711   2.309  1.4385  1.2144 -1.0040
    7MOL   H254 2186   4.205   6.715   2.310 -2.3983  2.2623 -1.0036
    7MOL   H255 2187   4.056   6.536   2.648 -2.6824 -0.2317 -1.1241
    7MOL   H256 2188   4.182   6.494   2.551 -0.3013 -0.7146 -0.6102
    7MOL   H257 2189   4.004   6.483   2.490 -1.6666 -0.8176  2.4915
    7MOL   C258 2190   4.333   6.914   2.480  0.7015  0.2373 -0.2000
    7MOL   C259 2191   4.422   6.867   2.597 -0.2332  0.0095 -0.1451
    7MOL   C260 2192   4.415   6.976   2.711 -0.0970  0.5120  0.6611
    7MOL   O261 2193   4.422   7.097   2.681 -0.2572 -0.0239  0.3021
    7MOL   N262 2194   4.403   6.929   2.841 -0.4746 -0.5121  0.4518
    7MOL   C263 2195   4.376   7.027   2.950  0.1471  0.7318 -0.2885
    7MOL   C264 2196   4.405   6.787   2.878  0.3049  0.6358  0.0784
    7MOL   H265 2197   4.354   6.851   2.394 -2.6705  0.5429 -1.3484
    7MOL   H266 2198   4.369   7.009   2.442  1.2286  1.0780  2.2728
    7MOL   H267 2199   4.380   6.769   2.620 -1.1397  0.6646  1.0576
    7MOL   H268 2200   4.437   7.117   2.960 -1.0785  1.3523  1.8070
    7MOL   H269 2201   4.276   7.068   2.960  1.4383  3.9861 -0.3101
    7MOL   H270 2202   4.402   6.979   3.045  1.4811  1.5567 -0.2294
    7MOL   H271 2203   4.322   6.741   2.823  0.2649 -0.3062  0.9201
    7MOL   H272 2204   4.374   6.761   2.979 -1.7375 -3.2139 -1.4266
    7MOL   H273 2205   4.500   6.737   2.863 -0.1333 -0.2621  0.2773
    7MOL   C274 2206   4.561   6.841   2.557  0.1492 -0.8279 -0.2117
    7MOL   C275 2207   4.594   6.717   2.479 -0.7130  0.2159 -0.2837
    7MOL   C276 2208   4.582   6.587   2.557  0.1782  0.1616  0.0064
    7MOL   O277 2209   4.637   6.590   2.673 -0.2218 -0.3804  0.1837
    7MOL   N278 2210   4.525   6.478   2.506 -0.0714 -0.0661  0.1513
    7MOL   C279 2211   4.492   6.457   2.365  0.1363  0.5855  0.0458
    7MOL   C280 2212   4.475   6.361   2.586 -0.6444  0.5710  0.5085
    7MOL   H281 2213   4.601   6.928   2.505  0.9740 -0.4793  0.9797
    7MOL   H282 2214   4.614   6.831   2.652  1.3158  0.7647 -0.6718
    7MOL   H283 2215   4.533   6.724   2.389  0.5632 -0.6539 -1.2448
    7MOL   H284 2216   4.521   6.355   2.342  3.5455  1.3074  0.7676
    7MOL   H285 2217   4.391   6.478   2.331  0.0190  2.6863  1.5696
    7MOL   H286 2218   4.546   6.524   2.298  0.8228 -0.2373 -0.2248
    7MOL   H287 2219   4.441   6.280   2.522 -0.3361  0.6167  0.2812
    7MOL   H288 2220   4.406   6.386   2.666 -1.1000 -1.1158  0.6535
    7MOL   H289 2221   4.556   6.308   2.636  1.9886  1.7904 -2.2711
    7MOL   C290 2222   4.749   6.742   2.442  0.1376 -0.2001  0.3995
    7MOL   C291 2223   4.801   6.650   2.329 -0.3795 -0.2803  0.2304
    7MOL   C292 2224   4.951   6.616   2.352  0.0784  0.3978 -0.0960
    7MOL   O293 2225   5.033   6.700   2.305 -0.3606  0.0791  0.5816
    7MOL   N294 2226   4.986   6.507   2.425 -0.1603 -0.5810  0.2316
    7MOL   C295 2227   5.124   6.484   2.459 -0.0671 -0.4335 -1.0081
    7MOL   C296 2228   4.888   6.400   2.457 -0.4349  0.2591 -0.1446
    7MOL   H297 2229   4.768   6.840   2.397 -2.1355 -0.4238 -1.1126
    7MOL   H298 2230   4.811   6.743   2.532 -1.4999 -0.2007  1.5418
    7MOL   H299 2231   4.747   6.556   2.335 -0.6373 -0.1141  0.5489
    7MOL   H300 2232   5.135   6.490   2.567  1.6765  0.8452 -1.2425
    7MOL   H301 2233   5.145   6.386   2.416  0.3860 -0.0760 -1.6123
    7MOL   H302 2234   5.187   6.565   2.424  0.9091  0.4541  2.5834
    7MOL   H303 2235   4.845   6.373   2.361 -0.4057  0.4691 -0.2182
    7MOL   H304 2236   4.819   6.446   2.529  0.3727 -3.4081  3.1461
    7MOL   H305 2237   4.924   6.309   2.505 -0.6831 -0.0149 -0.4770
    7MOL   C306 2238   4.783   6.706   2.187 -0.0316  0.1141  0.1650
    7MOL   C307 2239   4.838   6.619   2.073 -0.3342 -0.5861 -0.6442
    7MOL   C308 2240   4.782   6.480   2.063 -0.0588 -0.5411 -0.1360
    7MOL   O309 2241   4.666   6.470   2.069  0.7645  0.2096 -0.1095
    7MOL   N310 2242   4.859   6.370   2.059 -0.2076  0.4528 -0.1898
    7MOL   C311 2243   5.005   6.368   2.061 -0.0412  0.5941 -0.2626
    7MOL   C312 2244   4.802   6.232   2.067  0.1962  0.2948 -0.4115
    7MOL   H313 2245   4.678   6.723   2.163  0.0908 -0.4905 -0.8617
    7MOL   H314 2246   4.823   6.807   2.178  0.4227 -0.1689 -1.0745
    7MOL   H315 2247   4.812   6.661   1.976 -0.6636  0.2444 -0.2023
    7MOL   H316 2248   5.040   6.377   2.164 -1.3078  4.1065 -0.0947
    7MOL   H317 2249   5.049   6.275   2.025 -2.1625 -1.1714  1.5382
    7MOL   H318 2250   5.035   6.451   1.997 -1.9336  1.5005 -0.0143
    7MOL   H319 2251   4.694   6.232   2.050  0.2756 -1.3964 -0.9494
    7MOL   H320 2252   4.826   6.177   2.158 -3.5354 -0.3720  0.2275
    7MOL   H321 2253   4.839   6.180   1.979  1.2767  2.1034 -1.0418
    7MOL   H322 2254   4.947   6.623   2.078 -0.4209  3.4136 -0.7222
    8MOL     C1 2255   6.658   5.656   2.443  0.3145  0.4894 -0.3150
    8MOL     C2 2256   6.663   5.807   2.423 -0.4649 -0.2956  0.0965
    8MOL     C3 2257   6.695   5.885   2.557  0.1045  0.0410 -0.5970
    8MOL     O4 2258   6.606   5.913   2.640 -0.2721  0.1943 -0.6925
    8MOL     N5 2259   6.819   5.929   2.581 -0.3252 -0.5372 -0.2118
    8MOL     C6 2260   6.848   6.000   2.707 -0.2497 -0.9095  0.2064
    8MOL     C7 2261   6.928   5.901   2.490 -0.4345 -0.4266  0.3361
    8MOL     H8 2262   6.641   5.599   2.351  2.2143 -1.1541  0.3138
    8MOL     H9 2263   6.575   5.617   2.501  0.8177 -0.5948 -0.3092
    8MOL    H10 2264   6.746   5.826   2.354 -1.8001  1.3470 -1.0983
    8MOL    H11 2265   6.955   5.998   2.730 -0.0948  1.6608 -0.1205
    8MOL    H12 2266   6.823   6.106   2.703  0.2305 -0.7510  1.2210
    8MOL    H13 2267   6.797   5.954   2.792 -1.6728 -4.8811 -2.6633
    8MOL    H14 2268   6.960   5.797   2.494  1.1587 -0.0801 -2.3061
    8MOL    H15 2269   7.013   5.963   2.520  1.1470 -1.5917 -1.6624
    8MOL    H16 2270   6.912   5.939   2.389 -2.2143 -2.8383 -0.3306
    8MOL    H17 2271   6.749   5.622   2.492 -0.2379  0.7659  0.9027
    8MOL    C18 2272   6.529   5.855   2.354 -0.2888 -0.0354 -0.1005
    8MOL    C19 2273   6.517   6.007   2.323 -0.4568 -0.3449  0.0401
    8MOL    C20 2274   6.370   6.045   2.287 -0.3312 -1.1222  0.2017
    8MOL    O21 2275   6.321   5.975   2.200  0.7449  0.5983  0.2069
    8MOL    N22 2276   6.304   6.144   2.357 -0.3578  0.3105  0.5434
    8MOL    C23 2277   6.362   6.211   2.473  0.3975 -0.4196  0.3567
    8MOL    C24 2278   6.167   6.179   2.315  0.3373 -0.0504 -0.3274
    8MOL    H25 2279   6.522   5.796   2.264 -4.5553 -0.7358  0.5952
    8MOL    H26 2280   6.439   5.828   2.409 -2.0360  1.1998 -2.3068
    8MOL    H27 2281   6.553   6.059   2.411  0.5109 -1.4531  0.3035
    8MOL    H28 2282   6.409   6.145   2.545  2.5730  1.2595  0.5143
    8MOL    H29 2283   6.430   6.289   2.440  2.4027 -1.0477  2.9206
    8MOL    H30 2284   6.283   6.260   2.530  0.3853 -0.3463  0.2769
    8MOL    H31 2285   6.116   6.239   2.391 -0.3548 -1.5327  0.3879
    8MOL    H32 2286   6.109   6.089   2.296  1.5721 -0.9659  0.1544
    8MOL    H33 2287   6.178   6.246   2.230 -0.4494  0.6926  0.1410
    8MOL    C34 2288   6.614   6.046   2.204  0.0441 -0.0077 -0.2084
    8MOL    C35 2289   6.720   6.156   2.236 -0.3068  0.2745 -0.4909
    8MOL    C36 2290   6.652   6.296   2.252 -0.7171  0.1432  0.1792
    8MOL    O37 2291   6.584   6.343   2.161 -0.2169  0.4198  0.0611
    8MOL    N38 2292   6.671   6.365   2.365 -0.3022 -0.2945 -0.1784
    8MOL    C39 2293   6.761   6.316   2.475  0.4442 -0.5784  0.0174
    8MOL    C40 2294   6.600   6.492   2.396  0.1435  0.3210  0.0037
    8MOL    H41 2295   6.658   5.953   2.167  1.3946  0.4343  0.2442
    8MOL    H42 2296   6.552   6.079   2.121 -1.8578 -1.0813  0.7512
    8MOL    H43 2297   6.775   6.125   2.325  2.4183  0.9585 -1.8720
    8MOL    H44 2298   6.860   6.299   2.435  1.2099 -0.6777  1.8838
    8MOL    H45 2299   6.773   6.392   2.553 -0.2810  0.5674 -0.9680
    8MOL    H46 2300   6.713   6.232   2.524 -1.8008 -0.2483 -1.5314
    8MOL    H47 2301   6.555   6.489   2.495 -0.2580 -0.9356 -0.2002
    8MOL    H48 2302   6.516   6.515   2.331  1.9730  2.8483 -1.5552
    8MOL    H49 2303   6.662   6.581   2.403 -0.9548  1.0962  0.0302
    8MOL    C50 2304   6.818   6.156   2.118  0.3720  0.7363  0.3273
    8MOL    C51 2305   6.931   6.263   2.118 -0.2826 -0.5222  0.1209
    8MOL    C52 2306   6.938   6.338   1.979 -0.0468  0.2913 -0.1410
    8MOL    O53 2307   6.934   6.275   1.874 -0.1580  0.4762  0.6491
    8MOL    N54 2308   6.955   6.471   1.971 -0.2722 -0.0988 -0.0861
    8MOL    C55 2309   6.962   6.561   2.085 -0.0772 -0.1482 -0.4304
    8MOL    C56 2310   6.981   6.539   1.841  0.1951  0.1899 -0.4230
    8MOL    H57 2311   6.870   6.061   2.110  2.6495  2.0239 -0.7831
    8MOL    H58 2312   6.755   6.168   2.030  1.2951  0.0719 -0.4399
    8MOL    H59 2313   6.912   6.337   2.196 -0.5964 -1.0803  0.5832
    8MOL    H60 2314   7.039   6.521   2.150  0.0864 -0.4137 -0.7863
    8MOL    H61 2315   7.014   6.653   2.059  1.6001 -1.3132 -1.2725
    8MOL    H62 2316   6.866   6.585   2.131  0.3531  1.5904 -0.4108
    8MOL    H63 2317   7.086   6.528   1.813 -0.4352 -2.7698 -1.8820
    8MOL    H64 2318   6.960   6.646   1.851  1.4199  0.3514  0.4987
    8MOL    H65 2319   6.914   6.504   1.762 -0.3873  2.1627 -0.8338
    8MOL    C66 2320   7.067   6.211   2.156 -0.5520 -0.4286 -0.3926
    8MOL    C67 2321   7.134   6.109   2.061 -0.4306 -1.0930 -0.5329
    8MOL    C68 2322   7.106   5.970   2.113 -0.2090 -0.4124  0.4236
    8MOL    O69 2323   7.143   5.948   2.227 -1.0082 -0.3984 -0.2808
    8MOL    N70 2324   7.062   5.873   2.026  0.6600  0.1156 -0.0728
    8MOL    C71 2325   6.996   5.896   1.896  0.5858 -0.8155 -0.4930
    8MOL    C72 2326   7.056   5.726   2.067 -0.2399  0.4258  0.3732
    8MOL    H73 2327   7.138   6.290   2.177  0.6578 -1.0728 -1.8952
    8MOL    H74 2328   7.040   6.161   2.248 -2.9224 -1.2863 -1.5048
    8MOL    H75 2329   7.087   6.125   1.964 -0.9271  1.6246  0.1066
    8MOL    H76 2330   6.974   5.805   1.840  0.4149 -0.6183 -0.7474
    8MOL    H77 2331   6.907   5.958   1.895  1.8526  1.0503 -1.1688
    8MOL    H78 2332   7.063   5.950   1.829 -2.4763  0.2392 -2.7817
    8MOL    H79 2333   7.120   5.662   2.007  1.8081  0.2037  2.6799
    8MOL    H80 2334   6.957   5.682   2.066 -0.8222  1.6814  0.8366
    8MOL    H81 2335   7.089   5.715   2.171  1.5616  1.8416 -0.0058
    8MOL    C82 2336   7.283   6.137   2.027 -0.2379  0.0016 -0.0289
    8MOL    C83 2337   7.355   6.051   1.920  0.3075 -0.8584  0.4250
    8MOL    C84 2338   7.438   5.937   1.984 -0.3242 -0.2428  0.9283
    8MOL    O85 2339   7.492   5.968   2.091 -0.4019  0.1623 -0.2399
    8MOL    N86 2340   7.460   5.815   1.924  0.4412 -0.0240 -0.3305
    8MOL    C87 2341   7.425   5.797   1.784  0.5836 -0.3105  0.3914
    8MOL    C88 2342   7.510   5.694   1.995 -0.0484 -0.3118  0.3743
    8MOL    H89 2343   7.280   6.236   1.983 -0.4350  1.0351  2.2328
    8MOL    H90 2344   7.341   6.159   2.117 -0.9803 -1.1713  0.7502
    8MOL    H91 2345   7.282   6.006   1.853  0.8706 -1.0542 -0.0573
    8MOL    H92 2346   7.452   5.885   1.726 -0.3874 -0.2763 -0.0117
    8MOL    H93 2347   7.483   5.718   1.736  0.2157  0.6910 -1.7620
    8MOL    H94 2348   7.319   5.773   1.777  0.2240  0.6581  2.2389
    8MOL    H95 2349   7.440   5.666   2.075 -1.4076  1.7546 -0.0373
    8MOL    H96 2350   7.614   5.699   2.025  0.6938  0.2814 -2.2259
    8MOL    H97 2351   7.507   5.613   1.922  1.2189 -0.1230  0.1066
    8MOL    C98 2352   7.459   6.140   1.852 -0.3893  0.4101  0.2208
    8MOL    C99 2353   7.399   6.248   1.753 -0.3563  0.6843  0.2792
    8MOL   C100 2354   7.333   6.183   1.633 -0.0921  0.3818 -0.4676
    8MOL   O101 2355   7.361   6.068   1.598 -0.5093  0.1448  0.2058
    8MOL   N102 2356   7.239   6.250   1.568 -0.1388 -1.4801 -0.2011
    8MOL   C103 2357   7.210   6.214   1.430 -0.0378  0.5997 -0.1518
    8MOL   C104 2358   7.179   6.374   1.621  0.5021  0.5541 -0.2662
    8MOL   H105 2359   7.509   6.195   1.932 -0.6534 -0.0403  0.7001
    8MOL   H106 2360   7.533   6.076   1.804 -0.4390  0.8072 -0.3801
    8MOL   H107 2361   7.326   6.308   1.808 -1.7040  0.4679 -1.2382
    8MOL   H108 2362   7.299   6.236   1.372 -0.9326  0.3611 -1.6248
    8MOL   H109 2363   7.182   6.109   1.420  0.9432  0.1398  1.6363
    8MOL   H110 2364   7.130   6.271   1.384 -1.0039 -0.3683  0.2856
    8MOL   H111 2365   7.129   6.348   1.715  0.6771  0.8953 -0.0776
    8MOL   H112 2366   7.118   6.434   1.554 -0.8281  1.3910  1.6340
    8MOL   H113 2367   7.262   6.445   1.629  2.0627 -0.8293 -3.5178
    8MOL   C114 2368   7.521   6.334   1.709  0.3879  0.0502 -0.0956
    8MOL   C115 2369   7.579   6.445   1.807  0.8384  0.4415  0.1077
    8MOL   C116 2370   7.476   6.556   1.818 -0.1980 -0.4145  0.4511
    8MOL   O117 2371   7.434   6.595   1.713  0.1792  0.2378 -0.8012
    8MOL   N118 2372   7.432   6.593   1.945  0.2329 -0.2721 -0.1725
    8MOL   C119 2373   7.438   6.511   2.068 -0.1753  0.7676  0.9507
    8MOL   C120 2374   7.343   6.711   1.960 -0.6931 -0.3308 -0.1834
    8MOL   H121 2375   7.606   6.274   1.677  2.2589  3.0063 -0.9624
    8MOL   H122 2376   7.497   6.388   1.617 -0.0596  0.3646  0.2054
    8MOL   H123 2377   7.616   6.393   1.895  1.9733  0.3107 -0.4368
    8MOL   H124 2378   7.411   6.575   2.152 -2.7188  0.5462  0.3355
    8MOL   H125 2379   7.386   6.416   2.058  1.3684  0.1316 -1.3367
    8MOL   H126 2380   7.541   6.480   2.089 -0.7044 -0.3887  1.9118
    8MOL   H127 2381   7.375   6.760   2.052  0.3675 -2.7891  0.8024
    8MOL   H128 2382   7.237   6.690   1.968 -0.3468 -1.2506  2.3057
    8MOL   H129 2383   7.355   6.778   1.875 -0.1359 -1.3514 -0.9298
    8MOL   C130 2384   7.718   6.503   1.755 -0.7085 -0.3822  0.5590
    8MOL   C131 2385   7.824   6.568   1.843 -0.1048 -0.4687  0.2985
    8MOL   C132 2386   0.000   6.475   1.964 -0.3806 -0.1208  0.4232
    8MOL   O133 2387   7.804   6.507   2.077 -0.3142  0.1316  0.1417
    8MOL   N134 2388   0.075   6.363   1.946 -0.0371 -0.0711 -0.3519
    8MOL   C135 2389   0.156   6.341   1.826 -0.4591 -0.2539  0.1625
    8MOL   C136 2390   0.088   6.261   2.051  0.0856  0.3917  0.8604
    8MOL   H137 2391   7.754   6.409   1.713 -1.8804 -0.7969  0.4574
    8MOL   H138 2392   7.702   6.564   1.665  2.0363  2.7792  2.1005
    8MOL   H139 2393   0.063   6.586   1.787  0.8345 -0.8011  1.7021
    8MOL   H140 2394   0.224   6.426   1.827 -0.8843  0.0943  0.0034
    8MOL   H141 2395   0.208   6.247   1.811 -1.1922 -0.4389 -1.2755
    8MOL   H142 2396   0.098   6.361   1.736 -0.5874  0.6754  0.4445
    8MOL   H143 2397   0.176   6.200   2.033 -0.8970 -0.6859 -0.3938
    8MOL   H144 2398   7.853   6.198   2.063 -0.1481  0.4345 -0.5161
    8MOL   H145 2399   0.102   6.309   2.148 -1.0774  3.2312 -0.3239
    8MOL   C146 2400   7.785   6.714   1.879 -0.8427  0.0636  0.4522
    8MOL   C147 2401   7.811   6.817   1.774 -0.3878  0.0324  0.0640
    8MOL   C148 2402   7.828   6.948   1.844 -0.7870  0.4645 -0.4456
    8MOL   O149 2403   7.729   7.006   1.881 -0.4506 -0.5521  0.2886
    8MOL   N150 2404   0.100   6.980   1.892 -0.6417  0.2147  0.3507
    8MOL   C151 2405   0.223   6.924   1.843  0.0337 -0.4076 -0.1622
    8MOL   C152 2406   0.124   7.072   2.009  0.7361 -0.2892 -1.2199
    8MOL   H153 2407   7.681   6.728   1.908 -1.1991  0.3782 -0.9563
    8MOL   H154 2408   7.838   6.727   1.974  1.7356 -0.0036 -0.9336
    8MOL   H155 2409   0.051   6.790   1.726 -1.2832 -0.9132 -1.1917
    8MOL   H156 2410   0.241   6.821   1.871 -0.4637 -0.7823 -1.1758
    8MOL   H157 2411   0.216   6.915   1.735 -0.5536 -1.5687 -0.0338
    8MOL   H158 2412   0.310   6.989   1.855 -0.8159  0.7746 -0.3176
    8MOL   H159 2413   0.170   7.027   2.097  0.4113  3.0823  0.7401
    8MOL   H160 2414   0.025   7.106   2.038  1.4136  0.2588  0.5236
    8MOL   H161 2415   0.167   7.165   1.974 -0.4883  1.1209  0.9098
    8MOL   C162 2416   7.699   6.830   1.668  0.5300  0.7622 -0.2290
    8MOL   C163 2417   7.738   6.812   1.517  0.5452 -1.1013 -0.0107
    8MOL   C164 2418   7.804   6.929   1.447 -0.8437  0.7188 -0.0462
    8MOL   O165 2419   7.746   7.036   1.434 -0.0582  0.3718 -0.4507
    8MOL   N166 2420   0.078   6.923   1.402  0.2597  0.4108  0.0886
    8MOL   C167 2421   0.135   7.017   1.297 -0.3301  0.2062 -0.3234
    8MOL   C168 2422   0.176   6.826   1.445 -0.1586  0.1813  0.0566
    8MOL   H169 2423   7.626   6.751   1.684  2.7735 -1.0000  1.5215
    8MOL   H170 2424   7.648   6.926   1.674  0.3558  0.6427  0.2272
    8MOL   H171 2425   7.802   6.724   1.528  3.7093  0.8129 -2.4337
    8MOL   H172 2426   0.223   6.984   1.243  1.2238  1.8169  1.1736
    8MOL   H173 2427   0.057   7.036   1.223 -0.7964 -0.2822  0.0295
    8MOL   H174 2428   0.147   7.114   1.345 -1.7265  0.6022 -0.7256
    8MOL   H175 2429   0.257   6.884   1.490  0.1232  1.7512 -2.3976
    8MOL   H176 2430   0.232   6.768   1.370 -0.4071  1.1450 -0.8797
    8MOL   H177 2431   0.149   6.753   1.521  0.7806 -0.6255 -0.3716
    8MOL   C178 2432   7.614   6.772   1.429  0.4661 -0.2394  0.3623
    8MOL   C179 2433   7.659   6.677   1.321  0.0027 -0.3273 -0.1538
    8MOL   C180 2434   7.561   6.700   1.201 -0.4951  0.8971 -0.4831
    8MOL   O181 2435   7.444   6.693   1.227 -0.9871  0.7113 -0.1851
    8MOL   N182 2436   7.610   6.706   1.079 -0.0767 -0.0626 -0.0461
    8MOL   C183 2437   7.519   6.688   0.967  0.1979 -0.5119 -0.4612
    8MOL   C184 2438   7.731   6.774   1.050 -0.1759  0.5980  0.1178
    8MOL   H185 2439   7.539   6.723   1.490 -2.6241  0.4055 -2.7398
    8MOL   H186 2440   7.565   6.860   1.387 -0.8326 -1.3614 -0.5058
    8MOL   H187 2441   7.760   6.702   1.287 -0.0859 -0.7191 -0.7088
    8MOL   H188 2442   7.451   6.774   0.958 -0.4300 -0.7202  1.8552
    8MOL   H189 2443   7.582   6.682   0.879  2.1370  0.7636  0.7961
    8MOL   H190 2444   7.458   6.599   0.979 -0.1338  0.0983  2.8696
    8MOL   H191 2445   7.760   6.848   1.124  1.2297 -0.2557  0.4468
    8MOL   H192 2446   7.741   6.829   0.957 -2.2187 -0.9063 -1.0582
    8MOL   H193 2447   7.809   6.698   1.040  0.3455  0.8349  2.2226
    8MOL   C194 2448   7.647   6.528   1.365  0.1392  0.1876 -0.1977
    8MOL   C195 2449   7.766   6.438   1.321 -0.8644 -0.0778 -0.7576
    8MOL   C196 2450   7.728   6.294   1.365 -0.5255  0.1438 -0.1284
    8MOL   O197 2451   7.769   6.244   1.471 -0.5370  0.0092 -0.8456
    8MOL   N198 2452   7.646   6.223   1.280 -0.3617 -0.4068  0.0015
    8MOL   C199 2453   7.615   6.088   1.316  0.8085 -0.6740  0.2378
    8MOL   C200 2454   7.588   6.276   1.153  0.2472 -0.2035  0.6690
    8MOL   H201 2455   7.617   6.516   1.469  1.5659 -1.5162  0.0407
    8MOL   H202 2456   7.564   6.479   1.315 -0.1519  0.2987  0.1749
    8MOL   H203 2457   7.784   6.450   1.215 -1.5937 -0.1853 -0.8965
    8MOL   H204 2458   7.529   6.087   1.382 -0.4996 -1.1861 -1.4476
    8MOL   H205 2459   7.602   6.035   1.222 -2.1883  0.1057  0.1549
    8MOL   H206 2460   7.695   6.036   1.369 -1.2930 -3.6599  0.6227
    8MOL   H207 2461   7.568   6.200   1.078  1.3689  0.3467 -0.2032
    8MOL   H208 2462   7.643   6.356   1.103  1.9364 -0.7427  1.5965
    8MOL   H209 2463   7.484   6.308   1.155  0.0384 -0.9082  0.9345
    8MOL   C210 2464   0.039   6.477   1.402  0.2941 -0.2254  0.6656
    8MOL   C211 2465   0.168   6.394   1.366 -0.1115 -0.0919  0.8261
    8MOL   C212 2466   0.271   6.417   1.484  0.6911 -0.3267 -0.2222
    8MOL   O213 2467   0.281   6.532   1.530  0.1605  0.5691  0.5373
    8MOL   N214 2468   0.351   6.316   1.535 -0.0198  0.1676  0.4445
    8MOL   C215 2469   0.320   6.171   1.508 -0.2789  0.5228  0.7601
    8MOL   C216 2470   0.459   6.347   1.627  0.3600 -0.1614  0.2451
    8MOL   H217 2471   0.052   6.585   1.399  2.9704 -0.5295 -0.0603
    8MOL   H218 2472   0.032   6.471   1.510  1.2926  1.8285  0.8708
    8MOL   H219 2473   0.140   6.291   1.346  0.7209 -0.0336 -0.7287
    8MOL   H220 2474   0.364   6.103   1.581  1.9165 -2.0211 -2.7677
    8MOL   H221 2475   0.214   6.146   1.501  0.0762 -0.9943  0.7851
    8MOL   H222 2476   0.361   6.136   1.414 -0.0023  1.1122  0.6554
    8MOL   H223 2477   0.412   6.372   1.722  0.1975 -1.7740  0.5956
    8MOL   H224 2478   0.507   6.428   1.572  2.4361 -0.7420  1.1547
    8MOL   H225 2479   0.522   6.260   1.640 -1.6028 -1.5586  0.5811
    8MOL   C226 2480   0.226   6.453   1.231 -0.0991 -0.0094 -0.5649
    8MOL   C227 2481   0.367   6.396   1.187  0.3962  0.9086  0.3993
    8MOL   C228 2482   0.486   6.493   1.201 -0.6782  0.1330 -0.7020
    8MOL   O229 2483   0.464   6.602   1.152  0.5342 -0.3677  0.1873
    8MOL   N230 2484   0.606   6.462   1.253 -0.3813  0.3395 -0.3838
    8MOL   C231 2485   0.721   6.552   1.225 -0.2888  0.1451  0.4745
    8MOL   C232 2486   0.638   6.330   1.313  0.3923 -0.9222  0.0291
    8MOL   H233 2487   0.154   6.432   1.152  0.9059 -1.2054 -1.1790
    8MOL   H234 2488   0.228   6.562   1.237  0.3847 -0.0517  0.1527
    8MOL   H235 2489   0.384   6.314   1.257 -2.9523  1.6911  2.2450
    8MOL   H236 2490   0.698   6.657   1.245  1.0355  0.6496 -0.5671
    8MOL   H237 2491   0.800   6.516   1.291 -0.1913 -1.5705 -0.5453
    8MOL   H238 2492   0.758   6.546   1.123 -1.8705  2.3002 -0.2618
    8MOL   H239 2493   0.628   6.255   1.235  1.1821 -1.8800  0.8432
    8MOL   H240 2494   0.567   6.296   1.387  1.2571  0.5288  1.5783
    8MOL   H241 2495   0.735   6.322   1.362  1.0508  0.0596 -1.0715
    8MOL   C242 2496   0.377   6.348   1.031 -0.1406 -0.4025 -0.8924
    8MOL   C243 2497   0.274   6.242   0.988 -0.6439  0.5192  0.4827
    8MOL   C244 2498   0.268   6.120   1.083 -0.6983 -0.3041 -0.4996
    8MOL   O245 2499   0.370   6.084   1.149 -0.1132  0.0903  0.2418
    8MOL   N246 2500   0.151   6.064   1.118 -0.3509 -0.8144  0.2759
    8MOL   C247 2501   0.030   6.067   1.042  0.4280  0.4896 -0.1962
    8MOL   C248 2502   0.132   5.990   1.247  0.7943  0.0296  0.0465
    8MOL   H249 2503   0.351   6.438   0.976 -0.6184 -1.9334 -3.2824
    8MOL   H250 2504   0.480   6.324   1.006  0.0665 -0.9906  0.4971
    8MOL   H251 2505   0.173   6.280   1.004 -0.7572  0.5131 -0.1913
    8MOL   H252 2506   7.832   6.163   1.039  1.4874  1.0751  0.2175
    8MOL   H253 2507   0.057   6.030   0.943  1.0658  1.5889 -0.4395
    8MOL   H254 2508   7.803   6.001   1.076  0.8234  0.0980 -0.0244
    8MOL   H255 2509   0.126   5.885   1.221  1.3252  0.1573 -0.6161
    8MOL   H256 2510   0.045   6.021   1.304 -0.3210  1.3987 -2.3108
    8MOL   H257 2511   0.220   6.000   1.312  0.9207 -2.0008  0.2233
    8MOL   C258 2512   0.284   6.190   0.844  0.3580  0.0578 -0.0809
    8MOL   C259 2513   0.240   6.284   0.724  0.2265 -0.3246 -0.0903
    8MOL   C260 2514   0.088   6.305   0.733  0.0023  0.0905  0.1019
    8MOL   O261 2515   0.014   6.210   0.709 -0.0159 -0.3113  0.4497
    8MOL   N262 2516   0.033   6.426   0.769 -0.3532 -0.3691 -0.0847
    8MOL   C263 2517   0.106   6.553   0.793 -0.2681 -0.3213 -0.2890
    8MOL   C264 2518   7.743   6.445   0.782  0.5219  0.2212  0.1550
    8MOL   H265 2519   0.387   6.165   0.820  0.5484 -1.5679  2.2802
    8MOL   H266 2520   0.245   6.092   0.816 -1.1032  0.1643  1.5379
    8MOL   H267 2521   0.292   6.378   0.742  1.4302 -0.8091 -0.9803
    8MOL   H268 2522   0.088   6.639   0.729 -1.7804 -0.8658 -0.6053
    8MOL   H269 2523   0.090   6.575   0.899  0.6653 -1.0803  0.0238
    8MOL   H270 2524   0.215   6.546   0.795 -0.2388 -0.4646 -1.7444
    8MOL   H271 2525   7.694   6.354   0.817  0.0509 -0.3859 -2.0274
    8MOL   H272 2526   7.697   6.472   0.688  1.7044  0.7665 -0.2820
    8MOL   H273 2527   7.708   6.518   0.855  0.1710  0.2620 -0.0575
    8MOL   C274 2528   0.278   6.214   0.585  0.0813 -0.1383  0.2063
    8MOL   C275 2529   0.227   6.273   0.457  0.2822  0.5657  0.1986
    8MOL   C276 2530   0.277   6.186   0.340 -0.1580  0.3334  0.8339
    8MOL   O277 2531   0.397   6.173   0.310 -0.1685 -0.1332 -0.0765
    8MOL   N278 2532   0.183   6.118   0.272 -0.5555  0.0675 -0.6358
    8MOL   C279 2533   0.226   6.025   0.156 -0.3691 -0.2644 -0.0223
    8MOL   C280 2534   0.036   6.120   0.297 -0.0710  0.1784 -0.3267
    8MOL   H281 2535   0.385   6.203   0.572 -0.3562 -2.5460 -1.6707
    8MOL   H282 2536   0.237   6.113   0.582  0.5893 -0.3257 -0.4592
    8MOL   H283 2537   0.119   6.268   0.452  0.2343  1.2413  0.4886
    8MOL   H284 2538   0.194   5.923   0.178 -0.5242 -0.8151 -2.6539
    8MOL   H285 2539   0.189   6.057   0.059  0.1085 -1.1344 -0.4946
    8MOL   H286 2540   0.333   6.009   0.142  0.0958  1.9212  0.8187
    8MOL   H287 2541   7.827   6.065   0.227 -2.3803  1.7870  0.4137
    8MOL   H288 2542   7.851   6.220   0.276 -0.2437  0.3252  0.6471
    8MOL   H289 2543   0.007   6.080   0.394  0.0668  0.8160 -0.0156
    8MOL   C290 2544   0.270   6.426   0.433 -0.6520 -0.8235 -0.0257
    8MOL   C291 2545   0.212   6.496   0.305  0.1215  0.0075 -0.5278
    8MOL   C292 2546   0.284   6.631   0.289 -0.0528  0.0087 -0.0909
    8MOL   O293 2547   0.247   6.730   0.354 -0.9161  0.1249  0.5051
    8MOL   N294 2548   0.381   6.634   0.196 -0.6699 -0.0788 -0.0036
    8MOL   C295 2549   0.412   6.764   0.139  0.0434 -0.4363 -0.7078
    8MOL   C296 2550   0.473   6.527   0.171 -0.4386  0.3993  0.3648
    8MOL   H297 2551   0.244   6.486   0.521 -1.9272 -0.0517 -0.9076
    8MOL   H298 2552   0.378   6.423   0.431 -0.6913 -1.2106 -1.7135
    8MOL   H299 2553   0.207   6.423   0.224 -2.3707 -0.9759  0.4489
    8MOL   H300 2554   0.509   6.806   0.167 -1.3974  1.6877  1.2839
    8MOL   H301 2555   0.412   6.751   0.031  5.6023  1.7771 -1.1349
    8MOL   H302 2556   0.344   6.847   0.159  0.2037 -0.7262  1.0786
    8MOL   H303 2557   0.527   6.504   0.263 -2.1817 -1.0969  1.0434
    8MOL   H304 2558   0.542   6.555   0.091  3.1302 -2.5009  2.2782
    8MOL   H305 2559   0.434   6.430   0.140  0.1821  0.4951 -0.7535
    8MOL   C306 2560   0.060   6.522   0.323  0.1790  0.2264  0.0837
    8MOL   C307 2561   7.840   6.537   0.185  0.7289  0.5029 -0.2531
    8MOL   C308 2562   0.031   6.650   0.092 -0.0199  0.1025  0.0160
    8MOL   O309 2563   0.098   6.619   7.845 -0.1533  0.0677 -0.6175
    8MOL   N310 2564   7.840   6.774   0.115  0.0911  0.4070  1.1292
    8MOL   C311 2565   7.747   6.806   0.223  0.0195 -1.0234  0.0942
    8MOL   C312 2566   0.006   6.886   0.027  0.0672  0.0229  0.2656
    8MOL   H313 2567   0.029   6.434   0.378 -0.8559  0.1869 -0.5640
    8MOL   H314 2568   0.044   6.596   0.402 -0.3638  2.0563 -1.7053
    8MOL   H315 2569   7.835   6.447   0.124 -1.8663  1.5053 -1.6274
    8MOL   H316 2570   7.669   6.733   0.243 -0.9685  0.3952  1.5562
    8MOL   H317 2571   7.803   6.812   0.317  0.8211  2.8779 -0.5397
    8MOL   H318 2572   7.708   6.908   0.216  2.0292 -0.0288  2.3993
    8MOL   H319 2573   0.112   6.883   0.001  0.5179  1.1398  1.9361
    8MOL   H320 2574   7.828   6.981   0.068  3.3445  0.9936  0.6536
    8MOL   H321 2575   7.800   6.872   7.790 -2.2835  0.1971  1.7560
    8MOL   H322 2576   7.731   6.542   0.194  0.5302 -0.4658 -1.9412
    9MOL     C1 2577   7.620   4.219   5.829 -0.4716  0.5134  0.1903
    9MOL     C2 2578   7.474   4.224   5.781  0.0040 -0.3696 -0.3746
    9MOL     C3 2579   7.368   4.211   5.896  0.1048  0.0391 -0.0747
    9MOL     O4 2580   7.340   4.096   5.932  0.0641  0.3150  0.3687
    9MOL     N5 2581   7.285   4.311   5.942  0.4237 -0.0034  0.4597
    9MOL     C6 2582   7.157   4.285   6.012  0.5953  0.1759  0.2409
    9MOL     C7 2583   7.320   4.454   5.908  0.3669 -0.0935  0.6259
    9MOL     H8 2584   7.625   4.255   5.932 -1.1109  0.9630  0.0699
    9MOL     H9 2585   7.689   4.281   5.771  0.0919  0.4633  0.8035
    9MOL    H10 2586   7.473   4.329   5.755  1.2890  0.0237  1.0842
    9MOL    H11 2587   7.155   4.275   6.120 -1.7241 -2.5962 -0.0062
    9MOL    H12 2588   7.093   4.368   5.985  0.6678  0.0346 -0.3844
    9MOL    H13 2589   7.083   4.210   5.984  1.0297 -0.2280  0.1575
    9MOL    H14 2590   7.428   4.468   5.907  0.3321  0.1542  0.1636
    9MOL    H15 2591   7.288   4.525   5.984 -0.0819 -1.4179  1.7015
    9MOL    H16 2592   7.290   4.486   5.808  0.4948  0.8791  0.9006
    9MOL    H17 2593   7.661   4.118   5.834  2.6721  1.7512  0.7506
    9MOL    C18 2594   7.452   4.125   5.661 -0.0021  0.1716 -0.5669
    9MOL    C19 2595   7.348   4.180   5.547 -0.1243  0.1768 -0.0060
    9MOL    C20 2596   7.285   4.065   5.466 -0.5491 -0.1609 -0.4697
    9MOL    O21 2597   7.363   3.994   5.397 -0.0124  0.1609  0.3954
    9MOL    N22 2598   7.151   4.049   5.463 -0.3032 -0.2096 -0.5944
    9MOL    C23 2599   7.059   4.139   5.530 -0.4130  0.1895 -0.9144
    9MOL    C24 2600   7.083   3.949   5.374 -0.3990 -0.3784 -0.4130
    9MOL    H25 2601   7.550   4.100   5.620  0.4660 -1.8004  1.6530
    9MOL    H26 2602   7.426   4.029   5.706  0.3435  1.4437  2.4263
    9MOL    H27 2603   7.274   4.221   5.617  0.9612 -0.5270  1.5804
    9MOL    H28 2604   7.075   4.119   5.636  3.8858  0.8181 -1.3319
    9MOL    H29 2605   7.081   4.239   5.494  1.1550  0.3298  0.3776
    9MOL    H30 2606   6.960   4.113   5.494 -1.4492  0.0372  1.9813
    9MOL    H31 2607   7.148   3.901   5.301 -0.5506  1.5759 -1.8776
    9MOL    H32 2608   7.031   4.018   5.307  1.3705 -0.2836 -1.7287
    9MOL    H33 2609   7.021   3.872   5.420 -1.0482  0.5866  0.3458
    9MOL    C34 2610   7.397   4.303   5.454 -0.4378 -0.5378 -0.1826
    9MOL    C35 2611   7.520   4.282   5.363 -0.2650  0.4735 -0.3573
    9MOL    C36 2612   7.655   4.273   5.444 -0.8258  0.0646 -0.3562
    9MOL    O37 2613   7.672   4.353   5.536 -0.1480  0.2557 -0.1631
    9MOL    N38 2614   7.744   4.180   5.410  0.4234 -0.0179 -0.2257
    9MOL    C39 2615   0.010   4.160   5.495  0.5835 -0.4323  0.0860
    9MOL    C40 2616   7.756   4.113   5.288  0.4711 -0.1730 -0.1935
    9MOL    H41 2617   7.313   4.348   5.401 -0.6182 -1.3318 -0.5863
    9MOL    H42 2618   7.422   4.386   5.520 -0.4113  0.4859 -1.4642
    9MOL    H43 2619   7.518   4.186   5.311  1.6470  1.7164 -2.8170
    9MOL    H44 2620   0.106   4.204   5.466 -0.4566 -0.0245 -2.7994
    9MOL    H45 2621   7.849   4.184   5.601  0.3986 -1.7604  0.3708
    9MOL    H46 2622   0.032   4.053   5.501 -2.1624 -1.0382 -0.0325
    9MOL    H47 2623   7.669   4.068   5.241  0.2825  3.3855 -3.6268
    9MOL    H48 2624   7.840   4.044   5.289  0.1009 -0.6120  0.5645
    9MOL    H49 2625   7.777   4.193   5.216  0.3708 -0.2527 -0.3117
    9MOL    C50 2626   7.533   4.393   5.257 -0.0030  0.2086 -0.0262
    9MOL    C51 2627   7.443   4.396   5.130  0.1999  0.2596  0.1165
    9MOL    C52 2628   7.486   4.281   5.040  0.4753 -0.0399 -0.1516
    9MOL    O53 2629   7.601   4.279   4.999 -0.0168  0.4427 -0.4429
    9MOL    N54 2630   7.408   4.172   5.022  0.1419  0.5313 -0.5939
    9MOL    C55 2631   7.262   4.164   5.049 -0.3923  0.0755 -0.4069
    9MOL    C56 2632   7.476   4.047   4.990  0.6636 -0.0324  0.1303
    9MOL    H57 2633   7.514   4.487   5.308  0.0552 -1.0569  2.4067
    9MOL    H58 2634   7.635   4.406   5.222  0.4447  0.0288  1.1710
    9MOL    H59 2635   7.341   4.377   5.165  0.4137 -1.1400  0.0047
    9MOL    H60 2636   7.205   4.082   5.005 -2.2828  0.3904  1.3681
    9MOL    H61 2637   7.257   4.157   5.158  1.8814 -0.0677 -0.2775
    9MOL    H62 2638   7.210   4.253   5.016  1.2515  0.9555 -0.6812
    9MOL    H63 2639   7.561   4.029   5.055  0.6817 -0.8720 -0.1188
    9MOL    H64 2640   7.513   4.044   4.887  0.3699  0.0354  0.0216
    9MOL    H65 2641   7.413   3.958   4.999 -0.8328  1.2037  2.3707
    9MOL    C66 2642   7.445   4.540   5.054  0.4911  0.1739 -0.0050
    9MOL    C67 2643   7.388   4.664   5.127  0.9370  0.4265  0.3449
    9MOL    C68 2644   7.253   4.627   5.201 -0.1253 -0.6441  0.2767
    9MOL    O69 2645   7.172   4.563   5.139 -0.6793  0.2046 -0.0175
    9MOL    N70 2646   7.232   4.673   5.326  0.4415  0.6510 -0.0495
    9MOL    C71 2647   7.323   4.760   5.396  0.1319 -0.5355 -0.3037
    9MOL    C72 2648   7.132   4.613   5.412  0.1566 -0.9324  0.2999
    9MOL    H73 2649   7.545   4.559   5.013  1.4946 -2.6037  1.0811
    9MOL    H74 2650   7.392   4.535   4.958 -0.1932  0.7233  0.3388
    9MOL    H75 2651   7.467   4.691   5.197  1.1356 -2.9675  1.4889
    9MOL    H76 2652   7.420   4.713   5.414  0.4831  0.6951  0.9933
    9MOL    H77 2653   7.354   4.849   5.341 -1.6654 -0.1427 -0.7368
    9MOL    H78 2654   7.280   4.785   5.493 -1.3042 -2.9203 -0.2838
    9MOL    H79 2655   7.159   4.613   5.518 -3.4516 -2.3134  1.3194
    9MOL    H80 2656   7.114   4.509   5.384  0.2643  0.1501 -4.0480
    9MOL    H81 2657   7.033   4.651   5.387 -0.0754 -0.7814  1.4281
    9MOL    C82 2658   7.379   4.783   5.024 -0.3402 -0.5253 -0.0866
    9MOL    C83 2659   7.510   4.854   4.999 -0.1024 -0.6560 -0.1474
    9MOL    C84 2660   7.558   4.932   5.124 -0.6183  0.0805  0.1768
    9MOL    O85 2661   7.474   5.005   5.182 -0.0465 -0.1859  0.4470
    9MOL    N86 2662   7.680   4.924   5.174 -0.2376 -1.0379  0.3661
    9MOL    C87 2663   7.719   4.992   5.299  0.4452  0.3740 -0.5199
    9MOL    C88 2664   7.785   4.838   5.119  0.0055  0.0414 -0.2578
    9MOL    H89 2665   7.343   4.749   4.927  1.2226  1.7441 -1.5297
    9MOL    H90 2666   7.304   4.855   5.058 -0.5185 -0.8087  0.1128
    9MOL    H91 2667   7.581   4.772   4.987 -1.5163 -1.7101 -1.5662
    9MOL    H92 2668   7.636   5.008   5.369  0.6493  0.0889 -0.2144
    9MOL    H93 2669   7.800   4.934   5.342 -1.9755 -3.1108 -0.4284
    9MOL    H94 2670   7.751   5.095   5.283 -0.0112  0.3959 -1.3325
    9MOL    H95 2671   7.807   4.870   5.018  0.2902  1.9888  0.4091
    9MOL    H96 2672   7.766   4.730   5.115  0.2800 -0.1017  1.7073
    9MOL    H97 2673   0.020   4.848   5.182 -0.3128  0.1371  0.1745
    9MOL    C98 2674   7.505   4.943   4.871  0.2025 -0.1842  0.4214
    9MOL    C99 2675   7.475   4.875   4.737  0.9178  0.1014 -0.2658
    9MOL   C100 2676   7.570   4.759   4.711  0.2252 -0.2527 -0.4359
    9MOL   O101 2677   7.691   4.791   4.712 -0.0202 -0.0945 -0.2442
    9MOL   N102 2678   7.521   4.635   4.670 -0.5195  0.7046  0.1050
    9MOL   C103 2679   7.618   4.526   4.675 -0.5758  0.0901 -0.8149
    9MOL   C104 2680   7.388   4.595   4.643 -0.8375 -0.5035 -0.8900
    9MOL   H105 2681   7.418   5.009   4.871  0.2143 -0.1469 -1.4000
    9MOL   H106 2682   7.596   5.003   4.862  0.1104 -0.0058  0.6747
    9MOL   H107 2683   7.375   4.832   4.745  1.5929 -1.2725  0.9721
    9MOL   H108 2684   7.659   4.530   4.776  2.4355  0.7978 -2.0264
    9MOL   H109 2685   7.571   4.429   4.657  1.2242 -0.7986 -0.8591
    9MOL   H110 2686   7.688   4.545   4.594 -1.3891  2.7077 -0.9502
    9MOL   H111 2687   7.362   4.496   4.606 -2.3289 -1.2956  2.1347
    9MOL   H112 2688   7.337   4.670   4.582 -2.1965  0.7439  1.7000
    9MOL   H113 2689   7.339   4.594   4.740 -1.2792  1.3624 -1.0769
    9MOL   C114 2690   7.478   4.979   4.623  0.3027 -0.6151  0.4576
    9MOL   C115 2691   7.365   5.091   4.623 -0.1818  0.9334  0.4771
    9MOL   C116 2692   7.226   5.013   4.592 -0.6526  0.0461  0.0921
    9MOL   O117 2693   7.220   4.947   4.489 -0.0193 -0.8938 -0.8247
    9MOL   N118 2694   7.120   5.024   4.678 -0.1271  0.2747 -1.2388
    9MOL   C119 2695   7.138   5.080   4.814  0.0135  0.0955  0.8274
    9MOL   C120 2696   6.992   4.958   4.665 -0.0148 -0.2855 -0.4785
    9MOL   H121 2697   7.574   5.027   4.641  0.9152 -1.5362 -0.2856
    9MOL   H122 2698   7.470   4.938   4.522 -1.9099  0.0670  0.3425
    9MOL   H123 2699   7.375   5.138   4.721 -1.8430  0.9119  0.6742
    9MOL   H124 2700   7.194   5.010   4.876  0.6589 -1.2957 -1.2734
    9MOL   H125 2701   7.185   5.176   4.792  0.3238 -0.1598  0.3775
    9MOL   H126 2702   7.046   5.095   4.871 -0.0575 -1.0184  1.0293
    9MOL   H127 2703   6.976   4.937   4.559 -0.4885  1.4783 -0.7679
    9MOL   H128 2704   6.907   5.025   4.678 -0.3024 -1.1197  2.0553
    9MOL   H129 2705   6.968   4.867   4.721 -1.1446  0.2154 -0.1462
    9MOL   C130 2706   7.399   5.195   4.518  0.7097 -0.6497 -0.0128
    9MOL   C131 2707   7.506   5.302   4.561  0.4176 -0.1955  0.5645
    9MOL   C132 2708   7.466   5.380   4.689 -0.1387  0.7373  0.0601
    9MOL   O133 2709   7.348   5.421   4.700 -0.2234 -0.0247 -0.0350
    9MOL   N134 2710   7.561   5.400   4.784  0.3491  0.5488  0.1035
    9MOL   C135 2711   7.528   5.471   4.902 -0.8575 -0.2894 -0.4625
    9MOL   C136 2712   7.702   5.360   4.770 -0.3536 -0.1897 -0.3701
    9MOL   H137 2713   7.420   5.138   4.427  1.4486 -2.5728  1.3469
    9MOL   H138 2714   7.311   5.255   4.492  2.0003  0.8553 -1.0611
    9MOL   H139 2715   7.597   5.245   4.579  0.6603 -0.5587 -1.6782
    9MOL   H140 2716   7.459   5.555   4.890  0.3201  0.8028  0.3173
    9MOL   H141 2717   7.478   5.399   4.967  0.7727 -0.8803  0.1738
    9MOL   H142 2718   7.611   5.511   4.960 -1.9751 -1.8145  2.2695
    9MOL   H143 2719   7.757   5.407   4.851  0.4610  0.6313 -1.3775
    9MOL   H144 2720   7.749   5.399   4.679 -1.3502  0.7193 -0.5009
    9MOL   H145 2721   7.705   5.252   4.785 -2.4083 -0.3242 -0.7881
    9MOL   C146 2722   7.544   5.397   4.438  0.0013  0.4018  0.1397
    9MOL   C147 2723   7.440   5.511   4.398 -0.2970 -0.2051  0.2617
    9MOL   C148 2724   7.326   5.463   4.300  0.5612  0.6878 -0.4740
    9MOL   O149 2725   7.356   5.394   4.203 -0.0303  0.1201  0.5665
    9MOL   N150 2726   7.201   5.511   4.318  0.3828 -0.0950  0.0337
    9MOL   C151 2727   7.157   5.596   4.430 -0.0910 -0.2327  0.4519
    9MOL   C152 2728   7.087   5.474   4.229  0.3640  0.6559 -0.0340
    9MOL   H153 2729   7.630   5.450   4.478 -1.8136  2.3605  1.6046
    9MOL   H154 2730   7.597   5.339   4.363  1.3391 -0.7527  1.9150
    9MOL   H155 2731   7.389   5.543   4.489 -0.2838  2.0388 -0.4698
    9MOL   H156 2732   7.172   5.552   4.528 -0.0787 -2.6128 -0.5855
    9MOL   H157 2733   7.216   5.688   4.428  0.6661 -0.7312 -1.9657
    9MOL   H158 2734   7.051   5.621   4.431 -0.3706 -1.3127 -1.0619
    9MOL   H159 2735   7.027   5.561   4.201 -0.8996 -0.2506 -0.1893
    9MOL   H160 2736   7.026   5.402   4.283  2.1560 -0.9199 -0.0744
    9MOL   H161 2737   7.120   5.421   4.140  0.5907 -2.0140  1.5754
    9MOL   C162 2738   7.517   5.636   4.337  0.7210 -0.1727 -0.5651
    9MOL   C163 2739   7.535   5.753   4.443 -0.5793  0.0367  0.0990
    9MOL   C164 2740   7.568   5.881   4.371 -0.3303 -0.7461 -0.5956
    9MOL   O165 2741   7.688   5.915   4.363  0.0551  0.7631  0.0349
    9MOL   N166 2742   7.475   5.967   4.324  0.1648 -0.5297  0.5271
    9MOL   C167 2743   7.510   6.103   4.286 -0.1869 -0.4775  0.3869
    9MOL   C168 2744   7.335   5.930   4.300 -0.1955 -0.1440  0.0592
    9MOL   H169 2745   7.603   5.610   4.275 -0.6488 -1.3752 -1.9878
    9MOL   H170 2746   7.448   5.668   4.260 -0.5403 -0.1844  0.5568
    9MOL   H171 2747   7.433   5.764   4.480 -0.2660  0.2958  0.8927
    9MOL   H172 2748   7.605   6.115   4.235 -1.4419 -2.3277 -2.4759
    9MOL   H173 2749   7.427   6.145   4.229 -2.9463 -0.8551  3.9119
    9MOL   H174 2750   7.527   6.161   4.377  0.3406  2.5362 -1.5863
    9MOL   H175 2751   7.282   6.004   4.240  1.3809  0.4194 -0.6661
    9MOL   H176 2752   7.282   5.917   4.394  0.2882 -0.1156  0.3416
    9MOL   H177 2753   7.317   5.845   4.235  2.1348 -0.1992 -0.5827
    9MOL   C178 2754   7.640   5.718   4.552 -0.1778  0.2364  0.0119
    9MOL   C179 2755   7.673   5.823   4.661  0.7809 -0.0535  0.3749
    9MOL   C180 2756   7.790   5.774   4.745 -0.6038  0.2305  0.4617
    9MOL   O181 2757   7.772   5.680   4.826  0.5065 -0.0390 -0.4584
    9MOL   N182 2758   0.065   5.833   4.741  0.2084  1.2175 -0.5625
    9MOL   C183 2759   0.164   5.802   4.844  0.3352  0.2594 -0.5456
    9MOL   C184 2760   0.093   5.935   4.646 -0.5865 -0.6052 -0.0395
    9MOL   H185 2761   7.604   5.624   4.594 -2.0339  0.2444 -1.5017
    9MOL   H186 2762   7.725   5.682   4.495  0.7154  1.3693  0.6207
    9MOL   H187 2763   7.692   5.918   4.611 -0.7661  1.0205  1.7759
    9MOL   H188 2764   0.169   5.885   4.915  1.3905  0.6025 -1.0083
    9MOL   H189 2765   0.137   5.712   4.899  1.0882  1.0002  1.0335
    9MOL   H190 2766   0.264   5.788   4.803  0.9467  1.9764  0.2905
    9MOL   H191 2767   0.045   6.030   4.669  0.4120  0.2308 -1.3787
    9MOL   H192 2768   0.063   5.899   4.548 -0.7481 -0.4902 -0.0335
    9MOL   H193 2769   0.200   5.954   4.638 -0.9143  0.8411 -1.2356
    9MOL   C194 2770   7.551   5.850   4.756 -0.5172  0.3742 -0.5572
    9MOL   C195 2771   7.563   5.948   4.878 -0.0636  0.3956 -0.4444
    9MOL   C196 2772   7.465   5.895   4.980  0.5070  0.1481  0.3080
    9MOL   O197 2773   7.348   5.911   4.959  0.5806  0.2586  0.4463
    9MOL   N198 2774   7.500   5.831   5.095 -0.4257  0.1959 -0.1225
    9MOL   C199 2775   7.405   5.775   5.191 -0.3904 -0.3938  0.0524
    9MOL   C200 2776   7.638   5.844   5.150 -0.0773  0.5918 -0.1170
    9MOL   H201 2777   7.456   5.858   4.704  0.3401 -0.2268 -2.2690
    9MOL   H202 2778   7.532   5.753   4.801  1.4671  1.1806  2.1333
    9MOL   H203 2779   7.661   5.936   4.924  0.2307 -0.0853 -1.1842
    9MOL   H204 2780   7.456   5.710   5.263  1.7950  1.3815  0.1793
    9MOL   H205 2781   7.355   5.856   5.243 -0.3333 -0.3199 -0.0074
    9MOL   H206 2782   7.329   5.719   5.137  1.5190 -1.8633 -1.1831
    9MOL   H207 2783   7.669   5.948   5.147 -3.0759  1.5174 -0.3864
    9MOL   H208 2784   7.721   5.792   5.102 -1.8852 -1.4419 -1.1082
    9MOL   H209 2785   7.652   5.811   5.253  0.8842 -0.7011 -0.6513
    9MOL   C210 2786   7.528   6.092   4.833 -0.0925  0.6130 -0.1971
    9MOL   C211 2787   7.644   6.187   4.794 -0.5078  0.1556 -0.1364
    9MOL   C212 2788   7.693   6.272   4.915 -0.2855  0.0003 -0.5086
    9MOL   O213 2789   7.622   6.359   4.959  0.5672 -0.5393  0.2725
    9MOL   N214 2790   7.817   6.248   4.972 -0.9008  0.7570 -0.4619
    9MOL   C215 2791   0.047   6.127   4.946  0.2128  0.3435 -0.4168
    9MOL   C216 2792   0.031   6.349   5.054 -0.4572 -0.2483 -0.0039
    9MOL   H217 2793   7.459   6.082   4.749  2.5901  2.4649 -2.7041
    9MOL   H218 2794   7.464   6.151   4.899 -2.7561 -3.5120  1.1123
    9MOL   H219 2795   7.715   6.111   4.760  0.2490  0.9072 -0.2386
    9MOL   H220 2796   0.116   6.159   4.868  2.2460  3.3579  2.4662
    9MOL   H221 2797   0.111   6.095   5.029 -0.9355 -2.2124 -0.4741
    9MOL   H222 2798   7.830   6.048   4.920  0.1833 -0.0120  0.7283
    9MOL   H223 2799   0.135   6.373   5.029 -1.5395  1.0627 -3.5353
    9MOL   H224 2800   0.029   6.309   5.155 -0.4663  0.5596  0.3114
    9MOL   H225 2801   7.836   6.446   5.057 -0.4346 -0.2508  0.4805
    9MOL   C226 2802   7.610   6.274   4.670  0.9309  0.2964  0.1528
    9MOL   C227 2803   7.722   6.370   4.610  0.1005  0.4256  0.0003
    9MOL   C228 2804   0.021   6.318   4.621  0.3920 -0.2038 -0.2384
    9MOL   O229 2805   0.083   6.351   4.722 -0.2096  0.4569 -0.5300
    9MOL   N230 2806   0.087   6.258   4.525 -0.0265  0.3623  0.6577
    9MOL   C231 2807   0.234   6.241   4.537  0.0887 -0.2399 -0.8158
    9MOL   C232 2808   0.033   6.203   4.401 -0.0911  0.2907 -0.3569
    9MOL   H233 2809   7.604   6.195   4.596 -0.7314 -0.6205  1.2232
    9MOL   H234 2810   7.511   6.319   4.681  0.9711  0.0118  1.9039
    9MOL   H235 2811   7.698   6.374   4.504 -0.1103  0.1502  0.0370
    9MOL   H236 2812   0.286   6.336   4.554  0.6290 -0.9309  1.5791
    9MOL   H237 2813   0.267   6.172   4.615  0.5708 -0.3152 -1.0876
    9MOL   H238 2814   0.282   6.200   4.449  2.8697 -2.0047  1.4369
    9MOL   H239 2815   0.082   6.112   4.367 -2.0997 -0.7865 -0.4291
    9MOL   H240 2816   0.050   6.288   4.335  2.3368 -1.3127 -1.9006
    9MOL   H241 2817   7.781   6.176   4.408 -0.1726  1.1076  1.7470
    9MOL   C242 2818   7.692   6.513   4.654  0.6970  0.1717 -0.9717
    9MOL   C243 2819   7.796   6.612   4.598 -0.0094  0.0766 -0.5189
    9MOL   C244 2820   7.789   6.740   4.688  0.0652  0.5730  0.3567
    9MOL   O245 2821   7.708   6.821   4.649  0.4123 -0.3462 -0.0529
    9MOL   N246 2822   0.005   6.751   4.801 -0.1013 -0.5097 -0.0977
    9MOL   C247 2823   7.831   6.862   4.903  0.1481  0.1103  0.4098
    9MOL   C248 2824   0.104   6.650   4.836 -0.5206  0.2913  0.2121
    9MOL   H249 2825   7.599   6.555   4.617 -0.4924  0.0949  1.8011
    9MOL   H250 2826   7.658   6.507   4.758 -0.1914 -2.9574 -1.4091
    9MOL   H251 2827   0.039   6.570   4.627 -0.8593  0.5111  3.0799
    9MOL   H252 2828   7.827   6.820   5.004  0.9013  0.2571  0.5091
    9MOL   H253 2829   0.065   6.927   4.909  1.2743 -1.4733  1.8208
    9MOL   H254 2830   7.741   6.914   4.874  1.1016  0.8256 -1.3538
    9MOL   H255 2831   0.192   6.644   4.772  0.8886  2.0225  1.9234
    9MOL   H256 2832   0.056   6.552   4.831 -1.5481  0.8173 -0.4027
    9MOL   H257 2833   0.138   6.665   4.938 -1.3047 -1.4383  0.7427
    9MOL   C258 2834   7.788   6.634   4.444 -0.0818  0.0225  0.1740
    9MOL   C259 2835   0.047   6.720   4.370 -0.1855  0.2321 -0.3685
    9MOL   C260 2836   0.184   6.652   4.380 -0.1599 -0.3077  0.1921
    9MOL   O261 2837   0.243   6.673   4.487  0.4122  0.5392 -0.4098
    9MOL   N262 2838   0.224   6.564   4.286 -0.3577  0.0241 -0.2317
    9MOL   C263 2839   0.356   6.497   4.302  0.7139 -0.1094 -0.1575
    9MOL   C264 2840   0.148   6.519   4.175 -0.3727  0.3392  0.1896
    9MOL   H265 2841   7.778   6.542   4.386  0.7707  1.3239 -2.1068
    9MOL   H266 2842   7.689   6.681   4.443  0.7839  1.9057 -1.5528
    9MOL   H267 2843   0.015   6.710   4.266 -2.7474  1.9439  0.2106
    9MOL   H268 2844   0.367   6.471   4.407 -3.8465  1.4838  0.8275
    9MOL   H269 2845   0.362   6.409   4.237  1.0787 -0.5760  0.5051
    9MOL   H270 2846   0.434   6.564   4.265  0.1597  0.1324 -0.9209
    9MOL   H271 2847   0.107   6.596   4.110  0.7031 -0.0165 -0.9322
    9MOL   H272 2848   0.072   6.449   4.210 -0.1342 -0.7139 -1.3584
    9MOL   H273 2849   0.202   6.457   4.104 -0.5281 -0.1739  0.5123
    9MOL   C274 2850   0.045   6.873   4.402 -0.3550  0.3927  0.0049
    9MOL   C275 2851   0.098   6.968   4.285 -0.2775 -0.6105  0.3538
    9MOL   C276 2852   0.009   6.956   4.163  0.1040  0.7797  0.1326
    9MOL   O277 2853   0.051   6.883   4.075  0.0654  0.0677  0.0303
    9MOL   N278 2854   7.758   7.040   4.139  0.0378 -0.4212 -0.0472
    9MOL   C279 2855   7.690   7.118   4.242  0.0011  0.5840  0.1511
    9MOL   C280 2856   7.694   7.041   4.007 -0.5230  0.1257  0.0531
    9MOL   H281 2857   7.794   6.904   4.413  0.3057  2.3551  0.9864
    9MOL   H282 2858   0.095   6.893   4.497 -0.1175  0.0336 -0.0478
    9MOL   H283 2859   0.094   7.065   4.335  3.2693 -0.6579  0.8393
    9MOL   H284 2860   7.756   7.164   4.315  1.2083  0.5078 -0.8690
    9MOL   H285 2861   7.629   7.200   4.204  0.8345  0.3249 -1.8251
    9MOL   H286 2862   7.637   7.042   4.299  2.5559 -1.5486 -0.1783
    9MOL   H287 2863   7.771   7.065   3.934 -2.9908  1.6395 -2.1308
    9MOL   H288 2864   7.613   7.112   3.990  0.3150  1.1462  0.2959
    9MOL   H289 2865   7.670   6.937   3.982  1.5642  0.0609 -1.7785
    9MOL   C290 2866   0.254   6.965   4.261  0.3288 -0.5571 -0.2867
    9MOL   C291 2867   0.309   7.081   4.177 -0.0616  0.8225 -0.2964
    9MOL   C292 2868   0.437   7.036   4.111 -0.0492  0.0520 -0.4335
    9MOL   O293 2869   0.528   6.981   4.175  0.4713 -0.0538  0.4825
    9MOL   N294 2870   0.445   7.050   3.972 -0.3692  0.0560  0.6417
    9MOL   C295 2871   0.575   7.061   3.905  0.5918 -0.4997  0.2472
    9MOL   C296 2872   0.326   7.087   3.897 -0.5832  0.2928 -0.0115
    9MOL   H297 2873   0.306   6.954   4.356 -1.1348 -0.0487  0.5980
    9MOL   H298 2874   0.278   6.868   4.216 -0.4158 -0.4371 -0.9474
    9MOL   H299 2875   0.238   7.136   4.115 -1.7523 -1.5301 -0.5054
    9MOL   H300 2876   0.616   6.971   3.860  1.8948 -0.5383  1.4787
    9MOL   H301 2877   0.565   7.135   3.827 -0.9220 -0.8949  0.0527
    9MOL   H302 2878   0.649   7.112   3.967  0.9285 -1.8568  0.9909
    9MOL   H303 2879   0.351   7.101   3.792  0.0625  0.9985  0.2308
    9MOL   H304 2880   0.313   7.193   3.918 -1.1039  0.3379 -0.5475
    9MOL   H305 2881   0.241   7.020   3.914  0.2020 -0.9469 -0.9423
    9MOL   C306 2882   0.346   7.189   4.279  0.2957 -0.6346 -0.0303
    9MOL   C307 2883   0.393   7.333   4.212 -0.6406  0.2518 -0.7095
    9MOL   C308 2884   0.372   7.464   4.292  0.0536 -0.5299  0.0082
    9MOL   O309 2885   0.252   7.505   4.302  0.0270 -0.3707  0.3097
    9MOL   N310 2886   0.474   7.517   4.355  0.0814 -0.3370  0.2946
    9MOL   C311 2887   0.598   7.441   4.380  0.1620  0.3262 -0.6941
    9MOL   C312 2888   0.458   7.636   4.432  0.2335 -0.6240  0.1517
    9MOL   H313 2889   0.262   7.208   4.347 -1.1212 -4.9905 -0.4370
    9MOL   H314 2890   0.424   7.157   4.348  1.7938 -1.2656 -1.9721
    9MOL   H315 2891   0.495   7.333   4.173 -0.2099 -1.6482  0.3574
    9MOL   H316 2892   0.658   7.500   4.449 -0.6432 -0.7640  0.9951
    9MOL   H317 2893   0.572   7.346   4.428 -2.4964  0.3360 -1.9871
    9MOL   H318 2894   0.650   7.418   4.287 -1.0188 -0.1395 -1.2578
    9MOL   H319 2895   0.395   7.698   4.368 -1.0140  0.8299  2.6807
    9MOL   H320 2896   0.547   7.696   4.452 -1.7681  2.7055 -0.4653
    9MOL   H321 2897   0.418   7.617   4.532  3.0910  0.7170  1.6170
    9MOL   H322 2898   0.330   7.353   4.125  0.3067 -2.3864 -2.0404
   10MOL     C1 2899   7.616   7.632   3.847  0.0200  1.0206 -0.1007
   10MOL     C2 2900   7.582   7.493   3.915  0.8288 -0.3340 -0.1739
   10MOL     C3 2901   7.695   7.397   3.884 -1.1617 -0.1853  0.2201
   10MOL     O4 2902   7.683   7.339   3.777 -0.5539 -0.3550  0.1326
   10MOL     N5 2903   7.804   7.394   3.966  0.0388  0.0310 -0.3348
   10MOL     C6 2904   0.070   7.327   3.910 -0.5258 -0.7126  0.0385
   10MOL     C7 2905   7.818   7.446   4.099  0.1569  0.0925  0.2937
   10MOL     H8 2906   7.620   7.624   3.739 -2.8455 -0.8628 -0.1170
   10MOL     H9 2907   7.716   7.667   3.872 -0.3497  1.8588  0.2372
   10MOL    H10 2908   7.571   7.504   4.023 -0.4248  0.9851 -0.4261
   10MOL    H11 2909   0.076   7.314   3.802 -2.3275  1.7921 -0.4136
   10MOL    H12 2910   0.164   7.369   3.946  0.4095 -4.0639  1.7674
   10MOL    H13 2911   0.067   7.229   3.958 -0.7307 -0.0938  1.3076
   10MOL    H14 2912   7.732   7.500   4.140  0.5310 -0.1560  1.4052
   10MOL    H15 2913   0.046   7.519   4.102 -0.4466  0.8834 -1.8167
   10MOL    H16 2914   7.840   7.357   4.157 -2.8439 -0.7973  0.1527
   10MOL    H17 2915   7.545   7.713   3.864  0.1646  1.1680 -0.1993
   10MOL    C18 2916   7.445   7.430   3.874  0.1028  0.9093 -0.1821
   10MOL    C19 2917   7.322   7.497   3.941  0.8163 -0.1255  0.2256
   10MOL    C20 2918   7.314   7.448   4.090 -0.3012  0.3098  0.0179
   10MOL    O21 2919   7.331   7.326   4.107 -0.0217 -0.1893 -0.6723
   10MOL    N22 2920   7.263   7.532   4.184  0.0545  0.3924  0.5319
   10MOL    C23 2921   7.249   7.676   4.177 -0.0552 -0.4524  0.6591
   10MOL    C24 2922   7.241   7.473   4.318 -0.8978  0.8194 -0.1742
   10MOL    H25 2923   7.437   7.448   3.766 -1.9738  0.3327 -0.1500
   10MOL    H26 2924   7.442   7.322   3.891 -0.1849  0.6136 -1.9245
   10MOL    H27 2925   7.352   7.602   3.935  0.5881 -0.1240 -1.2465
   10MOL    H28 2926   7.344   7.728   4.193 -1.1619  1.6156  0.7277
   10MOL    H29 2927   7.218   7.720   4.082 -1.6757  0.1849  1.4517
   10MOL    H30 2928   7.186   7.721   4.254 -0.0514 -0.2213  0.5293
   10MOL    H31 2929   7.159   7.401   4.319 -0.4771  0.3267 -0.8383
   10MOL    H32 2930   7.230   7.541   4.403  0.5683  0.0567  0.6425
   10MOL    H33 2931   7.330   7.417   4.345 -1.1460  0.1078 -0.8155
   10MOL    C34 2932   7.185   7.458   3.873 -0.2106 -0.2231  0.1127
   10MOL    C35 2933   7.061   7.553   3.882  0.3704 -0.2040  0.0130
   10MOL    C36 2934   6.940   7.467   3.832  0.2085 -0.3243  0.6147
   10MOL    O37 2935   6.916   7.470   3.712  0.3347  0.0613  0.4212
   10MOL    N38 2936   6.860   7.403   3.923  0.1895 -0.4482  1.0770
   10MOL    C39 2937   6.735   7.340   3.885  0.3629 -1.1179 -0.1507
   10MOL    C40 2938   6.902   7.381   4.061 -0.6148  0.6019 -0.1174
   10MOL    H41 2939   7.212   7.442   3.769 -0.4862  1.7531 -0.2755
   10MOL    H42 2940   7.162   7.356   3.905  1.7148  0.2605  3.3478
   10MOL    H43 2941   7.054   7.568   3.990 -1.5649  0.6805 -0.2171
   10MOL    H44 2942   6.744   7.231   3.892 -0.6725 -1.3095 -1.5906
   10MOL    H45 2943   6.653   7.377   3.946  1.2504  1.4564 -0.4615
   10MOL    H46 2944   6.705   7.380   3.788  2.4441 -0.8913 -0.7259
   10MOL    H47 2945   6.904   7.478   4.111 -1.2845  1.0341 -0.9234
   10MOL    H48 2946   7.011   7.367   4.062 -0.6235  0.4891 -1.0686
   10MOL    H49 2947   6.837   7.305   4.104  0.1738 -0.1948 -0.3139
   10MOL    C50 2948   7.079   7.690   3.808 -0.2783  0.7836  0.3832
   10MOL    C51 2949   6.973   7.798   3.843 -0.1462  0.3808 -0.5459
   10MOL    C52 2950   6.982   0.053   3.746  0.0018 -0.0656  0.6050
   10MOL    O53 2951   7.090   0.113   3.735  0.2908 -0.3969  0.3385
   10MOL    N54 2952   6.869   0.090   3.680 -0.1940  0.2314  0.2704
   10MOL    C55 2953   6.737   0.031   3.696 -0.3196 -0.4203  0.1183
   10MOL    C56 2954   6.868   0.199   3.586  0.5397 -0.3085  0.1244
   10MOL    H57 2955   7.180   7.720   3.836 -1.0902  0.3504  4.0854
   10MOL    H58 2956   7.083   7.671   3.701 -1.3665 -1.3408  0.6812
   10MOL    H59 2957   6.875   7.751   3.838  0.0504 -0.3590  1.9162
   10MOL    H60 2958   6.695   0.065   3.791  3.7691 -0.2275  1.9671
   10MOL    H61 2959   6.668   0.067   3.621  0.3486  0.2826 -0.1636
   10MOL    H62 2960   6.739   7.776   3.689  0.2632 -0.4623  0.9113
   10MOL    H63 2961   6.774   0.253   3.588  1.6662  1.8039 -2.2078
   10MOL    H64 2962   6.881   0.167   3.483 -0.2857 -2.1902  0.5891
   10MOL    H65 2963   6.945   0.266   3.624  2.6972 -0.6337 -3.4627
   10MOL    C66 2964   7.001   7.848   3.990 -0.0648  0.0791 -0.3174
   10MOL    C67 2965   6.885   0.081   4.058  0.4131  0.6955  0.0991
   10MOL    C68 2966   6.919   0.226   4.054  0.5472 -0.3766 -0.7449
   10MOL    O69 2967   7.037   0.251   4.076 -0.3885 -0.3998 -0.0166
   10MOL    N70 2968   6.829   0.323   4.020 -0.1038  0.1661 -0.2097
   10MOL    C71 2969   6.874   0.456   3.997  0.4877  0.0298 -0.2125
   10MOL    C72 2970   6.683   0.320   4.027 -0.1831  0.5523  0.2097
   10MOL    H73 2971   7.013   7.754   4.044  2.4203 -0.1193 -1.1697
   10MOL    H74 2972   7.095   0.047   4.009 -0.2516  0.5937 -0.7924
   10MOL    H75 2973   6.793   0.066   4.000  1.9289 -1.5223 -1.8444
   10MOL    H76 2974   6.804   0.508   3.932  0.1980  0.5771  0.5347
   10MOL    H77 2975   6.888   0.507   4.092  0.6791  1.4612 -0.9888
   10MOL    H78 2976   6.974   0.460   3.953  0.7420 -1.6549  0.1610
   10MOL    H79 2977   6.636   0.283   3.936 -2.7033  0.9155  1.3324
   10MOL    H80 2978   6.637   0.414   4.059 -2.3125 -1.3172  2.9266
   10MOL    H81 2979   6.658   0.254   4.109 -2.2302  1.5956  0.4724
   10MOL    C82 2980   6.851   0.028   4.202 -0.3646  0.2318  0.5310
   10MOL    C83 2981   6.745   7.764   4.209  0.3031 -0.1346 -0.7531
   10MOL    C84 2982   6.596   7.815   4.188 -0.7438  0.3026  0.0302
   10MOL    O85 2983   6.563   0.069   4.240  0.2213 -0.2435  0.2114
   10MOL    N86 2984   6.513   7.749   4.102  0.3723 -0.0912  0.2440
   10MOL    C87 2985   6.392   7.813   4.052 -0.2579  0.7921 -0.7755
   10MOL    C88 2986   6.548   7.616   4.040 -0.2494 -0.2461  0.1528
   10MOL    H89 2987   6.947   7.841   4.235  0.0860 -2.9879 -4.2966
   10MOL    H90 2988   6.821   0.114   4.262  0.3330 -0.8860  2.5285
   10MOL    H91 2989   6.761   7.703   4.120  0.0430 -0.3613 -0.6407
   10MOL    H92 2990   6.408   7.824   3.944 -0.9072  0.5985 -0.8974
   10MOL    H93 2991   6.309   7.751   4.086  1.0587 -0.9600 -0.6941
   10MOL    H94 2992   6.382   0.059   4.095 -2.0200  1.1405 -1.9477
   10MOL    H95 2993   6.595   7.632   3.943  0.2486 -0.1693  0.4053
   10MOL    H96 2994   6.451   7.573   4.019 -0.6668  0.5426  0.4608
   10MOL    H97 2995   6.596   7.557   4.119  0.1891 -1.0170 -0.6835
   10MOL    C98 2996   6.761   7.677   4.334  0.1955 -0.1379  0.4280
   10MOL    C99 2997   6.758   7.764   4.468  0.1090 -0.8629 -0.1160
   10MOL   C100 2998   6.898   7.813   4.520  0.4133  0.6773  0.8285
   10MOL   O101 2999   7.002   7.754   4.485  0.4688  0.2766 -0.5160
   10MOL   N102 3000   6.907   0.062   4.608 -0.1221 -0.9553 -0.1083
   10MOL   C103 3001   7.034   0.083   4.671 -0.0916 -0.3104  0.3397
   10MOL   C104 3002   6.797   0.156   4.643  0.2097  0.0134  0.2809
   10MOL   H105 3003   6.687   7.596   4.331  1.0318 -0.8721 -0.9830
   10MOL   H106 3004   6.850   7.619   4.311  1.0700  0.8394  1.3443
   10MOL   H107 3005   6.692   7.850   4.459 -2.8537 -2.6806  2.8947
   10MOL   H108 3006   7.039   0.176   4.726  2.7036 -1.3507  1.9533
   10MOL   H109 3007   7.045   0.002   4.743  1.2245  0.2706  0.8152
   10MOL   H110 3008   7.119   0.080   4.602  0.1840  1.0516  0.6055
   10MOL   H111 3009   6.740   0.193   4.557 -1.5054 -1.5737  0.7167
   10MOL   H112 3010   6.816   0.233   4.718  1.2088 -0.4753  0.5444
   10MOL   H113 3011   6.726   0.097   4.700  0.9446 -0.3211  0.8590
   10MOL   C114 3012   6.672   7.690   4.583 -0.4343  0.8508 -0.0491
   10MOL   C115 3013   6.731   7.563   4.659 -0.2051  0.1145  0.3462
   10MOL   C116 3014   6.751   7.445   4.558 -0.1121 -0.5050  0.0448
   10MOL   O117 3015   6.651   7.415   4.491 -0.0801  0.8323 -0.1158
   10MOL   N118 3016   6.868   7.374   4.549 -0.6452 -0.9681 -0.2037
   10MOL   C119 3017   6.996   7.411   4.617  0.0456 -0.0556 -0.2873
   10MOL   C120 3018   6.877   7.278   4.435  0.1357 -0.5162 -0.8333
   10MOL   H121 3019   6.637   7.752   4.665 -0.4544  1.3903 -0.4595
   10MOL   H122 3020   6.577   7.654   4.543 -1.0302  1.5974  0.6814
   10MOL   H123 3021   6.831   7.584   4.695 -0.2792  0.4097  0.3770
   10MOL   H124 3022   7.053   7.489   4.568  0.5067 -0.0479  0.2587
   10MOL   H125 3023   6.981   7.433   4.723  0.0530  1.0165 -0.4960
   10MOL   H126 3024   7.058   7.323   4.611 -2.0311 -1.5326 -0.7072
   10MOL   H127 3025   6.958   7.208   4.455  1.9498  1.7610  0.0624
   10MOL   H128 3026   6.906   7.343   4.352  1.4690  0.7515  0.6055
   10MOL   H129 3027   6.783   7.225   4.420 -0.4927 -0.1919  1.7436
   10MOL   C130 3028   6.635   7.507   4.765 -1.0914  0.4954  0.0394
   10MOL   C131 3029   6.691   7.397   4.857  0.5968 -0.0357 -0.4907
   10MOL   C132 3030   6.575   7.310   4.920  0.0174  0.0950  0.8562
   10MOL   O133 3031   6.548   7.329   5.040  0.0692  0.3877  0.1768
   10MOL   N134 3032   6.494   7.232   4.842  0.0253 -0.4410  0.3743
   10MOL   C135 3033   6.518   7.201   4.704  0.0019 -0.1009 -0.1931
   10MOL   C136 3034   6.365   7.186   4.894 -0.2765  0.7240 -0.4399
   10MOL   H137 3035   6.601   7.584   4.833  0.1370  0.0919  1.1273
   10MOL   H138 3036   6.543   7.477   4.713 -0.1280 -1.2332 -0.7212
   10MOL   H139 3037   6.757   7.332   4.799  2.4736  1.4116 -0.0536
   10MOL   H140 3038   6.448   7.251   4.638 -0.2791 -0.9951 -0.5686
   10MOL   H141 3039   6.619   7.223   4.669 -0.0016 -1.0726 -0.8186
   10MOL   H142 3040   6.493   7.098   4.677 -3.0106  0.5513 -0.0583
   10MOL   H143 3041   6.309   7.263   4.949  0.4280  1.6694 -1.0297
   10MOL   H144 3042   6.375   7.093   4.950 -0.5370  0.2489 -1.1852
   10MOL   H145 3043   6.293   7.169   4.814 -1.5641  1.1944  0.5981
   10MOL   C146 3044   6.776   7.473   4.964 -0.0091 -0.1174  0.1173
   10MOL   C147 3045   6.865   7.394   5.063  0.0526 -0.0237 -0.0229
   10MOL   C148 3046   6.899   7.496   5.175  0.2165 -0.5271 -0.2465
   10MOL   O149 3047   6.977   7.592   5.149  0.4001 -0.1706  0.6304
   10MOL   N150 3048   6.841   7.484   5.299 -0.4822  0.7780 -0.3457
   10MOL   C151 3049   6.782   7.356   5.354 -0.3802 -0.7262  0.1796
   10MOL   C152 3050   6.858   7.586   5.394 -1.1316 -0.0604 -0.4577
   10MOL   H153 3051   6.833   7.552   4.914  2.2426  0.3912  3.3216
   10MOL   H154 3052   6.708   7.539   5.017 -0.7327  0.3205 -1.3224
   10MOL   H155 3053   6.821   7.308   5.114 -1.9780  0.5605 -0.7462
   10MOL   H156 3054   6.675   7.361   5.333 -0.1439 -1.2474 -1.1716
   10MOL   H157 3055   6.822   7.261   5.320  0.4236 -0.4888  0.4504
   10MOL   H158 3056   6.798   7.355   5.462  0.9402  1.7210  0.0498
   10MOL   H159 3057   6.779   7.577   5.469 -1.6300  0.7864 -0.8731
   10MOL   H160 3058   6.832   7.679   5.344 -0.8591 -0.2611 -0.9677
   10MOL   H161 3059   6.956   7.592   5.442 -1.7105 -0.4521  0.8021
   10MOL   C162 3060   6.992   7.350   4.984  0.0635  0.5680 -0.1519
   10MOL   C163 3061   7.110   7.289   5.059  0.4006 -0.4093 -0.1768
   10MOL   C164 3062   7.223   7.245   4.972  0.5273 -0.8809  0.2861
   10MOL   O165 3063   7.194   7.163   4.880 -0.5080 -0.0796 -0.0086
   10MOL   N166 3064   7.343   7.300   4.999 -0.1892 -0.4246  0.2203
   10MOL   C167 3065   7.458   7.267   4.912  0.1284  0.0253 -0.6865
   10MOL   C168 3066   7.372   7.399   5.114 -0.1112 -0.6183  0.8404
   10MOL   H169 3067   6.971   7.280   4.904  1.0672  1.1056 -0.8839
   10MOL   H170 3068   7.015   7.445   4.937 -1.0402  0.7617 -0.3245
   10MOL   H171 3069   7.139   7.355   5.141 -1.0079 -2.1210  1.7678
   10MOL   H172 3070   7.428   7.296   4.811 -0.0100  1.1497 -0.3355
   10MOL   H173 3071   7.545   7.326   4.942  0.7400  0.4391 -3.1290
   10MOL   H174 3072   7.493   7.164   4.908  0.9080  0.2982 -1.0913
   10MOL   H175 3073   7.356   7.354   5.211  0.0748  0.4362  1.3661
   10MOL   H176 3074   7.313   7.490   5.101 -0.7066 -1.3570 -2.0396
   10MOL   H177 3075   7.473   7.440   5.124 -0.3190  0.2441 -0.4100
   10MOL   C178 3076   7.065   7.165   5.147 -0.5441 -0.0403  0.6866
   10MOL   C179 3077   7.015   7.023   5.091  0.4715  0.4209 -0.0372
   10MOL   C180 3078   6.861   7.040   5.065  0.1715 -0.5791  0.3259
   10MOL   O181 3079   6.784   7.067   5.157  0.1800  0.2214 -0.0179
   10MOL   N182 3080   6.816   7.000   4.940  0.1497 -0.6033 -0.3380
   10MOL   C183 3081   6.900   6.974   4.825  0.0531  0.3204  0.7038
   10MOL   C184 3082   6.678   6.969   4.920 -0.0473 -0.3356 -0.3527
   10MOL   H185 3083   7.158   7.147   5.201  1.3336 -0.0714 -2.4073
   10MOL   H186 3084   6.996   7.200   5.224  0.0323  0.9872  0.7516
   10MOL   H187 3085   7.069   6.992   5.002  0.5066  1.6441 -0.4514
   10MOL   H188 3086   6.830   6.961   4.743  0.3510  2.7483  0.0265
   10MOL   H189 3087   6.970   7.051   4.795  0.0229 -0.6468 -1.9331
   10MOL   H190 3088   6.967   6.888   4.831 -1.1212 -0.6534  0.0698
   10MOL   H191 3089   6.688   6.865   4.951  1.2762 -1.0818 -3.1190
   10MOL   H192 3090   6.636   6.962   4.819  1.0969 -0.0172 -0.8499
   10MOL   H193 3091   6.614   7.028   4.986  2.1533  0.2347  1.3331
   10MOL   C194 3092   7.036   6.898   5.188  0.2829  0.0774  1.0566
   10MOL   C195 3093   7.182   6.859   5.204 -0.2988  0.5708  0.5905
   10MOL   C196 3094   7.248   6.786   5.080 -0.2545 -0.1645 -0.3235
   10MOL   O197 3095   7.176   6.712   5.018 -0.0573 -0.4650 -0.1373
   10MOL   N198 3096   7.371   6.822   5.038  0.0796  0.2733  1.1214
   10MOL   C199 3097   7.466   6.914   5.115  0.0374 -0.0582  0.5102
   10MOL   C200 3098   7.422   6.775   4.908  0.3848  0.3511 -0.2522
   10MOL   H201 3099   6.990   6.922   5.284  1.2541  1.7973  1.1040
   10MOL   H202 3100   6.989   6.807   5.152 -0.6618  0.7970  0.4300
   10MOL   H203 3101   7.227   6.957   5.219  1.3024 -0.2184  1.0350
   10MOL   H204 3102   7.447   7.010   5.067  0.2946 -1.2204 -2.0148
   10MOL   H205 3103   7.457   6.919   5.224 -0.2907  0.9193  0.4395
   10MOL   H206 3104   7.570   6.890   5.092 -0.3375  0.3344 -1.7425
   10MOL   H207 3105   7.360   6.779   4.818 -0.9931 -2.2560  0.5345
   10MOL   H208 3106   7.432   6.668   4.919 -1.1161  0.3151  0.9387
   10MOL   H209 3107   7.516   6.823   4.880 -0.1171 -0.4024 -3.4510
   10MOL   C210 3108   7.207   6.773   5.327  0.6782 -0.3153  0.7485
   10MOL   C211 3109   7.198   6.840   5.460  0.2789 -0.6054 -0.0509
   10MOL   C212 3110   7.307   6.945   5.493  0.9438  0.0041 -0.2964
   10MOL   O213 3111   7.426   6.915   5.491 -0.0852  0.0903 -0.0572
   10MOL   N214 3112   7.267   7.070   5.522 -0.6364  0.4055  0.1929
   10MOL   C215 3113   7.131   7.120   5.514  0.7196  0.3231  0.0597
   10MOL   C216 3114   7.375   7.166   5.556  0.1751 -0.9237 -0.0697
   10MOL   H217 3115   7.137   6.689   5.323 -0.1895  0.4834 -1.8380
   10MOL   H218 3116   7.302   6.721   5.317  0.6836 -0.2843  0.6351
   10MOL   H219 3117   7.104   6.889   5.484  1.3372  1.2524  0.4228
   10MOL   H220 3118   7.071   7.105   5.424 -2.1998 -1.2938  2.2228
   10MOL   H221 3119   7.080   7.067   5.594  1.4511 -0.3862  0.0563
   10MOL   H222 3120   7.125   7.227   5.533 -2.1173 -0.0107  1.2489
   10MOL   H223 3121   7.442   7.128   5.632 -0.3245  0.7132  1.2141
   10MOL   H224 3122   7.329   7.259   5.590  0.0322 -1.0466  0.0737
   10MOL   H225 3123   7.435   7.187   5.468 -1.5701  0.1315 -1.0492
   10MOL   C226 3124   7.197   6.726   5.570 -0.0898  0.1348  0.1536
   10MOL   C227 3125   7.155   6.753   5.713  0.1109 -0.0068 -0.5587
   10MOL   C228 3126   7.218   6.652   5.812 -0.5516 -0.2016 -0.5563
   10MOL   O229 3127   7.212   6.537   5.788 -0.0151 -0.1922  0.1921
   10MOL   N230 3128   7.282   6.699   5.926 -0.3503 -0.0346  0.0942
   10MOL   C231 3129   7.328   6.838   5.945  0.1815  0.3359 -0.0062
   10MOL   C232 3130   7.323   6.607   6.031 -0.3420 -0.4193 -0.5673
   10MOL   H233 3131   7.124   6.657   5.527  0.9143 -0.7534 -0.1766
   10MOL   H234 3132   7.288   6.666   5.567 -0.8866 -1.0720 -0.3315
   10MOL   H235 3133   7.184   6.857   5.730 -1.1148 -0.3476  4.2221
   10MOL   H236 3134   7.364   6.881   5.852  0.1503 -0.0988 -0.2196
   10MOL   H237 3135   7.256   6.912   5.979 -0.6942 -0.6792  0.3346
   10MOL   H238 3136   7.411   6.855   6.014  0.1024  0.7984 -0.0232
   10MOL   H239 3137   7.262   6.517   6.023 -0.8566 -0.1615  0.3983
   10MOL   H240 3138   7.311   6.646   6.132  0.1321 -1.0970 -0.2455
   10MOL   H241 3139   7.426   6.576   6.012 -0.8073 -2.8074  0.6519
   10MOL   C242 3140   6.993   6.755   5.722 -0.2869  0.0293  0.0019
   10MOL   C243 3141   6.916   6.819   5.842 -0.3808  0.0378 -0.0389
   10MOL   C244 3142   6.946   6.969   5.845  0.1563  0.5724  0.5541
   10MOL   O245 3143   7.053   7.001   5.903  0.0820  0.2808  0.1425
   10MOL   N246 3144   6.864   7.067   5.801 -0.3091  0.3104 -0.5114
   10MOL   C247 3145   6.892   7.209   5.782 -0.1034 -0.2720 -0.0872
   10MOL   C248 3146   6.718   7.040   5.777  0.2640 -0.5633  0.4504
   10MOL   H249 3147   6.966   6.812   5.634 -0.0750  0.0584 -0.0448
   10MOL   H250 3148   6.956   6.654   5.703  1.9964 -1.5639  3.3335
   10MOL   H251 3149   6.815   6.806   5.803 -0.4039  0.2517 -0.0526
   10MOL   H252 3150   6.865   7.259   5.689  3.1897  0.5577 -0.6512
   10MOL   H253 3151   6.840   7.264   5.860  0.0101 -0.1819 -0.0763
   10MOL   H254 3152   7.000   7.224   5.779  0.0267 -1.2170 -0.4695
   10MOL   H255 3153   6.657   7.129   5.758  0.3143 -1.0062 -1.8818
   10MOL   H256 3154   6.684   6.987   5.866 -1.9182 -0.1407 -0.0943
   10MOL   H257 3155   6.700   6.978   5.689 -1.0532  3.4290 -2.2357
   10MOL   C258 3156   6.923   6.750   5.978  0.6051  0.2647 -0.3532
   10MOL   C259 3157   6.875   6.603   5.990  0.3552  0.3537  0.2628
   10MOL   C260 3158   6.741   6.574   5.913  0.2034 -0.3026  0.0249
   10MOL   O261 3159   6.643   6.641   5.944  0.1060 -0.2929  0.0141
   10MOL   N262 3160   6.731   6.480   5.815 -0.7370 -0.4721  0.1902
   10MOL   C263 3161   6.602   6.462   5.744 -0.2034  0.4534 -0.2465
   10MOL   C264 3162   6.826   6.374   5.779  0.2271 -0.2826  0.1292
   10MOL   H265 3163   7.026   6.744   6.014  0.8089 -1.0395 -1.1370
   10MOL   H266 3164   6.866   6.806   6.053  1.2463 -0.4880  0.7184
   10MOL   H267 3165   6.955   6.550   5.939  0.5236  1.9266 -1.1146
   10MOL   H268 3166   6.556   6.557   5.717  0.5489  1.1977  1.0219
   10MOL   H269 3167   6.622   6.402   5.656  0.2615  1.8197 -1.0929
   10MOL   H270 3168   6.528   6.405   5.801  1.2510 -2.0809 -0.8175
   10MOL   H271 3169   6.813   6.279   5.830 -0.0590 -0.1246  0.3465
   10MOL   H272 3170   6.927   6.403   5.810 -0.9647 -0.0970  4.0675
   10MOL   H273 3171   6.832   6.346   5.674 -0.4187 -0.6845  0.1958
   10MOL   C274 3172   6.874   6.576   6.142  0.8705  0.3092 -0.1638
   10MOL   C275 3173   6.859   6.429   6.184 -0.5676  0.1039 -0.1536
   10MOL   C276 3174   6.989   6.349   6.156 -0.6686 -0.0736  0.5135
   10MOL   O277 3175   7.009   6.314   6.040 -0.0480 -0.0635 -0.0309
   10MOL   N278 3176   7.083   6.315   6.249  0.1091 -0.6733 -0.0176
   10MOL   C279 3177   7.222   6.275   6.214  0.1964  0.8299 -0.9931
   10MOL   C280 3178   7.054   6.329   6.390  0.2505  0.6615 -0.4069
   10MOL   H281 3179   6.973   6.608   6.174  0.6327 -1.2202  2.2415
   10MOL   H282 3180   6.800   6.635   6.196 -0.0906 -0.8280 -0.2323
   10MOL   H283 3181   6.846   6.429   6.292 -0.7410 -3.2885 -0.1236
   10MOL   H284 3182   7.265   6.213   6.292  0.8883  0.0239 -1.9893
   10MOL   H285 3183   7.215   6.205   6.130 -1.7937  2.2185 -2.0350
   10MOL   H286 3184   7.282   6.365   6.205  1.0994  0.1945 -1.3576
   10MOL   H287 3185   7.119   6.263   6.447 -0.8658  1.2102  1.5541
   10MOL   H288 3186   6.955   6.300   6.425  0.9738 -0.4628  0.7403
   10MOL   H289 3187   7.090   6.423   6.433  0.3816  0.6129 -0.4103
   10MOL   C290 3188   6.729   6.360   6.143  0.8326 -0.3197  0.3230
   10MOL   C291 3189   6.593   6.417   6.184  0.4634  0.1230 -0.0017
   10MOL   C292 3190   6.581   6.420   6.337 -0.1581  0.3171 -0.4932
   10MOL   O293 3191   6.608   6.313   6.392 -0.2274  0.1817 -0.1157
   10MOL   N294 3192   6.540   6.537   6.395 -0.5570  0.4714 -0.0370
   10MOL   C295 3193   6.557   6.563   6.538 -0.7268  0.5691 -0.1051
   10MOL   C296 3194   6.489   6.657   6.328  0.1119 -0.3003 -0.7514
   10MOL   H297 3195   6.720   6.337   6.037  1.0485  0.5952  0.0993
   10MOL   H298 3196   6.741   6.262   6.189 -1.4060 -0.9065 -0.2738
   10MOL   H299 3197   6.581   6.519   6.149  0.1909 -0.6381 -2.1714
   10MOL   H300 3198   6.628   6.491   6.578  1.3957  1.3623 -2.2558
   10MOL   H301 3199   6.594   6.664   6.559  1.7987 -0.6004  1.2905
   10MOL   H302 3200   6.468   6.535   6.594  0.5294 -0.5778  1.3457
   10MOL   H303 3201   6.416   6.638   6.249 -0.7758  1.5010 -0.3724
   10MOL   H304 3202   6.567   6.707   6.270 -1.4963  1.2934 -1.5802
   10MOL   H305 3203   6.445   6.721   6.404 -1.6836 -1.7090 -0.5678
   10MOL   C306 3204   6.480   6.338   6.116  0.3212 -0.1497 -0.5966
   10MOL   C307 3205   6.469   6.190   6.157  0.0607  0.4362 -0.7664
   10MOL   C308 3206   6.389   6.106   6.066 -0.6424  0.0532  0.2944
   10MOL   O309 3207   6.331   6.149   5.970 -0.9665 -0.0760 -0.3693
   10MOL   N310 3208   6.388   5.974   6.090 -0.0245 -0.2947  0.4300
   10MOL   C311 3209   6.461   5.911   6.201 -0.8619  0.5016 -0.4806
   10MOL   C312 3210   6.333   5.887   5.985  0.3085  0.6820  0.4289
   10MOL   H313 3211   6.382   6.385   6.104 -1.0088 -2.7718 -0.3420
   10MOL   H314 3212   6.509   6.325   6.012 -3.0680 -3.0944 -1.2746
   10MOL   H315 3213   6.568   6.148   6.144  0.1083 -0.1527  1.2974
   10MOL   H316 3214   6.443   5.805   6.222  1.5373  0.4138  1.3400
   10MOL   H317 3215   6.568   5.922   6.183 -0.7521 -0.6523 -0.5651
   10MOL   H318 3216   6.441   5.960   6.296 -0.4007 -0.1206 -0.0581
   10MOL   H319 3217   6.235   5.921   5.951 -0.3207  1.3662  2.8344
   10MOL   H320 3218   6.322   5.781   6.006 -2.1865  0.6399 -0.8846
   10MOL   H321 3219   6.413   5.898   5.911 -1.0225 -0.0574 -1.1380
   10MOL   H322 3220   6.434   6.177   6.259  4.4798  0.0275  0.7922
   11MOL     C1 3221   3.080   4.719   3.020  0.1700  0.0641 -0.1073
   11MOL     C2 3222   2.938   4.673   3.047 -0.0290 -0.3706  0.6923
   11MOL     C3 3223   2.911   4.537   2.980  0.0968 -0.1834  0.3708
   11MOL     O4 3224   2.927   4.542   2.860  0.5505  0.7516  0.3829
   11MOL     N5 3225   2.880   4.430   3.052 -0.1839  0.5631 -0.4924
   11MOL     C6 3226   2.847   4.302   2.983  0.0874  0.4158  0.8151
   11MOL     C7 3227   2.875   4.424   3.193  0.0257  0.8489 -0.2614
   11MOL     H8 3228   3.098   4.795   3.095  0.8839 -1.3353  1.1646
   11MOL     H9 3229   3.087   4.761   2.920 -0.9562  0.8520  0.1461
   11MOL    H10 3230   2.925   4.651   3.153 -1.9010 -2.3789  0.0883
   11MOL    H11 3231   2.928   4.260   2.924 -0.9070 -2.6268  1.5589
   11MOL    H12 3232   2.799   4.231   3.050 -1.1172  0.9597  0.5406
   11MOL    H13 3233   2.768   4.316   2.910  0.3102  1.1793  0.7126
   11MOL    H14 3234   2.976   4.442   3.229  0.3396 -0.5731 -0.3862
   11MOL    H15 3235   2.871   4.319   3.224  2.0885  0.8002 -0.0619
   11MOL    H16 3236   2.802   4.483   3.248  0.5215 -0.7219  2.1586
   11MOL    H17 3237   3.146   4.633   3.034 -0.0218 -0.0681 -0.0260
   11MOL    C18 3238   2.843   4.781   3.002 -0.5234  0.0881  0.1985
   11MOL    C19 3239   2.694   4.758   3.028  0.0869 -0.4425  0.7190
   11MOL    C20 3240   2.602   4.839   2.932 -0.7379  0.6558 -0.3583
   11MOL    O21 3241   2.570   4.951   2.968 -0.3076  0.5780  0.0853
   11MOL    N22 3242   2.554   4.780   2.821 -0.7617  0.1828  0.0195
   11MOL    C23 3243   2.591   4.653   2.754  0.0404  0.2541 -0.0957
   11MOL    C24 3244   2.455   4.840   2.746  0.6900 -0.2838  0.7858
   11MOL    H25 3245   2.875   4.876   3.045 -1.5390 -0.4418  2.1839
   11MOL    H26 3246   2.854   4.812   2.898  0.0414  1.3507  0.6271
   11MOL    H27 3247   2.668   4.654   3.011  5.0126 -1.6344 -0.2678
   11MOL    H28 3248   2.555   4.578   2.824  2.8907  2.2101  3.6767
   11MOL    H29 3249   2.534   4.644   2.662  0.5699 -0.5494 -0.3512
   11MOL    H30 3250   2.700   4.649   2.755  0.0611  0.4992 -0.9654
   11MOL    H31 3251   2.422   4.938   2.780  2.9817  0.2921  1.4850
   11MOL    H32 3252   2.369   4.774   2.734 -1.2858  2.6200 -1.8669
   11MOL    H33 3253   2.488   4.876   2.648 -0.1436  2.3936  1.4357
   11MOL    C34 3254   2.654   4.785   3.175  0.2252  0.5266  0.2966
   11MOL    C35 3255   2.500   4.743   3.203 -0.0919 -1.6066 -0.5367
   11MOL    C36 3256   2.432   4.855   3.287 -0.3925  0.3944 -0.2724
   11MOL    O37 3257   2.481   4.888   3.397 -0.3888  0.2362  0.1757
   11MOL    N38 3258   2.308   4.908   3.256  0.7450 -0.7659 -0.6764
   11MOL    C39 3259   2.214   4.975   3.347  0.3272  0.7209 -1.0242
   11MOL    C40 3260   2.254   4.911   3.117 -0.9288 -0.1125 -0.2349
   11MOL    H41 3261   2.720   4.728   3.242 -1.6464  0.0195  1.7530
   11MOL    H42 3262   2.680   4.884   3.212  0.4503 -0.0268  1.6886
   11MOL    H43 3263   2.432   4.739   3.118 -1.8150  0.8131  0.6467
   11MOL    H44 3264   2.267   5.030   3.424 -0.0429  0.8440 -0.8519
   11MOL    H45 3265   2.148   5.051   3.304 -1.4114  1.1689  2.2538
   11MOL    H46 3266   2.148   4.896   3.384  1.5789  0.0932 -0.0896
   11MOL    H47 3267   2.338   4.945   3.058 -2.2265 -0.3883 -2.2750
   11MOL    H48 3268   2.178   4.987   3.099  0.4083  1.3359  0.1977
   11MOL    H49 3269   2.218   4.810   3.099 -0.7345  0.0572 -1.5574
   11MOL    C50 3270   2.495   4.609   3.287  0.3723 -0.0555 -0.0906
   11MOL    C51 3271   2.388   4.504   3.252 -0.0343  0.5178 -0.2756
   11MOL    C52 3272   2.379   4.396   3.363  0.3424  0.3026  0.4988
   11MOL    O53 3273   2.437   4.286   3.349 -0.5955  0.2651  0.8360
   11MOL    N54 3274   2.303   4.427   3.476  0.0114  0.3427 -0.4234
   11MOL    C55 3275   2.335   4.346   3.594 -0.6930 -0.0927 -0.7122
   11MOL    C56 3276   2.217   4.544   3.495 -0.7070 -0.8507  0.1670
   11MOL    H57 3277   2.586   4.549   3.285  0.6202  0.3443 -0.6864
   11MOL    H58 3278   2.479   4.631   3.392 -0.9042 -1.2967 -0.0025
   11MOL    H59 3279   2.296   4.562   3.247 -1.0685 -0.8453  2.3109
   11MOL    H60 3280   2.333   4.409   3.683  0.0168 -0.1687 -0.6341
   11MOL    H61 3281   2.263   4.265   3.599  0.2231 -0.7661  2.0674
   11MOL    H62 3282   2.431   4.294   3.584 -0.7325  0.1720 -2.6601
   11MOL    H63 3283   2.202   4.570   3.599 -0.7227 -2.4939  0.5915
   11MOL    H64 3284   2.117   4.518   3.461 -1.0787 -1.2001  1.4989
   11MOL    H65 3285   2.250   4.633   3.442  1.1941 -1.7640 -0.2340
   11MOL    C66 3286   2.420   4.448   3.108  0.5717 -0.2549 -0.0179
   11MOL    C67 3287   2.298   4.404   3.020 -0.4587 -0.8649 -0.1863
   11MOL    C68 3288   2.350   4.310   2.910  0.6198 -0.2276 -0.9746
   11MOL    O69 3289   2.413   4.367   2.819 -0.3400 -0.5575  0.5405
   11MOL    N70 3290   2.327   4.176   2.922  0.0860 -0.7347 -0.5584
   11MOL    C71 3291   2.363   4.088   2.815 -0.1236  0.3839 -0.2154
   11MOL    C72 3292   2.247   4.107   3.029  0.5784 -0.2343  0.0042
   11MOL    H73 3293   2.479   4.517   3.047 -2.7105  0.6479 -2.3218
   11MOL    H74 3294   2.493   4.367   3.119  2.3781  1.2028 -0.8633
   11MOL    H75 3295   2.226   4.353   3.084 -0.6292 -1.4896 -0.8739
   11MOL    H76 3296   2.402   4.133   2.723 -2.1576 -2.2105 -2.4343
   11MOL    H77 3297   2.438   4.019   2.854 -0.7436 -0.8743 -1.1914
   11MOL    H78 3298   2.278   4.024   2.792  1.4738 -2.2221  0.9023
   11MOL    H79 3299   2.287   4.104   3.131 -1.2892 -1.8894  0.7288
   11MOL    H80 3300   2.229   4.001   3.007  0.3500 -0.4190  1.0053
   11MOL    H81 3301   2.154   4.164   3.035 -0.0973 -1.0225 -2.5749
   11MOL    C82 3302   2.235   4.531   2.959 -0.5619  0.0122 -0.4295
   11MOL    C83 3303   2.126   4.529   2.850 -0.3246  0.4064  0.0895
   11MOL    C84 3304   2.095   4.671   2.809  0.4555  0.7775 -0.9025
   11MOL    O85 3305   2.094   4.759   2.901  0.0591 -0.0063 -0.0852
   11MOL    N86 3306   2.089   4.700   2.677 -0.6634 -0.4968 -0.0296
   11MOL    C87 3307   2.102   4.609   2.566 -0.7494 -0.2096 -0.0737
   11MOL    C88 3308   2.086   4.836   2.629  0.3885  0.3714 -0.5733
   11MOL    H89 3309   2.190   4.592   3.037 -0.3682 -1.0421  0.5136
   11MOL    H90 3310   2.317   4.598   2.934  0.0790 -0.3018  0.8112
   11MOL    H91 3311   2.183   4.493   2.764  0.8544  2.7308 -0.1448
   11MOL    H92 3312   2.053   4.630   2.471  1.0956 -0.8713 -1.2105
   11MOL    H93 3313   2.207   4.596   2.536 -0.5952 -1.6726  1.0766
   11MOL    H94 3314   2.072   4.508   2.591  0.6522 -0.8095 -0.7714
   11MOL    H95 3315   2.188   4.869   2.608  0.5470 -1.9916 -3.9292
   11MOL    H96 3316   2.046   4.890   2.715 -0.4373  0.1539 -0.8163
   11MOL    H97 3317   2.016   4.845   2.546 -1.4607  0.9244  1.0080
   11MOL    C98 3318   2.011   4.430   2.869  0.0147  0.2409 -0.5054
   11MOL    C99 3319   1.893   4.486   2.952 -0.5714  0.4227 -0.9592
   11MOL   C100 3320   1.919   4.538   3.098  0.2956  0.8210  0.7888
   11MOL   O101 3321   1.972   4.463   3.180 -0.3138 -0.2706  0.1617
   11MOL   N102 3322   1.887   4.666   3.129 -0.3540 -0.0130 -0.1612
   11MOL   C103 3323   1.801   4.765   3.050  0.9482  0.9051 -0.1775
   11MOL   C104 3324   1.923   4.717   3.264  0.1945  0.8694  0.0664
   11MOL   H105 3325   1.970   4.402   2.773 -1.0733 -2.1143  0.6235
   11MOL   H106 3326   2.052   4.341   2.917  2.4869  1.0420 -1.0292
   11MOL   H107 3327   1.850   4.568   2.893 -0.9434  1.5281  0.8082
   11MOL   H108 3328   1.743   4.815   3.127 -0.4756 -1.1772  0.1419
   11MOL   H109 3329   1.870   4.827   2.993  2.8425 -3.3950 -2.9111
   11MOL   H110 3330   1.727   4.717   2.987 -0.1584  0.8539  1.1267
   11MOL   H111 3331   2.005   4.661   3.309 -0.9640 -0.5507  0.4615
   11MOL   H112 3332   1.834   4.712   3.327  0.7338  0.8253  0.8256
   11MOL   H113 3333   1.959   4.819   3.254  2.2770  0.1312 -0.1618
   11MOL   C114 3334   1.797   4.361   2.963  0.1774  0.8018  0.4095
   11MOL   C115 3335   1.648   4.391   3.013  0.3601  0.2428  0.4108
   11MOL   C116 3336   1.589   4.261   3.068  0.3350 -0.1618  0.0588
   11MOL   O117 3337   1.540   4.189   2.980 -0.3369  0.2065 -0.4028
   11MOL   N118 3338   1.571   4.231   3.199  0.2195  0.4524 -0.5915
   11MOL   C119 3339   1.489   4.121   3.246  0.5692  0.0306 -0.7226
   11MOL   C120 3340   1.641   4.292   3.316  0.6731  0.4304  0.2490
   11MOL   H121 3341   1.789   4.303   2.871  1.5397 -2.1402  2.0785
   11MOL   H122 3342   1.844   4.286   3.026  1.3593  0.7265 -0.5415
   11MOL   H123 3343   1.661   4.461   3.095  3.9208 -0.9154  0.9080
   11MOL   H124 3344   1.386   4.155   3.257  0.7262  0.7024 -1.2778
   11MOL   H125 3345   1.486   4.055   3.159 -1.3575  1.4130 -1.7489
   11MOL   H126 3346   1.535   4.069   3.330 -0.5612  1.3957  0.7504
   11MOL   H127 3347   1.634   4.236   3.409 -0.0350 -1.1383 -0.7171
   11MOL   H128 3348   1.594   4.385   3.344  1.6826  1.6092 -1.8301
   11MOL   H129 3349   1.746   4.312   3.293  0.6940  1.7339  1.4400
   11MOL   C130 3350   1.550   4.477   2.930 -0.6018  0.1998 -0.0829
   11MOL   C131 3351   1.487   4.428   2.803  0.1949 -0.2918 -0.3070
   11MOL   C132 3352   1.590   4.371   2.703 -0.0581  0.7282  0.4125
   11MOL   O133 3353   1.697   4.432   2.676 -0.4081 -0.5542 -0.0853
   11MOL   N134 3354   1.568   4.245   2.649 -0.7470  0.3162  0.4445
   11MOL   C135 3355   1.454   4.162   2.670 -0.1462 -0.7822 -0.3037
   11MOL   C136 3356   1.674   4.171   2.572 -0.2284  0.1832 -0.0753
   11MOL   H137 3357   1.460   4.481   2.993  0.0901 -0.3287  0.9526
   11MOL   H138 3358   1.588   4.578   2.916  0.9933 -0.5431 -1.2060
   11MOL   H139 3359   1.412   4.355   2.832 -0.3949  0.4138 -0.0516
   11MOL   H140 3360   1.467   4.103   2.762  0.2701  1.7060  1.2839
   11MOL   H141 3361   1.362   4.220   2.671 -0.3677 -1.1307 -0.3863
   11MOL   H142 3362   1.452   4.089   2.590  2.8372 -0.6903 -0.5181
   11MOL   H143 3363   1.680   4.069   2.608 -1.9710 -1.1920 -3.4180
   11MOL   H144 3364   1.775   4.210   2.581 -0.5794  0.5152  3.1072
   11MOL   H145 3365   1.659   4.159   2.465  0.3728  3.0144 -0.5066
   11MOL   C146 3366   1.401   4.543   2.736  0.2696  0.1466 -0.1156
   11MOL   C147 3367   1.301   4.501   2.621  0.1821  0.0875 -0.4092
   11MOL   C148 3368   1.324   4.597   2.500 -0.0862  1.0785 -0.6097
   11MOL   O149 3369   1.358   4.718   2.516 -0.4043 -0.3781 -0.1651
   11MOL   N150 3370   1.299   4.545   2.378  0.3372 -0.0793 -0.7863
   11MOL   C151 3371   1.278   4.405   2.345 -0.1000  0.3964  0.1504
   11MOL   C152 3372   1.274   4.640   2.266  0.2122  0.0986  0.2010
   11MOL   H153 3373   1.351   4.613   2.803  0.3182 -2.3042  2.5975
   11MOL   H154 3374   1.475   4.612   2.695  0.5366 -0.8018 -1.2620
   11MOL   H155 3375   1.321   4.399   2.587  0.2022  0.7776 -2.5747
   11MOL   H156 3376   1.376   4.359   2.331 -0.9829 -1.5915  0.3980
   11MOL   H157 3377   1.216   4.342   2.409 -0.1872  0.1395 -0.1868
   11MOL   H158 3378   1.233   4.384   2.249  0.4821  3.3519 -0.8307
   11MOL   H159 3379   1.241   4.598   2.171  1.2111 -0.0136 -0.1020
   11MOL   H160 3380   1.356   4.705   2.236 -1.0340  0.4576 -2.6012
   11MOL   H161 3381   1.186   4.701   2.288 -2.6282 -2.5092 -3.2952
   11MOL   C162 3382   1.153   4.519   2.650  0.3259 -0.0241  0.2093
   11MOL   C163 3383   1.095   4.448   2.771  0.0080  0.3549 -0.5518
   11MOL   C164 3384   1.096   4.290   2.757 -0.1224  0.6207  0.1783
   11MOL   O165 3385   1.055   4.246   2.652 -0.0679  0.0372  0.4945
   11MOL   N166 3386   1.129   4.207   2.858 -0.2725  0.0519  0.7045
   11MOL   C167 3387   1.180   4.258   2.987  0.4648 -0.1037  0.1242
   11MOL   C168 3388   1.115   4.064   2.845 -0.4513  0.3701  0.1193
   11MOL   H169 3389   1.131   4.626   2.646  2.5124  0.3793 -2.8432
   11MOL   H170 3390   1.100   4.474   2.566  3.7082  0.2451 -2.1720
   11MOL   H171 3391   1.166   4.471   2.851 -0.4176  0.5882 -0.2354
   11MOL   H172 3392   1.226   4.173   3.038  0.2273 -0.1415  0.2809
   11MOL   H173 3393   1.254   4.337   2.978  1.1949 -0.9363 -1.5061
   11MOL   H174 3394   1.104   4.302   3.051 -0.6622 -2.0518  0.1647
   11MOL   H175 3395   1.179   4.007   2.912  1.4988  0.5417 -1.5460
   11MOL   H176 3396   1.144   4.031   2.745  2.6170  3.5909 -0.1592
   11MOL   H177 3397   1.016   4.036   2.881 -0.4874 -1.5677 -1.4243
   11MOL   C178 3398   0.949   4.498   2.810  0.3569  0.0057  0.5297
   11MOL   C179 3399   0.948   4.614   2.910  0.0833 -0.6752  0.2406
   11MOL   C180 3400   0.980   4.562   3.049  0.4852 -0.7211  0.5656
   11MOL   O181 3401   0.928   4.457   3.083 -0.3002  0.1869 -0.1904
   11MOL   N182 3402   1.079   4.629   3.122  0.3889  0.5856  0.0917
   11MOL   C183 3403   1.143   4.552   3.218 -0.1102  0.2098 -0.4380
   11MOL   C184 3404   1.124   4.768   3.106  0.9465 -0.1150 -0.0536
   11MOL   H185 3405   0.909   4.520   2.711  1.9901 -1.1801 -0.4276
   11MOL   H186 3406   0.888   4.414   2.840  1.8798 -0.9964  0.8774
   11MOL   H187 3407   1.025   4.681   2.871 -0.6848 -1.0109 -1.9010
   11MOL   H188 3408   1.213   4.608   3.281  2.2456 -1.8128 -1.1527
   11MOL   H189 3409   1.082   4.481   3.275  1.5078  1.4851  3.0761
   11MOL   H190 3410   1.208   4.483   3.164  1.2869  0.2396  1.1299
   11MOL   H191 3411   1.041   4.825   3.064  0.7966  0.3859  0.9002
   11MOL   H192 3412   1.206   4.772   3.035 -0.5404 -1.0801 -1.8723
   11MOL   H193 3413   1.152   4.813   3.201 -0.0726  2.5480 -0.9934
   11MOL   C194 3414   0.819   4.708   2.914 -0.2276  0.1465  0.5618
   11MOL   C195 3415   0.681   4.643   2.929 -0.0010  0.1526 -0.4864
   11MOL   C196 3416   0.646   4.577   2.799  0.3268 -0.2969  0.1865
   11MOL   O197 3417   0.659   4.634   2.691  0.1301  0.5254 -0.0666
   11MOL   N198 3418   0.608   4.446   2.802 -1.0517  0.1537  0.0045
   11MOL   C199 3419   0.616   4.364   2.684 -0.1700 -0.0406 -0.3932
   11MOL   C200 3420   0.583   4.369   2.925 -0.2405 -0.4217  0.0218
   11MOL   H201 3421   0.824   4.768   3.004  0.4230  0.5523  0.2535
   11MOL   H202 3422   0.825   4.784   2.836 -0.4416  1.1304  1.4943
   11MOL   H203 3423   0.682   4.574   3.013 -0.8604 -0.6259 -1.0895
   11MOL   H204 3424   0.703   4.299   2.677 -0.9456 -1.1847  0.3989
   11MOL   H205 3425   0.530   4.299   2.668  0.1503 -0.8688  1.1739
   11MOL   H206 3426   0.619   4.418   2.589  1.1119 -0.3254 -0.5203
   11MOL   H207 3427   0.528   4.280   2.894 -1.3124  0.7230 -1.4239
   11MOL   H208 3428   0.519   4.420   2.996 -0.0440  0.0847 -0.1618
   11MOL   H209 3429   0.680   4.337   2.963  0.1470 -0.2864 -0.8268
   11MOL   C210 3430   0.579   4.759   2.956 -0.4376 -0.6853 -0.0949
   11MOL   C211 3431   0.426   4.728   2.953 -0.6572  0.1912 -0.4091
   11MOL   C212 3432   0.354   4.863   2.924 -0.1986 -0.4618 -0.3158
   11MOL   O213 3433   0.325   4.941   3.023 -0.1225  0.1049 -0.1045
   11MOL   N214 3434   0.331   4.909   2.797  0.7783  0.1297  0.4232
   11MOL   C215 3435   0.351   4.828   2.681  0.2762  0.8262 -0.1284
   11MOL   C216 3436   0.272   5.042   2.775  0.1371  0.1879 -0.1816
   11MOL   H217 3437   0.604   4.810   3.049  0.8656 -0.1690 -0.7018
   11MOL   H218 3438   0.595   4.841   2.885 -1.6760 -1.6875 -1.5595
   11MOL   H219 3439   0.397   4.664   2.869 -0.5343 -0.9344  0.3988
   11MOL   H220 3440   0.454   4.796   2.668  0.4201  0.9578  0.7044
   11MOL   H221 3441   0.300   4.733   2.696  0.4347  1.0818  2.1691
   11MOL   H222 3442   0.317   4.884   2.594 -1.3081 -0.4329 -0.3254
   11MOL   H223 3443   0.163   5.042   2.773  0.1513  0.0372 -1.8227
   11MOL   H224 3444   0.299   5.083   2.677  0.5649  0.2028 -0.0583
   11MOL   H225 3445   0.303   5.117   2.848 -1.3568 -1.1291  1.8357
   11MOL   C226 3446   0.365   4.664   3.081 -0.0266 -0.1239 -0.6766
   11MOL   C227 3447   0.242   4.561   3.062 -0.1013  0.2924 -0.4706
   11MOL   C228 3448   0.144   4.600   2.945  0.0878 -0.2214 -1.3581
   11MOL   O229 3449   0.071   4.696   2.971 -0.1243  0.6011 -0.4673
   11MOL   N230 3450   0.142   4.532   2.830  0.0641  0.3346  0.0378
   11MOL   C231 3451   0.039   4.560   2.723  0.8781  0.0513  0.7541
   11MOL   C232 3452   0.233   4.424   2.796 -0.3981 -0.9470  0.0732
   11MOL   H233 3453   0.441   4.611   3.139 -1.7529 -0.7043  1.1317
   11MOL   H234 3454   0.320   4.736   3.150 -2.7219 -1.6948 -0.7377
   11MOL   H235 3455   0.296   4.471   3.032 -1.5338 -1.4529  2.0606
   11MOL   H236 3456   7.853   4.661   2.737 -0.9112 -0.5127 -0.1063
   11MOL   H237 3457   0.082   4.540   2.626 -1.4580 -1.6907  0.0471
   11MOL   H238 3458   7.814   4.485   2.721  1.1242 -0.1568 -1.6046
   11MOL   H239 3459   0.217   4.333   2.854 -2.1164  0.4980  1.9614
   11MOL   H240 3460   0.340   4.442   2.796 -0.6347  0.5338 -0.5025
   11MOL   H241 3461   0.223   4.393   2.692  0.0615 -0.7495 -0.0293
   11MOL   C242 3462   0.171   4.493   3.187  0.5978  0.0666 -0.5644
   11MOL   C243 3463   0.069   4.574   3.268  0.3951 -0.5531  0.4444
   11MOL   C244 3464   0.140   4.662   3.375  0.4426 -0.5236  0.1588
   11MOL   O245 3465   0.200   4.599   3.459 -0.4681 -0.0738 -0.7407
   11MOL   N246 3466   0.135   4.797   3.375  0.3569 -0.4724  0.3409
   11MOL   C247 3467   0.169   4.871   3.499 -0.1258  0.2387  0.3005
   11MOL   C248 3468   0.088   4.878   3.260 -0.0017 -0.4405  0.2633
   11MOL   H249 3469   0.117   4.407   3.146  0.5375  0.0524 -0.4574
   11MOL   H250 3470   0.248   4.446   3.248  1.6120  1.5832 -0.6539
   11MOL   H251 3471   0.007   4.639   3.207  1.4746 -0.7892 -0.9441
   11MOL   H252 3472   0.106   4.959   3.504 -2.3500 -1.2443 -0.8076
   11MOL   H253 3473   0.150   4.806   3.584 -2.5499 -0.0464 -0.4152
   11MOL   H254 3474   0.274   4.899   3.499 -0.1831  0.4837 -0.8396
   11MOL   H255 3475   0.131   4.978   3.264 -0.5447 -0.2739  2.4440
   11MOL   H256 3476   7.835   4.893   3.274 -0.0904 -1.5102  0.7676
   11MOL   H257 3477   0.106   4.838   3.161  1.1299  3.0731 -1.0330
   11MOL   C258 3478   7.829   4.467   3.340  0.1678 -0.2316  0.0508
   11MOL   C259 3479   7.736   4.518   3.446  0.5091  0.0513 -0.4418
   11MOL   C260 3480   7.690   4.400   3.535 -0.3714  0.3454  0.2903
   11MOL   O261 3481   7.594   4.331   3.495  0.1236  0.1477  0.0296
   11MOL   N262 3482   7.762   4.353   3.644 -0.7733  0.4086  0.0025
   11MOL   C263 3483   0.006   4.435   3.719 -0.0027 -0.4163 -0.1743
   11MOL   C264 3484   7.734   4.221   3.703  0.3089  0.1197 -0.4570
   11MOL   H265 3485   7.768   4.421   3.262 -0.4976  1.1862 -0.2793
   11MOL   H266 3486   0.041   4.392   3.384 -0.2989 -0.3334  0.5726
   11MOL   H267 3487   7.776   4.593   3.514  2.2262 -2.1504  1.0379
   11MOL   H268 3488   0.006   4.420   3.827 -0.0229  0.6745 -0.0155
   11MOL   H269 3489   0.106   4.400   3.692  0.1449 -2.6113  2.9508
   11MOL   H270 3490   7.850   4.543   3.711 -3.9024 -0.8291 -2.5083
   11MOL   H271 3491   7.638   4.225   3.754  0.3833 -2.0890 -0.0837
   11MOL   H272 3492   7.809   4.186   3.774  0.7487 -0.4613 -1.2109
   11MOL   H273 3493   7.722   4.144   3.627 -0.6515  0.9281 -1.1303
   11MOL   C274 3494   7.624   4.588   3.381 -0.4807 -0.1955 -0.3059
   11MOL   C275 3495   7.532   4.685   3.473  0.1372 -0.0220 -0.5127
   11MOL   C276 3496   7.400   4.701   3.395 -0.0715  1.3454 -0.0833
   11MOL   O277 3497   7.405   4.745   3.279 -0.4086 -0.4450  0.1381
   11MOL   N278 3498   7.284   4.669   3.455  0.4079  0.7249 -0.7580
   11MOL   C279 3499   7.273   4.638   3.595 -0.6160  0.8730 -0.3349
   11MOL   C280 3500   7.152   4.672   3.383 -0.3470 -0.5785 -0.5977
   11MOL   H281 3501   7.662   4.656   3.305 -1.2906  0.2054 -0.3608
   11MOL   H282 3502   7.561   4.517   3.327  0.7484  0.2159 -2.3383
   11MOL   H283 3503   7.520   4.638   3.571 -3.0322  4.3152  1.3403
   11MOL   H284 3504   7.311   4.721   3.655  2.5250 -1.2655  0.7701
   11MOL   H285 3505   7.169   4.617   3.618 -0.9411  0.0328 -2.4869
   11MOL   H286 3506   7.322   4.545   3.622 -1.7928  0.4404  0.3206
   11MOL   H287 3507   7.155   4.751   3.308 -0.0804  0.8334  0.8776
   11MOL   H288 3508   7.072   4.704   3.450 -0.2606  0.8646 -1.1616
   11MOL   H289 3509   7.134   4.573   3.340  1.8313 -1.1283 -0.2964
   11MOL   C290 3510   7.607   4.823   3.489 -0.3093 -0.3005  0.0237
   11MOL   C291 3511   7.542   4.938   3.574 -0.1489  0.3178  0.1403
   11MOL   C292 3512   7.585   5.075   3.525 -0.1289  0.6617  0.8311
   11MOL   O293 3513   7.702   5.111   3.540  0.6106 -0.0564  0.4401
   11MOL   N294 3514   7.489   5.159   3.471  0.1147 -0.6615 -0.4470
   11MOL   C295 3515   7.519   5.296   3.443  0.3141  0.0819 -0.0010
   11MOL   C296 3516   7.363   5.122   3.415  0.5543  0.8088  0.6282
   11MOL   H297 3517   7.709   4.814   3.527 -0.2389  1.9421  0.4647
   11MOL   H298 3518   7.627   4.859   3.388  1.2302 -0.9812  0.0776
   11MOL   H299 3519   7.435   4.929   3.555 -0.0204  0.7094 -0.7626
   11MOL   H300 3520   7.540   5.356   3.532  2.6404  0.8346 -1.0171
   11MOL   H301 3521   7.620   5.289   3.404  0.4778 -2.1449  0.7957
   11MOL   H302 3522   7.454   5.343   3.368 -0.9552 -1.5363  0.0694
   11MOL   H303 3523   7.295   5.076   3.486  3.8297 -2.1883  2.0287
   11MOL   H304 3524   7.387   5.060   3.328 -2.9706 -2.7539  2.0599
   11MOL   H305 3525   7.304   5.207   3.383  1.6465  1.2308 -0.2997
   11MOL   C306 3526   7.569   4.927   3.730  0.0324 -0.1789 -0.3868
   11MOL   C307 3527   7.511   5.035   3.822 -0.1120 -0.6584  1.2152
   11MOL   C308 3528   7.352   5.049   3.812  0.2427  0.7751  0.2701
   11MOL   O309 3529   7.289   4.956   3.767  0.2433  0.4142  0.2821
   11MOL   N310 3530   7.281   5.160   3.845  0.4987 -0.1460 -0.4504
   11MOL   C311 3531   7.358   5.263   3.918  0.6251 -0.0790 -0.0495
   11MOL   C312 3532   7.140   5.173   3.831 -0.5783  0.2507 -0.3430
   11MOL   H313 3533   7.532   4.830   3.765 -2.2339  0.8752  0.2210
   11MOL   H314 3534   7.675   4.918   3.752 -0.0086 -0.4905 -0.3164
   11MOL   H315 3535   7.521   5.007   3.927  0.0936 -2.6720  0.6835
   11MOL   H316 3536   7.402   5.224   4.010 -0.8549 -1.1513  0.2246
   11MOL   H317 3537   7.430   5.316   3.855  3.4304 -2.9009  0.6654
   11MOL   H318 3538   7.286   5.336   3.956 -1.1766 -2.4791  1.2571
   11MOL   H319 3539   7.108   5.276   3.844  1.1654  0.6541  0.8497
   11MOL   H320 3540   7.087   5.116   3.907 -0.5273  1.1255  0.3453
   11MOL   H321 3541   7.121   5.141   3.728 -1.9897 -0.5461  0.1417
   11MOL   H322 3542   7.554   5.134   3.814 -2.4981  0.3407  0.5519
   12MOL     C1 3543   2.210   4.743   4.158  0.2215  0.2398 -0.0838
   12MOL     C2 3544   2.064   4.772   4.124  0.2817 -0.2054 -1.2093
   12MOL     C3 3545   1.965   4.713   4.227 -0.5128  0.1678  0.3022
   12MOL     O4 3546   1.947   4.593   4.220  0.1035  0.2224 -0.3559
   12MOL     N5 3547   1.914   4.792   4.323 -0.2106 -0.0981 -1.0057
   12MOL     C6 3548   1.949   4.932   4.347 -0.7795 -0.0768 -0.4593
   12MOL     C7 3549   1.823   4.731   4.418 -0.4283  0.3063  0.5821
   12MOL     H8 3550   2.215   4.736   4.267 -3.8352  1.7045  0.2968
   12MOL     H9 3551   2.281   4.818   4.123  2.2489 -0.7535  1.7553
   12MOL    H10 3552   2.051   4.880   4.121 -2.1054 -0.4479 -0.8212
   12MOL    H11 3553   2.057   4.947   4.349 -0.8298  0.2100  1.2768
   12MOL    H12 3554   1.910   4.995   4.267 -0.0669 -0.9299 -1.4874
   12MOL    H13 3555   1.928   4.973   4.446 -0.0176  1.0712 -0.7566
   12MOL    H14 3556   1.752   4.676   4.356  0.4791 -0.0276 -0.1574
   12MOL    H15 3557   1.766   4.807   4.473 -1.1584  0.3765 -0.2600
   12MOL    H16 3558   1.875   4.657   4.479 -0.4063 -0.4887 -0.3933
   12MOL    H17 3559   2.241   4.644   4.125 -0.3964 -0.2519  0.7742
   12MOL    C18 3560   2.042   4.735   3.974 -0.3193 -0.4566  1.0231
   12MOL    C19 3561   1.911   4.754   3.902  0.5113  0.2598 -0.5249
   12MOL    C20 3562   1.899   4.676   3.775 -0.3047  0.6114 -0.5168
   12MOL    O21 3563   1.997   4.671   3.705  0.4437  0.7052  0.5789
   12MOL    N22 3564   1.782   4.613   3.742  0.0779  1.2683  0.2491
   12MOL    C23 3565   1.771   4.523   3.630  0.5899 -0.3373 -0.2325
   12MOL    C24 3566   1.655   4.634   3.810  0.0627  0.1816 -0.2034
   12MOL    H25 3567   2.119   4.784   3.914 -0.9634  0.0926  0.6373
   12MOL    H26 3568   2.073   4.631   3.971 -0.5035 -0.4746 -2.2981
   12MOL    H27 3569   1.837   4.705   3.965 -0.5121  2.5668  0.0906
   12MOL    H28 3570   1.691   4.563   3.567 -0.6911 -1.0118  0.9443
   12MOL    H29 3571   1.852   4.504   3.560  1.3767 -0.6485  0.7664
   12MOL    H30 3572   1.746   4.421   3.660 -1.8063  0.7607  1.6585
   12MOL    H31 3573   1.571   4.621   3.742  0.3328  0.8403 -0.6785
   12MOL    H32 3574   1.644   4.735   3.849  2.1657  0.4578 -0.2516
   12MOL    H33 3575   1.643   4.553   3.882 -1.7133 -0.4446 -1.1754
   12MOL    C34 3576   1.857   4.902   3.887 -0.4275 -0.2939  0.2873
   12MOL    C35 3577   1.935   5.019   3.819 -0.2436  0.2607  0.5845
   12MOL    C36 3578   2.066   5.055   3.896  0.2371  0.3931  0.2399
   12MOL    O37 3579   2.051   5.086   4.017 -0.0290  1.2922 -0.7312
   12MOL    N38 3580   2.193   5.051   3.858 -0.0661  0.3392  0.8073
   12MOL    C39 3581   2.225   4.996   3.724 -0.1765  0.3348 -0.2446
   12MOL    C40 3582   2.307   5.102   3.931 -0.0167 -0.1254 -0.0900
   12MOL    H41 3583   1.766   4.910   3.828 -0.6046  0.7491  0.6861
   12MOL    H42 3584   1.828   4.937   3.986 -1.9975  0.7943 -0.5444
   12MOL    H43 3585   1.963   4.978   3.722 -1.8315  1.0928 -0.2376
   12MOL    H44 3586   2.326   5.030   3.701  0.7528 -0.9209  1.8051
   12MOL    H45 3587   2.219   4.887   3.718 -2.2108  0.1329  3.5321
   12MOL    H46 3588   2.161   5.034   3.645  0.1342 -0.9134 -1.1241
   12MOL    H47 3589   2.277   5.191   3.986  1.1911 -0.8258  1.8034
   12MOL    H48 3590   2.395   5.130   3.873  0.0872 -0.0955  0.0815
   12MOL    H49 3591   2.342   5.021   3.996  0.3129 -0.9263 -1.2403
   12MOL    C50 3592   1.837   5.138   3.785 -0.3068 -0.1108 -0.7139
   12MOL    C51 3593   1.889   5.246   3.683  0.3183  0.2121  0.6139
   12MOL    C52 3594   2.008   5.326   3.735 -0.8127 -0.0634  0.0910
   12MOL    O53 3595   1.993   5.363   3.847  0.7399  0.5439 -0.2861
   12MOL    N54 3596   2.121   5.346   3.660 -0.3620  0.5808  0.2215
   12MOL    C55 3597   2.130   5.311   3.516  0.3818 -0.2289  0.1317
   12MOL    C56 3598   2.248   5.380   3.721  0.4177 -0.6720 -0.0331
   12MOL    H57 3599   1.744   5.090   3.754 -0.2929 -2.3854  2.4980
   12MOL    H58 3600   1.814   5.190   3.878 -2.5470 -1.4558 -0.4599
   12MOL    H59 3601   1.920   5.184   3.599  1.1533  0.6789  0.5744
   12MOL    H60 3602   2.216   5.356   3.465  0.4834 -1.5339 -0.8662
   12MOL    H61 3603   2.122   5.203   3.502  1.1638 -0.6144  2.4331
   12MOL    H62 3604   2.040   5.350   3.469  1.5623  2.7563  0.2188
   12MOL    H63 3605   2.320   5.302   3.694  0.3497 -1.1002  0.9920
   12MOL    H64 3606   2.254   5.373   3.829 -0.7551  1.3065  0.1846
   12MOL    H65 3607   2.292   5.471   3.681 -0.0825  0.2528  1.5109
   12MOL    C66 3608   1.780   5.336   3.635  0.3026 -0.0873  0.4066
   12MOL    C67 3609   1.663   5.275   3.550  0.5789  0.1091 -0.0412
   12MOL    C68 3610   1.709   5.263   3.402  0.3128 -0.3962 -0.2902
   12MOL    O69 3611   1.711   5.363   3.330  0.4341 -0.4853 -0.1017
   12MOL    N70 3612   1.730   5.144   3.345 -0.0327  0.1026  0.2079
   12MOL    C71 3613   1.703   5.012   3.413 -0.0465  0.1448  0.3805
   12MOL    C72 3614   1.785   5.126   3.210 -0.1019  0.0752 -0.0071
   12MOL    H73 3615   1.737   5.394   3.717 -2.2871 -1.9375  0.4098
   12MOL    H74 3616   1.828   5.409   3.569 -1.5591 -0.2085 -1.1020
   12MOL    H75 3617   1.623   5.181   3.587  0.2906 -0.1303 -0.9321
   12MOL    H76 3618   1.719   4.935   3.338 -0.0724 -1.0906  1.6243
   12MOL    H77 3619   1.767   4.998   3.500  0.0916  0.2260  0.2914
   12MOL    H78 3620   1.596   5.002   3.430  0.3125 -1.9246  1.5512
   12MOL    H79 3621   1.852   5.041   3.209  0.1716  0.1981  3.3722
   12MOL    H80 3622   1.845   5.208   3.172  0.7188 -0.6496 -0.2790
   12MOL    H81 3623   1.710   5.095   3.137  0.6567  1.0155 -1.2061
   12MOL    C82 3624   1.538   5.373   3.565  0.3805 -0.2275 -0.5159
   12MOL    C83 3625   1.405   5.332   3.493  0.2122 -0.4840 -0.3865
   12MOL    C84 3626   1.303   5.442   3.500 -0.9212 -0.0115 -0.0914
   12MOL    O85 3627   1.219   5.432   3.589  0.4672  0.5896  0.4069
   12MOL    N86 3628   1.298   5.541   3.411 -0.0219 -0.0234 -0.0033
   12MOL    C87 3629   1.397   5.564   3.309  0.2616  0.2949 -0.2048
   12MOL    C88 3630   1.184   5.631   3.418 -0.3642  0.2133  0.2803
   12MOL    H89 3631   1.512   5.386   3.670 -2.2263 -2.0830 -0.8734
   12MOL    H90 3632   1.578   5.469   3.534  1.9910 -0.4607  0.8032
   12MOL    H91 3633   1.439   5.314   3.391  0.1670  2.6981 -0.9952
   12MOL    H92 3634   1.481   5.494   3.308 -0.5443 -0.6553 -1.4673
   12MOL    H93 3635   1.357   5.552   3.209 -1.5696  0.0410  0.5551
   12MOL    H94 3636   1.436   5.666   3.322  1.4555 -0.1924  0.1427
   12MOL    H95 3637   1.119   5.627   3.506 -0.2875 -1.4451  0.2780
   12MOL    H96 3638   1.125   5.624   3.327  2.3565  0.0047 -1.5292
   12MOL    H97 3639   1.234   5.726   3.436 -3.0157  1.9560 -1.2539
   12MOL    C98 3640   1.347   5.195   3.552  0.7697  0.4030 -0.4207
   12MOL    C99 3641   1.259   5.118   3.457  0.1031 -0.1927 -0.7773
   12MOL   C100 3642   1.324   5.082   3.325  0.8019  0.8792 -0.7250
   12MOL   O101 3643   1.318   5.169   3.236 -0.0367  0.6590 -0.7249
   12MOL   N102 3644   1.374   4.959   3.304  0.5239  0.6015  0.3929
   12MOL   C103 3645   1.428   4.930   3.173  0.0782  0.3002  0.4147
   12MOL   C104 3646   1.366   4.847   3.403  0.1066 -0.0472  0.0875
   12MOL   H105 3647   1.422   5.127   3.592 -0.8220  0.2612  2.5102
   12MOL   H106 3648   1.292   5.210   3.645  1.2527  1.2149 -0.2562
   12MOL   H107 3649   1.236   5.025   3.509 -0.7114  0.4550  0.0482
   12MOL   H108 3650   1.366   4.940   3.084  1.4824 -0.7433 -0.7054
   12MOL   H109 3651   1.524   4.982   3.169  0.0711  0.2792 -0.0259
   12MOL   H110 3652   1.445   4.823   3.165 -0.8058  0.1597  0.3451
   12MOL   H111 3653   1.441   4.772   3.379 -1.8303 -1.3461 -2.0848
   12MOL   H112 3654   1.269   4.798   3.413 -0.3580  0.6863 -0.7434
   12MOL   H113 3655   1.399   4.886   3.499  0.1383 -0.1156  0.1046
   12MOL   C114 3656   1.114   5.186   3.430  0.1027 -0.2236 -0.0357
   12MOL   C115 3657   0.991   5.104   3.381 -0.1508 -0.5796 -0.1707
   12MOL   C116 3658   0.965   4.982   3.474  0.0722 -0.1199 -0.3839
   12MOL   O117 3659   1.040   4.889   3.471  0.2240  0.3993  0.3800
   12MOL   N118 3660   0.852   4.981   3.556 -0.0913  0.5271 -0.3518
   12MOL   C119 3661   0.768   5.100   3.574 -0.6968 -0.2178 -0.4229
   12MOL   C120 3662   0.818   4.859   3.642 -0.0821  0.8542 -0.0645
   12MOL   H121 3663   1.086   5.234   3.524  1.3211  0.2816  0.0666
   12MOL   H122 3664   1.127   5.274   3.368  0.8287 -0.1237  0.2554
   12MOL   H123 3665   0.906   5.173   3.382 -0.6002 -1.1405  1.3122
   12MOL   H124 3666   0.708   5.130   3.488 -0.0817 -0.2762 -0.8793
   12MOL   H125 3667   0.691   5.072   3.646 -0.7265  0.7695 -0.0537
   12MOL   H126 3668   0.821   5.188   3.610 -0.2351 -0.2857 -0.9329
   12MOL   H127 3669   0.901   4.791   3.662 -0.6360  0.3468  0.5296
   12MOL   H128 3670   0.745   4.801   3.585  0.4602 -0.0641  0.1776
   12MOL   H129 3671   0.766   4.881   3.735 -1.9228 -1.2632 -0.5578
   12MOL   C130 3672   1.001   5.066   3.234  0.0253 -0.1398  0.2136
   12MOL   C131 3673   0.886   5.100   3.131 -0.1662 -0.0248 -0.5979
   12MOL   C132 3674   0.754   5.038   3.180 -0.2145  1.0323  0.5340
   12MOL   O133 3675   0.756   4.927   3.234 -0.4708 -0.3134  0.0905
   12MOL   N134 3676   0.643   5.108   3.170  0.0933 -0.0712  0.3862
   12MOL   C135 3677   0.525   5.065   3.240 -0.0316  0.0400  0.2825
   12MOL   C136 3678   0.624   5.227   3.089  0.2184  0.0037  0.0655
   12MOL   H137 3679   1.086   5.112   3.184  0.1909  0.3178  0.9058
   12MOL   H138 3680   1.005   4.957   3.225  0.0162 -0.2952  1.8096
   12MOL   H139 3681   0.872   5.207   3.146  0.2479 -0.1389  0.6298
   12MOL   H140 3682   0.436   5.105   3.192 -0.1917 -2.1080 -1.3029
   12MOL   H141 3683   0.516   4.956   3.239 -0.4763  0.0674 -2.6083
   12MOL   H142 3684   0.536   5.104   3.341  2.6748  1.4988 -0.5402
   12MOL   H143 3685   0.528   5.280   3.093  0.8567  1.0234  2.6347
   12MOL   H144 3686   0.658   5.208   2.987  2.1699 -1.1245  0.9200
   12MOL   H145 3687   0.686   5.309   3.124 -0.6134  0.5742  0.2345
   12MOL   C146 3688   0.910   5.081   2.975  0.0904 -0.4970 -0.4003
   12MOL   C147 3689   1.023   5.175   2.914  0.5542  0.8141 -0.1223
   12MOL   C148 3690   0.962   5.321   2.901 -0.4301  0.5046 -0.2075
   12MOL   O149 3691   0.897   5.352   2.804 -0.1641 -0.3265  0.0208
   12MOL   N150 3692   0.996   5.417   2.993 -0.3141  0.7493 -0.1142
   12MOL   C151 3693   1.082   5.397   3.109 -0.4215  0.1167  0.0083
   12MOL   C152 3694   0.930   5.553   2.976  0.0710 -0.1314 -0.4621
   12MOL   H153 3695   0.926   4.974   2.957 -0.6379 -0.7708  0.5129
   12MOL   H154 3696   0.821   5.105   2.917 -0.0188 -2.1371 -0.9646
   12MOL   H155 3697   1.104   5.160   2.985 -0.5585 -1.4333  0.7122
   12MOL   H156 3698   1.038   5.334   3.186  2.4199 -0.5327  1.1880
   12MOL   H157 3699   1.184   5.364   3.087 -0.0734  1.2827 -0.1835
   12MOL   H158 3700   1.093   5.490   3.165 -0.8799  0.9305 -1.2245
   12MOL   H159 3701   0.957   5.621   3.057  1.0117  0.0604 -0.9255
   12MOL   H160 3702   0.823   5.542   2.963 -0.2663 -0.8302  2.4681
   12MOL   H161 3703   0.961   5.594   2.880  1.6937  0.8150  0.4345
   12MOL   C162 3704   1.061   5.119   2.773 -0.4901 -0.4207 -0.4242
   12MOL   C163 3705   1.191   5.189   2.725  0.5585 -0.4461  0.2359
   12MOL   C164 3706   1.197   5.189   2.570 -0.3682  0.6582  0.6511
   12MOL   O165 3707   1.228   5.087   2.511  0.5039 -0.1971  0.6043
   12MOL   N166 3708   1.177   5.304   2.501 -0.4030 -0.5670 -0.0419
   12MOL   C167 3709   1.189   5.307   2.355 -0.6207 -0.3057  0.0017
   12MOL   C168 3710   1.092   5.415   2.553 -0.6381  0.6201  0.1226
   12MOL   H169 3711   1.074   5.011   2.775 -1.2840 -0.5197 -0.6580
   12MOL   H170 3712   0.984   5.131   2.697 -0.6589  1.2789 -0.0027
   12MOL   H171 3713   1.180   5.294   2.748  1.4629  0.4579 -3.1722
   12MOL   H172 3714   1.288   5.272   2.328  0.4127  1.3712  1.4991
   12MOL   H173 3715   1.107   5.242   2.326  0.4393 -2.0999  0.9686
   12MOL   H174 3716   1.189   5.401   2.300  1.3551  0.6396  1.5448
   12MOL   H175 3717   0.993   5.380   2.581 -0.3598  1.9233  2.8892
   12MOL   H176 3718   1.093   5.492   2.476 -1.2918  1.8773  1.3664
   12MOL   H177 3719   1.120   5.467   2.644 -1.0713  3.0852 -1.1208
   12MOL   C178 3720   1.308   5.117   2.792 -0.3136  0.2645 -0.0196
   12MOL   C179 3721   1.450   5.179   2.777  0.3941 -0.9588 -0.0743
   12MOL   C180 3722   1.442   5.332   2.798  0.6391 -0.0482  0.1515
   12MOL   O181 3723   1.390   5.399   2.709  0.2491 -0.2872  0.0215
   12MOL   N182 3724   1.484   5.388   2.916 -0.1893  0.2421  0.9871
   12MOL   C183 3725   1.502   5.535   2.931 -0.9381 -0.3426 -1.0766
   12MOL   C184 3726   1.536   5.313   3.028  0.3542 -0.1273 -0.5955
   12MOL   H185 3727   1.294   5.097   2.898  1.6971 -1.8216 -0.0935
   12MOL   H186 3728   1.311   5.020   2.741  0.8767  0.3002 -0.0452
   12MOL   H187 3729   1.507   5.130   2.856  2.9246 -0.0868 -1.3008
   12MOL   H188 3730   1.556   5.571   2.844 -0.9945  1.9255 -0.2056
   12MOL   H189 3731   1.405   5.584   2.917 -0.7310  1.1546  2.1996
   12MOL   H190 3732   1.560   5.573   3.015 -1.2261 -0.1070 -0.9791
   12MOL   H191 3733   1.565   5.362   3.121  0.1804 -1.5868  0.2362
   12MOL   H192 3734   1.625   5.266   2.986  0.0728  0.3476 -1.7452
   12MOL   H193 3735   1.473   5.230   3.059  0.3750  0.5526  1.3430
   12MOL   C194 3736   1.506   5.143   2.631 -0.6031  0.3150  0.2946
   12MOL   C195 3737   1.660   5.125   2.624  0.5913  0.0328 -0.2166
   12MOL   C196 3738   1.707   4.996   2.696 -0.7504  0.8078 -0.4612
   12MOL   O197 3739   1.720   5.002   2.821 -0.0642 -0.2487 -0.4456
   12MOL   N198 3740   1.724   4.880   2.630  0.6693  0.5648 -0.4537
   12MOL   C199 3741   1.721   4.862   2.485 -0.2454 -0.0099 -0.6207
   12MOL   C200 3742   1.732   4.751   2.691 -0.6000  0.2589 -0.1150
   12MOL   H201 3743   1.455   5.052   2.598  0.2892  0.7621 -2.4396
   12MOL   H202 3744   1.479   5.222   2.561  0.1051  0.2034 -0.1037
   12MOL   H203 3745   1.680   5.118   2.517 -1.7621 -0.5301 -0.6468
   12MOL   H204 3746   1.618   4.880   2.454 -0.2903  0.5090 -0.1810
   12MOL   H205 3747   1.781   4.937   2.433  1.5998 -2.4065 -1.9982
   12MOL   H206 3748   1.758   4.766   2.451  1.9642 -0.0809  1.7822
   12MOL   H207 3749   1.803   4.769   2.772 -1.0996  0.7503  0.2163
   12MOL   H208 3750   1.757   4.664   2.631  1.7391  1.8657 -1.5370
   12MOL   H209 3751   1.638   4.735   2.744 -1.1101  0.5809 -0.9048
   12MOL   C210 3752   1.743   5.246   2.673  0.0371 -0.3054  0.0295
   12MOL   C211 3753   1.896   5.263   2.633 -0.1470  0.2010 -0.2508
   12MOL   C212 3754   1.921   5.265   2.476 -0.2022  0.1871 -0.3990
   12MOL   O213 3755   1.946   5.158   2.420 -0.1500 -0.0410 -0.5479
   12MOL   N214 3756   1.924   5.384   2.408  0.8214  0.0245 -0.2576
   12MOL   C215 3757   1.888   5.514   2.459 -0.2309 -0.1959  0.7619
   12MOL   C216 3758   1.944   5.379   2.267 -0.5032  0.1996 -0.1955
   12MOL   H217 3759   1.700   5.336   2.629 -0.3717 -0.9837 -0.9717
   12MOL   H218 3760   1.733   5.258   2.781 -1.5800 -1.3940  0.0232
   12MOL   H219 3761   1.901   5.365   2.671 -1.2012 -0.2525  1.1735
   12MOL   H220 3762   1.856   5.584   2.382  1.1605 -1.6208 -1.1816
   12MOL   H221 3763   1.800   5.511   2.523 -0.7948 -1.0864 -0.0480
   12MOL   H222 3764   1.969   5.564   2.512  0.0578 -0.6008  0.7033
   12MOL   H223 3765   1.922   5.281   2.224 -3.0000  0.4613  0.3737
   12MOL   H224 3766   2.049   5.401   2.251  0.4469 -2.0769  2.5527
   12MOL   H225 3767   1.882   5.452   2.214 -0.5007  1.2712  1.2326
   12MOL   C226 3768   2.001   5.184   2.719 -0.0355  0.9554  0.2056
   12MOL   C227 3769   2.134   5.275   2.728 -0.0649 -0.2873 -0.7739
   12MOL   C228 3770   2.241   5.225   2.634 -0.4801 -1.0685 -0.4809
   12MOL   O229 3771   2.269   5.105   2.652 -0.1595 -0.3118  0.1364
   12MOL   N230 3772   2.289   5.298   2.527  0.4930  0.0834 -0.2961
   12MOL   C231 3773   2.383   5.240   2.433  0.5491 -0.5533 -0.5831
   12MOL   C232 3774   2.294   5.443   2.521 -0.0351  0.6496 -1.0135
   12MOL   H233 3775   1.960   5.145   2.813 -2.6233  1.3610 -0.7017
   12MOL   H234 3776   2.017   5.091   2.665  0.4111  1.0575  0.1598
   12MOL   H235 3777   2.113   5.378   2.703  2.4875  0.8026  1.3226
   12MOL   H236 3778   2.481   5.267   2.473  0.7300  0.7456 -1.8418
   12MOL   H237 3779   2.381   5.131   2.440 -1.9267 -0.4471  0.6923
   12MOL   H238 3780   2.365   5.271   2.330 -0.9618 -0.8647 -0.4181
   12MOL   H239 3781   2.198   5.495   2.528  0.1499  1.0133 -1.1778
   12MOL   H240 3782   2.330   5.479   2.425 -1.1613  3.8997 -0.2851
   12MOL   H241 3783   2.358   5.497   2.591 -2.2301  0.6109  1.0971
   12MOL   C242 3784   2.203   5.275   2.866  0.2129  0.1389 -0.7198
   12MOL   C243 3785   2.130   5.351   2.979 -0.0037 -0.0257 -0.7947
   12MOL   C244 3786   2.089   5.500   2.945  0.1688  0.0290 -0.4238
   12MOL   O245 3787   2.169   5.567   2.878  0.2516  0.0761  0.1527
   12MOL   N246 3788   1.961   5.537   2.974 -0.3799 -0.2842  0.2705
   12MOL   C247 3789   1.910   5.644   2.893 -0.0570  0.0948 -0.1288
   12MOL   C248 3790   1.877   5.489   3.080  1.0778  0.2543 -0.1200
   12MOL   H249 3791   2.220   5.171   2.893 -2.4663  0.3603  2.0815
   12MOL   H250 3792   2.302   5.320   2.854 -0.0289  0.2862 -2.1707
   12MOL   H251 3793   2.036   5.298   2.989  0.8763 -1.3897  0.4059
   12MOL   H252 3794   1.957   5.741   2.911  0.3848  0.0057 -0.7978
   12MOL   H253 3795   1.905   5.618   2.788 -0.5411 -0.0321 -0.0762
   12MOL   H254 3796   1.804   5.660   2.915 -0.2632  0.1990 -1.1949
   12MOL   H255 3797   1.814   5.571   3.113 -1.8426 -1.5270 -1.0797
   12MOL   H256 3798   1.941   5.434   3.150 -0.0632 -2.6913 -1.3024
   12MOL   H257 3799   1.806   5.428   3.025  1.7142 -0.6315  0.0329
   12MOL   C258 3800   2.210   5.342   3.115 -0.1346  0.3583 -0.2595
   12MOL   C259 3801   2.355   5.397   3.121  0.3044 -0.5014  1.0633
   12MOL   C260 3802   2.443   5.305   3.204 -0.4246 -0.1605 -0.4873
   12MOL   O261 3803   2.411   5.290   3.317  0.5960 -0.1864  0.2007
   12MOL   N262 3804   2.553   5.240   3.149  0.3013 -0.1714 -0.4763
   12MOL   C263 3805   2.634   5.158   3.235  0.2460 -0.0907 -0.2914
   12MOL   C264 3806   2.595   5.252   3.011 -0.1280  0.0094 -0.1651
   12MOL   H265 3807   2.157   5.393   3.195  0.0011 -1.2524  0.8905
   12MOL   H266 3808   2.202   5.238   3.146 -1.1345  0.4446 -0.2172
   12MOL   H267 3809   2.403   5.409   3.024 -1.2507 -3.0909 -0.0784
   12MOL   H268 3810   2.696   5.224   3.295 -1.9429  1.8798 -0.1413
   12MOL   H269 3811   2.572   5.102   3.305 -0.1955  0.9266  0.1314
   12MOL   H270 3812   2.694   5.085   3.180 -0.6579 -0.3633 -0.9176
   12MOL   H271 3813   2.595   5.355   2.978  3.3726  0.5722  1.3869
   12MOL   H272 3814   2.527   5.198   2.945 -1.0592 -0.5464  1.2248
   12MOL   H273 3815   2.697   5.215   2.998 -1.5721 -3.8335 -1.3040
   12MOL   C274 3816   2.344   5.532   3.185 -0.0043  0.7777 -0.8862
   12MOL   C275 3817   2.474   5.614   3.193  0.6533 -0.8156  0.2952
   12MOL   C276 3818   2.514   5.630   3.340 -0.2957  0.4002 -0.2397
   12MOL   O277 3819   2.433   5.685   3.413  0.1270  0.0955 -0.7804
   12MOL   N278 3820   2.633   5.581   3.385  0.6926  0.0595 -1.5428
   12MOL   C279 3821   2.749   5.562   3.295 -0.2970  0.8613 -0.0006
   12MOL   C280 3822   2.660   5.552   3.531  0.0157 -0.1558 -0.0607
   12MOL   H281 3823   2.264   5.591   3.140 -1.1716  1.2581  1.7134
   12MOL   H282 3824   2.301   5.519   3.285  0.9997 -0.2274 -0.5811
   12MOL   H283 3825   2.549   5.546   3.151  1.3001 -1.7258  2.8019
   12MOL   H284 3826   2.829   5.523   3.359 -1.3795  1.2206  1.6085
   12MOL   H285 3827   2.730   5.478   3.229  2.2416  0.4465 -0.2694
   12MOL   H286 3828   2.779   5.639   3.224  0.7761 -0.6053 -1.1720
   12MOL   H287 3829   2.603   5.619   3.595  0.0614 -0.6351  0.4765
   12MOL   H288 3830   2.761   5.584   3.556  0.1276 -1.0704  0.6578
   12MOL   H289 3831   2.637   5.449   3.558 -2.8095  0.5987  0.5712
   12MOL   C290 3832   2.463   5.750   3.129 -0.0696 -0.7380  0.3166
   12MOL   C291 3833   2.483   5.760   2.966 -0.3147 -0.1366  0.1384
   12MOL   C292 3834   2.629   5.729   2.927  0.7247  0.6927  0.8324
   12MOL   O293 3835   2.719   5.807   2.953 -0.4220 -0.3769  0.1361
   12MOL   N294 3836   2.663   5.618   2.859  0.0180  0.4570 -0.8403
   12MOL   C295 3837   2.567   5.542   2.782 -0.2219 -0.2604  0.4510
   12MOL   C296 3838   2.799   5.572   2.858 -0.8266  0.1932 -0.2791
   12MOL   H297 3839   2.370   5.805   3.144 -1.8294 -3.7420  0.8318
   12MOL   H298 3840   2.538   5.820   3.167 -0.0681 -1.0547  0.9029
   12MOL   H299 3841   2.409   5.689   2.928 -1.1519 -0.3571  2.1293
   12MOL   H300 3842   2.617   5.453   2.744  2.9982  1.8595 -0.4578
   12MOL   H301 3843   2.491   5.505   2.851 -0.1767  0.4244  0.8722
   12MOL   H302 3844   2.521   5.603   2.705  1.2910 -0.1746 -0.4056
   12MOL   H303 3845   2.872   5.650   2.838  0.4162 -0.7917  0.3372
   12MOL   H304 3846   2.818   5.504   2.775  1.7663  2.3261 -1.4948
   12MOL   H305 3847   2.819   5.532   2.957 -2.1254  1.9209  0.6986
   12MOL   C306 3848   2.431   5.906   2.924  0.1162  0.1542 -0.0199
   12MOL   C307 3849   2.452   5.951   2.778  0.4048  0.0246 -0.2203
   12MOL   C308 3850   2.343   5.887   2.686  0.4900 -0.4261 -0.0184
   12MOL   O309 3851   2.374   5.793   2.614  0.2451  0.4066  0.5311
   12MOL   N310 3852   2.216   5.936   2.687 -0.1614  0.2267 -0.1260
   12MOL   C311 3853   2.170   6.055   2.756 -0.1077 -0.1374  0.3770
   12MOL   C312 3854   2.128   5.896   2.586 -0.1753 -0.2151  0.8329
   12MOL   H313 3855   2.327   5.929   2.946 -0.5113 -0.2616 -2.3575
   12MOL   H314 3856   2.491   5.976   2.981  0.9250 -0.0271 -0.6328
   12MOL   H315 3857   2.448   6.060   2.778 -3.5611 -0.0432 -0.3642
   12MOL   H316 3858   2.138   6.022   2.854  3.1894 -0.7327  1.3082
   12MOL   H317 3859   2.239   6.138   2.775  1.5321 -1.0769 -1.1861
   12MOL   H318 3860   2.080   6.100   2.715  0.4082 -0.3952 -1.0906
   12MOL   H319 3861   2.140   5.958   2.497 -3.1808  0.1846  0.6471
   12MOL   H320 3862   2.023   5.913   2.609 -0.7662 -2.3275 -0.1138
   12MOL   H321 3863   2.143   5.793   2.552  1.7464 -1.0736  4.1184
   12MOL   H322 3864   2.554   5.926   2.750  0.5946 -1.6178  1.7684
   13MOL     C1 3865   5.198   1.677   3.016  0.6745 -0.1715  0.4157
   13MOL     C2 3866   5.328   1.600   3.042  0.0117  0.6907 -0.0459
   13MOL     C3 3867   5.315   1.447   2.998  0.5169  0.2357  0.4255
   13MOL     O4 3868   5.244   1.370   3.073 -0.1586 -0.4199  0.0459
   13MOL     N5 3869   5.379   1.408   2.887 -0.0170  0.8227 -0.2327
   13MOL     C6 3870   5.446   1.494   2.786  0.9126 -0.2656  0.6687
   13MOL     C7 3871   5.397   1.262   2.864 -0.1453  0.2400  0.7558
   13MOL     H8 3872   5.187   1.720   2.916 -0.4640 -1.0376  0.1668
   13MOL     H9 3873   5.175   1.768   3.071 -1.3508 -0.8315  0.6930
   13MOL    H10 3874   5.398   1.647   2.972  0.5598 -0.1926 -0.1024
   13MOL    H11 3875   5.373   1.572   2.768 -1.4859 -3.1967 -3.3267
   13MOL    H12 3876   5.548   1.527   2.805  2.2587 -2.4776 -2.2301
   13MOL    H13 3877   5.457   1.453   2.685  0.7501  2.7528 -0.6099
   13MOL    H14 3878   5.305   1.215   2.829 -0.6425  0.0599  2.2802
   13MOL    H15 3879   5.435   1.210   2.953  0.2717 -0.7272  0.0270
   13MOL    H16 3880   5.475   1.238   2.791  0.3952 -1.3860  1.8133
   13MOL    H17 3881   5.111   1.618   3.044 -0.0695  0.7034 -0.0100
   13MOL    C18 3882   5.375   1.614   3.191  0.9497  0.4458 -0.1039
   13MOL    C19 3883   5.515   1.552   3.216  0.2909 -0.6253 -0.2612
   13MOL    C20 3884   5.506   1.407   3.273  0.0614  1.1652 -0.9329
   13MOL    O21 3885   5.432   1.387   3.369 -0.0822  0.0800 -0.0921
   13MOL    N22 3886   5.571   1.301   3.225 -0.2116  0.4139  0.9495
   13MOL    C23 3887   5.672   1.311   3.132  0.0523 -0.0535  0.1424
   13MOL    C24 3888   5.544   1.165   3.279 -0.1611 -0.1116  0.3067
   13MOL    H25 3889   5.366   1.719   3.220  2.7488  0.5777  0.0025
   13MOL    H26 3890   5.301   1.566   3.255  3.6242 -0.9864  2.0108
   13MOL    H27 3891   5.563   1.546   3.118 -0.2817  0.7942 -0.6492
   13MOL    H28 3892   5.638   1.359   3.040  0.5206 -1.6991 -0.9127
   13MOL    H29 3893   5.750   1.380   3.163 -0.4327  1.4598 -1.9057
   13MOL    H30 3894   5.725   1.221   3.102 -0.0522  0.1839 -0.7777
   13MOL    H31 3895   5.586   1.155   3.379  1.1845  0.8775 -0.1530
   13MOL    H32 3896   5.592   1.085   3.223 -1.5154 -0.9965  0.3767
   13MOL    H33 3897   5.438   1.141   3.265 -0.6476 -0.0203  3.5057
   13MOL    C34 3898   5.602   1.644   3.299  0.2435  0.1354 -0.5155
   13MOL    C35 3899   5.613   1.790   3.263 -1.0818  0.1648  0.9440
   13MOL    C36 3900   5.648   1.806   3.118  0.1594 -0.5907 -0.2937
   13MOL    O37 3901   5.735   1.730   3.077 -0.4342  0.2387 -0.6704
   13MOL    N38 3902   5.582   1.884   3.031 -0.1196 -0.5847 -0.2854
   13MOL    C39 3903   5.474   1.976   3.069 -0.0800 -0.0889  0.5938
   13MOL    C40 3904   5.608   1.867   2.893  0.0443 -0.1837  0.1824
   13MOL    H41 3905   5.557   1.639   3.399 -0.2090 -0.0550 -0.7239
   13MOL    H42 3906   5.701   1.602   3.313 -0.8101 -1.8351  1.4359
   13MOL    H43 3907   5.525   1.846   3.294 -0.9894  0.1970  1.1545
   13MOL    H44 3908   5.388   1.911   3.081  0.6009 -1.4587 -1.5533
   13MOL    H45 3909   5.495   2.019   3.167  0.0916 -1.7473  1.3031
   13MOL    H46 3910   5.462   2.059   2.998  1.5441 -0.9845 -0.7935
   13MOL    H47 3911   5.702   1.918   2.869  0.3547 -1.5196 -1.5009
   13MOL    H48 3912   5.533   1.920   2.834  2.3494  3.4795  0.3532
   13MOL    H49 3913   5.618   1.765   2.856 -0.5152  0.8196 -2.8463
   13MOL    C50 3914   5.727   1.859   3.345 -0.1512 -0.3707  0.3415
   13MOL    C51 3915   5.747   2.010   3.339 -0.2469  0.6677 -0.2280
   13MOL    C52 3916   5.904   2.038   3.342  0.4769  0.1047 -0.0434
   13MOL    O53 3917   5.957   2.014   3.448 -0.1249  0.7234  0.0155
   13MOL    N54 3918   5.971   2.075   3.230 -0.0853  0.8210 -0.3761
   13MOL    C55 3919   5.911   2.090   3.098  0.1288  1.1068  0.8094
   13MOL    C56 3920   6.120   2.077   3.241  0.6656  0.5547 -0.3607
   13MOL    H57 3921   5.709   1.848   3.452 -2.4744  0.8752  0.1137
   13MOL    H58 3922   5.820   1.807   3.323  0.3215  0.0835  1.2213
   13MOL    H59 3923   5.712   2.034   3.239 -0.9173  0.1268 -0.1267
   13MOL    H60 3924   5.869   1.994   3.068  2.6232 -0.2733  1.5060
   13MOL    H61 3925   5.852   2.179   3.080  0.0315  1.1187  1.1773
   13MOL    H62 3926   5.990   2.109   3.025  0.6116 -1.9783  0.4494
   13MOL    H63 3927   6.166   1.980   3.223  0.4853  0.5809 -0.9655
   13MOL    H64 3928   6.156   2.122   3.333 -0.6702  0.2712  0.3055
   13MOL    H65 3929   6.176   2.147   3.178  0.7454  0.9598  0.1574
   13MOL    C66 3930   5.664   2.087   3.451 -0.0958  0.3013  0.9229
   13MOL    C67 3931   5.630   2.234   3.442 -0.1093  0.1613 -0.4697
   13MOL    C68 3932   5.550   2.271   3.316 -0.5686 -0.1867  0.9108
   13MOL    O69 3933   5.609   2.281   3.211  0.3015  0.0770  0.2842
   13MOL    N70 3934   5.419   2.298   3.316  0.9521 -0.1757 -0.5230
   13MOL    C71 3935   5.322   2.269   3.428  0.2761  0.1364  0.7183
   13MOL    C72 3936   5.353   2.328   3.190  0.3121  0.0610  0.3173
   13MOL    H73 3937   5.567   2.038   3.447 -0.0873  0.3757 -0.8630
   13MOL    H74 3938   5.697   2.079   3.554 -2.0043 -2.2513  1.3781
   13MOL    H75 3939   5.570   2.257   3.530  0.1424 -0.2546 -0.1913
   13MOL    H76 3940   5.308   2.161   3.427  2.9433 -0.2355 -0.2292
   13MOL    H77 3941   5.361   2.299   3.525  0.6820  0.3807  0.4802
   13MOL    H78 3942   5.222   2.308   3.406 -0.3345 -2.4060 -1.2994
   13MOL    H79 3943   5.248   2.360   3.195 -0.1591 -1.2000 -1.0644
   13MOL    H80 3944   5.354   2.239   3.127 -0.4338  0.5679 -0.4283
   13MOL    H81 3945   5.405   2.407   3.137  0.7804 -0.8030 -0.5339
   13MOL    C82 3946   5.745   2.335   3.444 -0.4599 -0.0712 -0.1361
   13MOL    C83 3947   5.835   2.332   3.567  0.1412  0.0451  0.1860
   13MOL    C84 3948   5.762   2.362   3.698  0.0020  0.2949 -0.5205
   13MOL    O85 3949   5.711   2.475   3.710 -0.0524  0.3003 -0.2083
   13MOL    N86 3950   5.763   2.277   3.801  0.0817  0.1879 -0.6680
   13MOL    C87 3951   5.813   2.142   3.801 -0.2743  0.5992  0.2622
   13MOL    C88 3952   5.667   2.299   3.920  0.1694 -0.0285  0.0600
   13MOL    H89 3953   5.809   2.320   3.357 -0.5730 -2.8661  0.2180
   13MOL    H90 3954   5.704   2.436   3.436 -1.0378 -0.1442  1.7116
   13MOL    H91 3955   5.884   2.235   3.560 -1.7165 -0.9310  0.5116
   13MOL    H92 3956   5.855   2.115   3.898  0.6181 -2.4116 -0.9038
   13MOL    H93 3957   5.730   2.072   3.802  0.9801 -0.9249  1.7421
   13MOL    H94 3958   5.886   2.112   3.725  0.6732  1.4037  0.8338
   13MOL    H95 3959   5.687   2.395   3.968 -2.2079  0.1409  0.7670
   13MOL    H96 3960   5.666   2.228   4.002 -1.0363  0.0479  0.1243
   13MOL    H97 3961   5.563   2.281   3.892  0.4374 -2.8271  0.7179
   13MOL    C98 3962   5.941   2.451   3.545 -0.0123  0.0752  0.1604
   13MOL    C99 3963   6.074   2.443   3.622 -0.1338 -0.2744 -0.1180
   13MOL   C100 3964   6.156   2.570   3.604 -0.3569 -0.6631 -0.4463
   13MOL   O101 3965   6.244   2.577   3.520 -0.4608  0.0591  0.3938
   13MOL   N102 3966   6.122   2.675   3.683 -0.5671  0.0478 -0.2646
   13MOL   C103 3967   6.195   2.804   3.671 -0.2254  0.6036 -0.2562
   13MOL   C104 3968   6.006   2.679   3.776 -0.1360  0.5552  0.6120
   13MOL   H105 3969   5.974   2.449   3.441 -1.1851 -3.3723 -0.2129
   13MOL   H106 3970   5.884   2.543   3.557 -1.3975 -0.6876 -0.3720
   13MOL   H107 3971   6.043   2.433   3.726  0.3818 -0.1341  0.0520
   13MOL   H108 3972   6.280   2.806   3.603  0.8915  0.4535  1.0925
   13MOL   H109 3973   6.121   2.880   3.644 -0.6984  1.0249  2.0673
   13MOL   H110 3974   6.226   2.817   3.775 -0.0966 -1.4581 -0.0211
   13MOL   H111 3975   6.013   2.774   3.830  1.7492  0.5500  0.4231
   13MOL   H112 3976   6.022   2.603   3.852  0.6343  1.2105  1.1236
   13MOL   H113 3977   5.914   2.667   3.719  1.4800 -2.2852 -1.4870
   13MOL   C114 3978   6.160   2.318   3.592  0.1607  0.0456 -0.0512
   13MOL   C115 3979   6.251   2.252   3.694 -0.3714 -0.3404  0.0276
   13MOL   C116 3980   6.171   2.211   3.825 -0.1377  0.4996  0.7143
   13MOL   O117 3981   6.149   2.295   3.907  0.3199 -0.9509  0.4854
   13MOL   N118 3982   6.142   2.081   3.855  0.0477 -0.6896  0.3490
   13MOL   C119 3983   6.135   2.034   3.991  0.1424  0.0260 -0.3206
   13MOL   C120 3984   6.134   1.982   3.754 -0.1801  0.5347 -0.6250
   13MOL   H121 3985   6.100   2.243   3.541  0.7650 -0.5832  0.1636
   13MOL   H122 3986   6.221   2.345   3.505  0.4650 -2.7772 -0.7773
   13MOL   H123 3987   6.289   2.164   3.643 -2.5050 -1.2922  0.0077
   13MOL   H124 3988   6.030   2.009   4.002  0.1559  0.2217  0.2999
   13MOL   H125 3989   6.188   1.943   4.019  0.5218  0.2724 -0.2348
   13MOL   H126 3990   6.152   2.117   4.060  0.2306 -1.1777  1.1381
   13MOL   H127 3991   6.059   1.908   3.778 -0.0918  1.1177  1.4958
   13MOL   H128 3992   6.235   1.942   3.758  0.2069  1.4738 -0.7139
   13MOL   H129 3993   6.099   2.019   3.657 -0.0523 -3.0622 -2.1265
   13MOL   C130 3994   6.374   2.325   3.738 -0.2678  0.1399 -0.3809
   13MOL   C131 3995   6.488   2.336   3.632  0.4667 -0.1088 -0.1389
   13MOL   C132 3996   6.540   2.190   3.615 -0.4031 -0.8095  0.2496
   13MOL   O133 3997   6.587   2.142   3.718 -0.6618 -0.1502 -0.0798
   13MOL   N134 3998   6.541   2.121   3.496 -0.6008  0.1476 -0.2671
   13MOL   C135 3999   6.480   2.172   3.379  0.2263 -0.0992  0.0948
   13MOL   C136 4000   6.611   1.994   3.480 -0.6728  0.2419 -0.0978
   13MOL   H137 4001   6.349   2.424   3.778 -2.4289 -0.4027 -0.3500
   13MOL   H138 4002   6.414   2.278   3.828  1.9202 -2.0615 -2.4354
   13MOL   H139 4003   6.429   2.379   3.551 -2.8425 -1.7555  1.3149
   13MOL   H140 4004   6.505   2.278   3.372  0.4891 -0.2725 -2.0358
   13MOL   H141 4005   6.521   2.119   3.293  0.0029 -3.1651  1.8047
   13MOL   H142 4006   6.373   2.152   3.389  0.3860 -0.4234  1.2556
   13MOL   H143 4007   6.591   1.938   3.388 -0.3839  0.2082 -0.1401
   13MOL   H144 4008   6.587   1.922   3.559  0.7192 -0.5594 -0.3914
   13MOL   H145 4009   6.716   2.022   3.472 -0.8420  0.4369 -1.8786
   13MOL   C146 4010   6.606   2.426   3.684  0.2957 -0.4842 -0.4971
   13MOL   C147 4011   6.717   2.475   3.582 -0.1630  0.0939  0.2185
   13MOL   C148 4012   6.657   2.576   3.473  0.1180  0.0315 -0.2435
   13MOL   O149 4013   6.623   2.521   3.365 -0.2267 -0.2926 -0.3588
   13MOL   N150 4014   6.660   2.710   3.488  0.2411 -0.5556  0.2037
   13MOL   C151 4015   6.667   2.778   3.612 -1.0093 -0.3863 -0.9068
   13MOL   C152 4016   6.607   2.800   3.380  0.4366 -0.0039 -0.5397
   13MOL   H153 4017   6.551   2.514   3.716  0.4993 -0.2439 -0.7956
   13MOL   H154 4018   6.654   2.402   3.779  0.2176  0.1761 -0.2847
   13MOL   H155 4019   6.785   2.535   3.643 -0.3495  2.3638 -1.7523
   13MOL   H156 4020   6.582   2.844   3.631 -0.0205  0.7437 -0.3171
   13MOL   H157 4021   6.694   2.713   3.694  1.7262 -0.0369 -1.4939
   13MOL   H158 4022   6.747   2.851   3.609 -2.5216  1.3617  0.1761
   13MOL   H159 4023   6.617   2.908   3.391 -0.8698 -0.0440  1.1326
   13MOL   H160 4024   6.500   2.786   3.368  0.4712  0.5550 -1.6158
   13MOL   H161 4025   6.657   2.796   3.283  4.7685  3.3014  1.3537
   13MOL   C162 4026   6.796   2.366   3.519 -1.0841 -0.3633  0.6559
   13MOL   C163 4027   6.927   2.418   3.449  0.4857 -0.6029  0.0836
   13MOL   C164 4028   6.968   2.313   3.348  0.0512  0.0241 -0.1943
   13MOL   O165 4029   6.985   2.196   3.387  0.0548  0.1547  0.0906
   13MOL   N166 4030   6.967   2.343   3.216 -0.6509 -0.4032  0.1385
   13MOL   C167 4031   6.980   2.236   3.115  0.5906 -0.0638  0.2474
   13MOL   C168 4032   6.979   2.480   3.172  0.1412 -0.5291 -0.9656
   13MOL   H169 4033   6.834   2.301   3.598  1.3699  0.2474  0.0440
   13MOL   H170 4034   6.737   2.305   3.451 -1.2721  1.3222 -0.7049
   13MOL   H171 4035   6.890   2.509   3.403 -1.5146 -0.7288  1.3864
   13MOL   H172 4036   6.986   2.280   3.015  0.4147  0.6435  0.5450
   13MOL   H173 4037   7.081   2.198   3.128  0.3172 -0.6116  0.7376
   13MOL   H174 4038   6.909   2.153   3.114 -0.2485  0.6374  0.7445
   13MOL   H175 4039   7.050   2.466   3.091  0.2009 -2.5122 -0.6101
   13MOL   H176 4040   7.027   2.552   3.237  1.3163 -1.0663 -1.2345
   13MOL   H177 4041   6.880   2.505   3.135 -0.3640 -1.6824 -0.4243
   13MOL   C178 4042   7.044   2.445   3.551  0.5602 -0.0939  0.1910
   13MOL   C179 4043   7.136   2.578   3.525  0.0023  0.5622 -0.1063
   13MOL   C180 4044   7.266   2.569   3.624  0.1767  0.1594  0.5164
   13MOL   O181 4045   7.258   2.633   3.725  0.0159 -0.0939  0.3103
   13MOL   N182 4046   7.371   2.498   3.583 -1.0975  0.0736 -0.4181
   13MOL   C183 4047   7.491   2.484   3.671  0.7700  0.1976 -0.0933
   13MOL   C184 4048   7.400   2.445   3.444  0.0264  0.4594  0.2360
   13MOL   H185 4049   6.999   2.456   3.649 -0.3678 -1.9707  0.0080
   13MOL   H186 4050   7.099   2.351   3.559  0.0326 -0.2192  2.6212
   13MOL   H187 4051   7.176   2.561   3.425 -0.5178  1.9697 -0.5675
   13MOL   H188 4052   7.579   2.471   3.608  1.4833 -1.5839  1.1973
   13MOL   H189 4053   7.511   2.579   3.720  0.4395  1.2963 -2.0747
   13MOL   H190 4054   7.484   2.405   3.746  4.0123  1.0066  1.1234
   13MOL   H191 4055   7.485   2.377   3.443 -0.3418 -0.0102 -1.5929
   13MOL   H192 4056   7.432   2.527   3.379  0.0231 -0.0572 -0.4192
   13MOL   H193 4057   7.314   2.396   3.400 -2.3266  2.9387  1.9383
   13MOL   C194 4058   7.059   2.709   3.526 -0.0743  0.2026 -0.4418
   13MOL   C195 4059   7.117   2.835   3.448 -0.6043 -0.0447 -1.0720
   13MOL   C196 4060   7.192   2.808   3.322 -1.0685  0.4673 -0.3202
   13MOL   O197 4061   7.304   2.753   3.342 -0.6973 -0.2053 -0.3009
   13MOL   N198 4062   7.140   2.819   3.198  0.3415 -0.1482 -0.8918
   13MOL   C199 4063   7.191   2.759   3.075  0.5629  0.1444  0.2168
   13MOL   C200 4064   7.015   2.884   3.174  0.4110 -0.4018 -0.2142
   13MOL   H201 4065   6.962   2.702   3.478 -1.5158  1.5660  2.1531
   13MOL   H202 4066   7.033   2.742   3.627 -0.4588  0.5793 -0.6578
   13MOL   H203 4067   7.033   2.899   3.421 -0.5303  0.8109  0.6861
   13MOL   H204 4068   7.226   2.841   3.012  0.3885 -0.3557 -0.5421
   13MOL   H205 4069   7.277   2.694   3.088  1.2413  0.3011 -3.1395
   13MOL   H206 4070   7.127   2.689   3.020 -0.1876 -0.3496  1.6801
   13MOL   H207 4071   6.977   2.878   3.073 -1.2585  0.6798  0.3371
   13MOL   H208 4072   7.011   2.987   3.210  1.4853  0.2743 -1.9555
   13MOL   H209 4073   6.948   2.825   3.236 -2.3130  1.4890 -1.2993
   13MOL   C210 4074   7.199   2.916   3.556  0.5459 -0.1548  0.2534
   13MOL   C211 4075   7.105   3.029   3.629 -0.0746 -0.0565 -0.0219
   13MOL   C212 4076   7.057   3.136   3.528  0.7031  0.2778 -1.2027
   13MOL   O213 4077   7.143   3.192   3.459  0.1221 -0.0581  0.4538
   13MOL   N214 4078   6.928   3.167   3.518  0.1312  0.0850 -0.4556
   13MOL   C215 4079   6.814   3.141   3.614  0.2138  0.4129 -0.7042
   13MOL   C216 4080   6.890   3.278   3.428 -0.4466 -0.1137  0.2982
   13MOL   H217 4081   7.244   2.855   3.634  2.9604 -0.2178 -1.1408
   13MOL   H218 4082   7.287   2.963   3.512 -0.5922  0.6743 -1.1771
   13MOL   H219 4083   7.017   2.969   3.654 -0.0567 -0.3528 -0.6441
   13MOL   H220 4084   6.837   3.063   3.686  1.2209 -1.2859 -2.8087
   13MOL   H221 4085   6.793   3.234   3.666  0.9998 -0.2823  0.8697
   13MOL   H222 4086   6.721   3.106   3.568  0.1626  1.1694 -1.1989
   13MOL   H223 4087   6.963   3.285   3.348  0.6141 -1.3774  1.1406
   13MOL   H224 4088   6.875   3.369   3.486 -1.5293  0.3211 -0.6414
   13MOL   H225 4089   6.792   3.250   3.388 -0.5963  0.3041  0.3729
   13MOL   C226 4090   7.157   3.096   3.757  0.1014  0.1965 -0.2965
   13MOL   C227 4091   7.176   2.994   3.881  0.3800 -0.2994 -0.2051
   13MOL   C228 4092   7.038   2.944   3.934  0.1257  0.6959  0.5959
   13MOL   O229 4093   6.941   3.020   3.923 -0.4853  0.2292  0.4981
   13MOL   N230 4094   7.018   2.812   3.967 -0.7580 -0.3717  0.1776
   13MOL   C231 4095   6.880   2.757   3.977 -0.1978  0.4595  0.0979
   13MOL   C232 4096   7.123   2.718   4.009  0.1348  0.6041  0.8801
   13MOL   H233 4097   7.248   3.153   3.745  0.1252  0.5996  1.7047
   13MOL   H234 4098   7.081   3.172   3.778  0.3928 -0.1781  2.2874
   13MOL   H235 4099   7.232   2.907   3.847 -0.0720 -1.0251  0.8888
   13MOL   H236 4100   6.822   2.820   4.044  1.1011  3.1258 -1.2136
   13MOL   H237 4101   6.822   2.747   3.886 -2.1049  2.8399  0.9970
   13MOL   H238 4102   6.870   2.653   4.011 -0.9604  0.0007 -1.4879
   13MOL   H239 4103   7.108   2.666   4.104 -0.8526  0.1942  0.5050
   13MOL   H240 4104   7.212   2.779   4.021 -0.1886  1.0332  1.0858
   13MOL   H241 4105   7.132   2.645   3.929 -0.6843 -1.0820  2.2855
   13MOL   C242 4106   7.245   3.070   4.001 -0.1923 -0.5151 -0.3694
   13MOL   C243 4107   7.403   3.080   3.995  0.5282  0.9667 -0.2177
   13MOL   C244 4108   7.463   2.946   4.038 -0.1584 -0.9308 -0.3586
   13MOL   O245 4109   7.455   2.914   4.155 -0.1971  0.1954 -0.4033
   13MOL   N246 4110   7.526   2.867   3.942 -0.2162 -0.0720  0.4746
   13MOL   C247 4111   7.580   2.741   3.994  0.0161 -0.4509  0.0981
   13MOL   C248 4112   7.530   2.893   3.795 -0.4792  0.6561  0.0984
   13MOL   H249 4113   7.205   3.171   4.009  2.3561  0.6035 -1.3366
   13MOL   H250 4114   7.214   3.027   4.096  0.9081  1.6551  1.0355
   13MOL   H251 4115   7.423   3.095   3.889 -1.6914  0.0920 -0.7834
   13MOL   H252 4116   7.670   2.757   4.053 -0.0800  0.3717  0.0183
   13MOL   H253 4117   7.497   2.695   4.048  0.7437  0.1463  1.7561
   13MOL   H254 4118   7.606   2.674   3.912  0.0358 -0.5601  0.1936
   13MOL   H255 4119   7.439   2.933   3.750 -0.4290  0.6679  0.0076
   13MOL   H256 4120   7.567   2.800   3.752 -4.1424  0.4413 -2.8252
   13MOL   H257 4121   7.601   2.969   3.764  0.9483 -0.9122 -0.5095
   13MOL   C258 4122   7.464   3.195   4.084 -0.2175  0.5657  0.7824
   13MOL   C259 4123   7.433   3.337   4.023 -0.1593 -0.1924  0.1718
   13MOL   C260 4124   7.493   3.364   3.876  0.0169 -0.5558 -0.8478
   13MOL   O261 4125   7.600   3.302   3.849 -0.0878 -0.8786  0.0500
   13MOL   N262 4126   7.423   3.434   3.784  0.1708 -0.4722  0.1560
   13MOL   C263 4127   7.305   3.516   3.811 -0.1867 -0.0091 -0.2751
   13MOL   C264 4128   7.456   3.438   3.642  0.4822 -0.6535 -0.3808
   13MOL   H265 4129   7.423   3.178   4.184  0.1451 -3.1679  0.3791
   13MOL   H266 4130   7.570   3.177   4.103 -0.2540 -0.5259 -0.0089
   13MOL   H267 4131   7.324   3.337   4.015 -0.0954  0.9819 -0.8309
   13MOL   H268 4132   7.257   3.569   3.729  0.5648  0.5034 -0.3900
   13MOL   H269 4133   7.228   3.453   3.856  0.8182 -0.0559  1.4210
   13MOL   H270 4134   7.357   3.590   3.872 -1.5151  2.5199 -2.1300
   13MOL   H271 4135   7.559   3.402   3.636  1.2867  0.9220  2.7583
   13MOL   H272 4136   7.454   3.533   3.589  2.1406 -0.6635 -0.5027
   13MOL   H273 4137   7.402   3.363   3.586  0.6484 -0.5887 -0.6278
   13MOL   C274 4138   7.479   3.460   4.114 -0.1809  0.2364 -0.1973
   13MOL   C275 4139   7.443   3.466   4.259 -0.3969 -0.3684  0.6217
   13MOL   C276 4140   7.294   3.434   4.284 -0.6464 -0.3931 -0.0784
   13MOL   O277 4141   7.207   3.478   4.209  0.1959  0.6581 -0.0366
   13MOL   N278 4142   7.262   3.349   4.385 -0.3352 -0.0045 -0.7026
   13MOL   C279 4143   7.352   3.299   4.490  0.3099  0.0666 -0.4570
   13MOL   C280 4144   7.119   3.326   4.402 -0.0162  0.4217  0.3005
   13MOL   H281 4145   7.586   3.440   4.113 -0.0580  0.8654 -0.7298
   13MOL   H282 4146   7.459   3.558   4.069 -0.8634  0.3340  0.3219
   13MOL   H283 4147   7.500   3.397   4.321  0.7756 -1.0875 -1.2009
   13MOL   H284 4148   7.293   3.286   4.580 -1.4714  0.5969 -1.5221
   13MOL   H285 4149   7.394   3.202   4.464 -3.2297 -1.2268 -1.6399
   13MOL   H286 4150   7.433   3.365   4.521 -2.7645  3.5702  0.4407
   13MOL   H287 4151   7.076   3.269   4.320  4.0009  0.2698 -1.8038
   13MOL   H288 4152   7.071   3.422   4.426 -0.1036 -0.1480  2.5768
   13MOL   H289 4153   7.106   3.267   4.493 -2.9507 -0.7106 -0.7903
   13MOL   C290 4154   7.488   3.611   4.314  0.3726 -0.6778  0.3120
   13MOL   C291 4155   7.641   3.621   4.334 -0.1139 -0.7533  0.2588
   13MOL   C292 4156   7.667   3.572   4.478 -0.1234 -0.2769 -1.1057
   13MOL   O293 4157   7.629   3.648   4.566  0.3000  0.0348 -0.0289
   13MOL   N294 4158   7.714   3.449   4.506  1.0827 -0.2639 -0.3907
   13MOL   C295 4159   7.775   3.366   4.406  0.6446 -0.8706  1.0133
   13MOL   C296 4160   7.726   3.400   4.641  0.1846  0.0889  0.2267
   13MOL   H297 4161   7.463   3.687   4.241  2.0853 -0.5112 -0.1171
   13MOL   H298 4162   7.432   3.636   4.405 -2.7682  1.9048 -2.2047
   13MOL   H299 4163   7.690   3.563   4.256  1.4477  0.2120  0.5155
   13MOL   H300 4164   7.771   3.258   4.423  1.0014 -1.2444 -1.1060
   13MOL   H301 4165   7.730   3.378   4.307 -1.2681 -4.1808  1.3978
   13MOL   H302 4166   0.024   3.401   4.402  0.8846 -1.6020  0.7454
   13MOL   H303 4167   7.776   3.303   4.643  0.5903  0.3168  1.6446
   13MOL   H304 4168   7.633   3.390   4.697  0.6975 -0.2954  1.0273
   13MOL   H305 4169   7.794   3.460   4.702  0.0081  0.0469  0.4667
   13MOL   C306 4170   7.693   3.764   4.308  0.7519  0.1372  0.1797
   13MOL   C307 4171   7.848   3.775   4.282 -0.1515  0.1669  0.1858
   13MOL   C308 4172   0.067   3.819   4.405 -0.4263  0.3976 -0.2623
   13MOL   O309 4173   0.118   3.741   4.484 -0.0944 -0.0638  0.1079
   13MOL   N310 4174   0.086   3.952   4.422 -0.3584 -1.0036 -0.1217
   13MOL   C311 4175   7.845   4.052   4.356 -0.1880 -0.4336 -0.6054
   13MOL   C312 4176   0.161   4.011   4.534  0.0411 -0.5509 -0.5642
   13MOL   H313 4177   7.627   3.807   4.233  0.2355 -1.4600 -0.3030
   13MOL   H314 4178   7.681   3.832   4.392 -0.1064 -0.7656  0.8098
   13MOL   H315 4179   0.030   3.677   4.248 -1.4206 -0.4643  0.6499
   13MOL   H316 4180   7.846   4.146   4.412 -1.4784  1.3307 -3.4167
   13MOL   H317 4181   0.037   4.070   4.258  1.4744  1.1917  0.4337
   13MOL   H318 4182   7.744   4.023   4.329  0.3525  0.4785 -3.9071
   13MOL   H319 4183   0.187   4.116   4.520  3.4304 -1.3690 -0.8756
   13MOL   H320 4184   0.259   3.965   4.541  0.7404  1.2120  1.5756
   13MOL   H321 4185   0.110   3.994   4.628 -0.4702  1.6303 -0.4129
   13MOL   H322 4186   0.020   3.841   4.199 -1.4438 -0.6122 -0.8571
   14MOL     C1 4187   7.704   5.194   3.059 -0.7887  0.6774  0.3350
   14MOL     C2 4188   7.793   5.296   2.998  0.8409  0.4126 -0.1575
   14MOL     C3 4189   7.792   5.431   3.082 -0.0929 -0.1728 -0.2719
   14MOL     O4 4190   7.692   5.500   3.088 -0.1947  0.4795 -0.2479
   14MOL     N5 4191   0.057   5.471   3.128  0.3415 -0.3431  0.4425
   14MOL     C6 4192   0.163   5.384   3.175 -0.6829 -0.5401 -0.2470
   14MOL     C7 4193   0.077   5.610   3.161  0.1889  0.5412 -0.6076
   14MOL     H8 4194   7.598   5.217   3.051 -1.2375  0.4756  4.7443
   14MOL     H9 4195   7.718   5.194   3.167 -2.2185 -0.4174  0.5320
   14MOL    H10 4196   0.041   5.258   3.012  1.1395  1.3956  0.4135
   14MOL    H11 4197   0.207   5.428   3.265  1.2357 -3.1200  0.1113
   14MOL    H12 4198   0.137   5.284   3.210  0.3467 -0.9256 -0.5811
   14MOL    H13 4199   0.242   5.354   3.107  0.3328 -0.1192  0.7352
   14MOL    H14 4200   0.046   5.678   3.082 -0.2392  1.1150  0.0454
   14MOL    H15 4201   0.183   5.637   3.168  0.5957 -1.3077  0.8487
   14MOL    H16 4202   0.018   5.629   3.251  1.8295 -0.5628  0.7478
   14MOL    H17 4203   7.722   5.095   3.015  1.4614  1.2319 -0.0738
   14MOL    C18 4204   7.768   5.325   2.846  0.3428 -0.0305  0.0122
   14MOL    C19 4205   0.002   5.430   2.775  0.0453 -0.3172  0.7707
   14MOL    C20 4206   7.800   5.443   2.629  0.1989 -0.0475 -0.0087
   14MOL    O21 4207   7.843   5.364   2.543 -0.1679  0.0134 -0.0132
   14MOL    N22 4208   7.716   5.547   2.599  0.0835 -0.0334  0.2387
   14MOL    C23 4209   7.661   5.552   2.464  0.0239 -0.7443 -0.3913
   14MOL    C24 4210   7.632   5.618   2.701 -0.0937 -0.4597 -0.0229
   14MOL    H25 4211   7.778   5.226   2.801  0.1621 -0.1582  0.2499
   14MOL    H26 4212   7.662   5.351   2.842  0.3055 -0.0766  0.6379
   14MOL    H27 4213   7.839   5.524   2.827  1.0996  0.4814 -0.2984
   14MOL    H28 4214   7.618   5.648   2.437  0.2044 -0.8097 -0.9216
   14MOL    H29 4215   7.752   5.543   2.403 -0.5768 -4.1423 -0.9162
   14MOL    H30 4216   7.585   5.477   2.443 -2.0700  0.4822  2.5172
   14MOL    H31 4217   7.572   5.547   2.757  0.7757 -0.0648  1.4358
   14MOL    H32 4218   7.569   5.697   2.661  0.5739 -1.3939 -3.0040
   14MOL    H33 4219   7.700   5.670   2.769 -1.2638 -0.3770  1.0986
   14MOL    C34 4220   0.148   5.389   2.781 -0.1472 -0.5137  0.1437
   14MOL    C35 4221   0.264   5.483   2.754  0.3232 -0.1809  0.5153
   14MOL    C36 4222   0.400   5.414   2.772  0.0935 -1.0155  0.4181
   14MOL    O37 4223   0.437   5.403   2.887 -0.1415  0.5919 -0.1196
   14MOL    N38 4224   0.461   5.357   2.659 -0.0591 -0.1223 -0.6722
   14MOL    C39 4225   0.585   5.271   2.688  0.5911 -0.2474 -0.2497
   14MOL    C40 4226   0.405   5.343   2.529 -0.6638 -0.3493  1.0722
   14MOL    H41 4227   0.180   5.356   2.880  1.3456  0.4250 -0.0176
   14MOL    H42 4228   0.173   5.295   2.732 -0.2154 -1.1155  1.2617
   14MOL    H43 4229   0.259   5.520   2.652 -0.7660  1.6511  1.2068
   14MOL    H44 4230   0.631   5.318   2.775 -0.3774  0.6145 -0.1839
   14MOL    H45 4231   0.571   5.165   2.707  1.3844  0.1849  2.9484
   14MOL    H46 4232   0.659   5.284   2.609  2.4993  1.0935  1.6988
   14MOL    H47 4233   0.434   5.428   2.466  1.2184 -1.4922  0.3885
   14MOL    H48 4234   0.298   5.321   2.529 -0.7088 -0.3142 -1.0114
   14MOL    H49 4235   0.444   5.254   2.480  0.2603  0.9309 -0.5754
   14MOL    C50 4236   0.266   5.618   2.835  0.3563 -0.8006 -0.3707
   14MOL    C51 4237   0.386   5.719   2.826  0.2997  0.1146  0.6500
   14MOL    C52 4238   0.368   5.833   2.927 -0.3769 -0.2246  0.2671
   14MOL    O53 4239   0.288   5.921   2.907 -0.5597  0.1570 -0.2769
   14MOL    N54 4240   0.458   5.849   3.033 -0.1285 -0.8012  0.3659
   14MOL    C55 4241   0.479   5.979   3.093  0.2315 -0.0965 -0.5267
   14MOL    C56 4242   0.554   5.744   3.081 -0.1061 -0.0360 -0.1467
   14MOL    H57 4243   0.182   5.675   2.797  1.1846  0.8732  0.2643
   14MOL    H58 4244   0.235   5.583   2.933 -0.3514  0.7987 -0.0157
   14MOL    H59 4245   0.480   5.664   2.828 -0.2034 -0.7307  1.0803
   14MOL    H60 4246   0.584   5.988   3.120  0.0136 -0.3001  0.4158
   14MOL    H61 4247   0.460   6.063   3.026  0.6488 -0.7297 -1.4595
   14MOL    H62 4248   0.422   5.993   3.185  1.1734 -1.4801  0.2866
   14MOL    H63 4249   0.508   5.646   3.095  3.4527 -2.2527 -3.0645
   14MOL    H64 4250   0.602   5.773   3.175 -1.4733  3.1493 -0.3774
   14MOL    H65 4251   0.631   5.731   3.005 -0.3893  1.4172 -0.6857
   14MOL    C66 4252   0.389   5.789   2.687 -0.0392 -0.1717 -0.5166
   14MOL    C67 4253   0.527   5.857   2.647 -0.9248  0.2279 -0.0697
   14MOL    C68 4254   0.638   5.749   2.646 -0.0932 -0.9493 -0.0170
   14MOL    O69 4255   0.708   5.733   2.748 -0.7153 -0.7743 -0.1323
   14MOL    N70 4256   0.672   5.674   2.537  0.0915 -0.2801  0.1853
   14MOL    C71 4257   0.787   5.581   2.544 -0.5288  0.3197 -0.2025
   14MOL    C72 4258   0.609   5.686   2.401 -0.7850  1.0104 -0.1693
   14MOL    H73 4259   0.367   5.722   2.605 -1.3269  1.7063 -1.7636
   14MOL    H74 4260   0.310   5.864   2.676  2.3430  2.7665  1.3213
   14MOL    H75 4261   0.512   5.877   2.541 -1.7287 -0.5773 -0.1048
   14MOL    H76 4262   0.873   5.647   2.536  1.9052 -2.6196  0.5031
   14MOL    H77 4263   0.791   5.521   2.636 -0.7051 -1.0025 -1.0453
   14MOL    H78 4264   0.806   5.508   2.466 -1.1730  0.6742 -0.6922
   14MOL    H79 4265   0.634   5.610   2.327 -1.2350  0.1490  0.5533
   14MOL    H80 4266   0.647   5.776   2.352 -0.3985  1.9869  1.8894
   14MOL    H81 4267   0.501   5.683   2.411 -0.7324 -0.3878  0.0951
   14MOL    C82 4268   0.562   5.992   2.716 -0.0581  0.1133  0.9473
   14MOL    C83 4269   0.658   6.085   2.632  0.2819  0.1096  0.3485
   14MOL    C84 4270   0.808   6.067   2.683 -0.1797 -0.6263 -1.0531
   14MOL    O85 4271   0.837   6.120   2.790  0.1657 -0.0319  0.4866
   14MOL    N86 4272   0.905   6.005   2.612  0.2835 -0.1207 -0.1524
   14MOL    C87 4273   0.884   5.969   2.472  0.3279 -0.5712  0.6438
   14MOL    C88 4274   1.036   5.964   2.666  0.3186  0.0041 -0.1285
   14MOL    H89 4275   0.466   6.041   2.733 -0.9383 -0.3542 -2.3781
   14MOL    H90 4276   0.607   5.960   2.810  0.0113 -0.2238  0.7974
   14MOL    H91 4277   0.642   6.052   2.530 -1.2623  0.1748  0.5556
   14MOL    H92 4278   0.820   5.881   2.459  0.9423 -0.7028 -1.7000
   14MOL    H93 4279   0.855   6.058   2.416  0.1357  0.3904  2.2422
   14MOL    H94 4280   0.973   5.936   2.417  0.1559  1.0122 -0.6176
   14MOL    H95 4281   1.016   5.894   2.747  1.1512  0.8680  0.8412
   14MOL    H96 4282   1.081   6.048   2.720 -1.2804 -0.0869  1.4100
   14MOL    H97 4283   1.109   5.924   2.597 -0.3772  1.3451 -1.6666
   14MOL    C98 4284   0.616   6.228   2.627  0.0150 -0.2887  0.2730
   14MOL    C99 4285   0.695   6.313   2.522 -1.0503 -0.0429  0.1938
   14MOL   C100 4286   0.676   6.461   2.556 -0.2784  0.5096 -0.1575
   14MOL   O101 4287   0.567   6.502   2.590 -0.1854  0.1220 -0.4433
   14MOL   N102 4288   0.778   6.545   2.538 -0.3390 -0.5544 -0.1523
   14MOL   C103 4289   0.756   6.693   2.556 -0.2013 -0.0769  0.5233
   14MOL   C104 4290   0.920   6.514   2.524  0.2766  0.2438 -0.2706
   14MOL   H105 4291   0.509   6.239   2.614  0.1708  1.8861  0.6569
   14MOL   H106 4292   0.632   6.267   2.727  1.2233 -0.3488  0.1147
   14MOL   H107 4293   0.801   6.287   2.532 -1.4869 -2.1053 -0.2880
   14MOL   H108 4294   0.785   6.759   2.474 -0.5983 -1.3728 -0.6762
   14MOL   H109 4295   0.653   6.728   2.563  0.0388  0.5595  0.9314
   14MOL   H110 4296   0.804   6.728   2.647  0.1320  0.2378  0.2283
   14MOL   H111 4297   0.960   6.477   2.618 -0.8071 -0.1672  0.0420
   14MOL   H112 4298   0.986   6.590   2.483  0.1482 -0.6977 -2.2856
   14MOL   H113 4299   0.934   6.435   2.450  2.5243  1.1248 -0.7895
   14MOL   C114 4300   0.648   6.285   2.374 -0.0603 -0.4916  0.5445
   14MOL   C115 4301   0.506   6.317   2.328 -0.5373  0.1926  0.3771
   14MOL   C116 4302   0.397   6.211   2.367 -0.0070 -0.3944  0.1015
   14MOL   O117 4303   0.430   6.091   2.378  0.3187  0.5994 -0.2588
   14MOL   N118 4304   0.272   6.258   2.385  0.0922 -0.3800  0.0515
   14MOL   C119 4305   0.168   6.162   2.417 -0.3302 -0.3099 -0.2988
   14MOL   C120 4306   0.232   6.396   2.411 -0.6385 -0.6621 -0.7501
   14MOL   H121 4307   0.718   6.335   2.307 -2.0526  1.1986 -0.3378
   14MOL   H122 4308   0.674   6.181   2.355  3.1042  0.1499  1.0952
   14MOL   H123 4309   0.485   6.411   2.379 -1.7396 -0.7525  1.6651
   14MOL   H124 4310   0.166   6.079   2.347 -1.1287 -0.5522  0.0065
   14MOL   H125 4311   0.187   6.127   2.519  3.0291  0.0347 -0.7622
   14MOL   H126 4312   0.066   6.200   2.415 -1.6104 -3.5415 -0.3059
   14MOL   H127 4313   0.135   6.411   2.457 -1.8886 -1.5915 -2.9872
   14MOL   H128 4314   0.241   6.462   2.324 -0.5432  1.0267  0.5246
   14MOL   H129 4315   0.306   6.446   2.474 -2.0601  0.8733 -0.2776
   14MOL   C130 4316   0.484   6.326   2.178  1.0621  0.7184 -0.1021
   14MOL   C131 4317   0.531   6.467   2.127 -0.2455  0.3687 -0.1625
   14MOL   C132 4318   0.411   6.564   2.133  0.3893 -0.4284  0.1602
   14MOL   O133 4319   0.327   6.544   2.051  0.0690 -0.1126  0.2934
   14MOL   N134 4320   0.400   6.668   2.219  0.3942 -0.0242  0.3943
   14MOL   C135 4321   0.283   6.749   2.229  0.3488 -0.3544 -0.2970
   14MOL   C136 4322   0.513   6.735   2.284  1.3159  0.0971 -0.0177
   14MOL   H137 4323   0.550   6.248   2.139  3.2991  1.5393  1.9514
   14MOL   H138 4324   0.382   6.314   2.142  0.2328 -0.0304  2.4500
   14MOL   H139 4325   0.609   6.500   2.196 -0.0691 -1.1263  0.3812
   14MOL   H140 4326   0.198   6.681   2.232  0.1788 -0.0813  1.5130
   14MOL   H141 4327   0.280   6.808   2.320 -2.9578  0.0025 -0.5629
   14MOL   H142 4328   0.271   6.817   2.145  1.6535  0.1675 -0.0681
   14MOL   H143 4329   0.533   6.673   2.372  1.5312  1.2161  0.7330
   14MOL   H144 4330   0.496   6.836   2.322  3.5305  0.5856 -0.2641
   14MOL   H145 4331   0.600   6.737   2.219  1.3146  1.4836  0.0107
   14MOL   C146 4332   0.587   6.462   1.987  0.6895 -0.4671 -0.3080
   14MOL   C147 4333   0.686   6.577   1.953  0.4281 -0.2064  0.5303
   14MOL   C148 4334   0.701   6.583   1.801 -0.3621  0.0859 -0.0424
   14MOL   O149 4335   0.781   6.512   1.741 -0.5032 -0.5142 -0.4462
   14MOL   N150 4336   0.626   6.672   1.723  0.7989 -0.3236 -0.3183
   14MOL   C151 4337   0.515   6.753   1.775  0.0892  0.7206 -0.3100
   14MOL   C152 4338   0.626   6.663   1.579 -0.4839  0.3810  0.2374
   14MOL   H153 4339   0.645   6.373   1.965 -1.1231 -2.2338  1.8053
   14MOL   H154 4340   0.515   6.457   1.906 -1.1484  0.9913  1.1697
   14MOL   H155 4341   0.648   6.675   1.981 -0.3721 -0.4647  0.3827
   14MOL   H156 4342   0.458   6.805   1.697  2.0081  1.2813 -1.3660
   14MOL   H157 4343   0.458   6.676   1.826 -1.4607  1.7836 -0.3961
   14MOL   H158 4344   0.557   6.820   1.850 -0.1824  0.3179  0.2059
   14MOL   H159 4345   0.664   6.565   1.548 -2.9254  0.3613 -2.9145
   14MOL   H160 4346   0.690   6.738   1.533 -0.8801  1.7171  1.8588
   14MOL   H161 4347   0.526   6.666   1.537 -0.2311  3.2869 -0.2241
   14MOL   C162 4348   0.808   6.572   2.041 -0.3843  0.0105  0.1463
   14MOL   C163 4349   0.956   6.618   2.003 -0.6078  0.6933 -0.0068
   14MOL   C164 4350   1.054   6.570   2.120  0.5097  0.3743  0.1494
   14MOL   O165 4351   1.040   6.628   2.226 -0.5644  0.3705  1.0545
   14MOL   N166 4352   1.137   6.468   2.112 -0.2305  0.4725  0.7057
   14MOL   C167 4353   1.231   6.437   2.225  0.4916 -0.2801 -0.2195
   14MOL   C168 4354   1.153   6.381   2.002  0.2139  0.9459  0.3212
   14MOL   H169 4355   0.785   6.632   2.129  2.0582 -0.3966  1.1064
   14MOL   H170 4356   0.818   6.473   2.086  0.1763  0.5140  1.1515
   14MOL   H171 4357   0.986   6.581   1.905 -4.2641 -1.6203 -0.3307
   14MOL   H172 4358   1.275   6.535   2.242  0.2181 -0.3209  0.7709
   14MOL   H173 4359   1.197   6.381   2.312 -1.0340 -1.7343 -1.7238
   14MOL   H174 4360   1.317   6.381   2.188 -0.9544 -1.7980 -1.3872
   14MOL   H175 4361   1.185   6.281   2.030 -1.2010 -0.2646 -2.2502
   14MOL   H176 4362   1.219   6.429   1.930 -1.1001  0.3175 -1.3473
   14MOL   H177 4363   1.062   6.370   1.942  0.2515 -3.2106  0.8768
   14MOL   C178 4364   0.956   6.772   1.993 -0.5660 -0.0161 -0.1209
   14MOL   C179 4365   1.083   6.830   1.922  0.2234  0.0639 -0.0598
   14MOL   C180 4366   1.135   6.956   1.992 -0.0732  0.8014 -0.7159
   14MOL   O181 4367   1.069   7.065   1.988 -0.1838  0.9662 -0.6597
   14MOL   N182 4368   1.261   6.944   2.051 -0.2039 -0.0042  0.7292
   14MOL   C183 4369   1.328   7.052   2.123  0.6181 -0.3783 -0.1814
   14MOL   C184 4370   1.328   6.813   2.077 -1.2035 -0.2855  0.1168
   14MOL   H185 4371   0.860   6.800   1.950  0.7618 -0.3493 -3.5003
   14MOL   H186 4372   0.952   6.822   2.090  1.0805 -1.8332  0.9082
   14MOL   H187 4373   1.159   6.752   1.924 -0.3064 -0.4614  0.1696
   14MOL   H188 4374   1.309   7.146   2.070 -0.7012 -0.2975  0.4307
   14MOL   H189 4375   1.294   7.058   2.226  0.2065  0.8102 -0.3711
   14MOL   H190 4376   1.436   7.036   2.119  0.5322 -0.5764 -2.7955
   14MOL   H191 4377   1.425   6.833   2.123 -1.3322  2.9222 -0.9147
   14MOL   H192 4378   1.350   6.745   1.995 -1.6701 -0.7896  0.4108
   14MOL   H193 4379   1.253   6.761   2.138 -1.6917 -0.3892 -0.5718
   14MOL   C194 4380   1.044   6.843   1.776  0.1552 -0.7038  0.1657
   14MOL   C195 4381   1.146   6.868   1.660 -0.9873 -0.3501 -0.1293
   14MOL   C196 4382   1.224   6.742   1.639  0.2736 -1.0110 -0.3172
   14MOL   O197 4383   1.333   6.731   1.699 -0.2515  0.5039 -0.5135
   14MOL   N198 4384   1.175   6.648   1.560 -0.4311 -0.8068  0.1428
   14MOL   C199 4385   1.252   6.535   1.509 -0.1813 -0.4177 -0.5928
   14MOL   C200 4386   1.037   6.649   1.511 -0.5119 -0.6174  0.0382
   14MOL   H201 4387   0.983   6.759   1.744 -1.4489 -0.5956  2.8264
   14MOL   H202 4388   0.968   6.920   1.784  1.0325  0.1231  0.7011
   14MOL   H203 4389   1.086   6.896   1.573 -0.1153 -0.9460 -0.9288
   14MOL   H204 4390   1.333   6.569   1.443  0.2507 -1.4738 -0.6156
   14MOL   H205 4391   1.311   6.489   1.588 -0.6483 -2.5399 -1.4404
   14MOL   H206 4392   1.193   6.456   1.464 -1.4969 -0.1846  0.7039
   14MOL   H207 4393   0.992   6.745   1.486  1.0289  0.1470  0.1608
   14MOL   H208 4394   0.979   6.606   1.592 -0.1685 -0.0100  0.6041
   14MOL   H209 4395   1.028   6.597   1.415 -0.4834  0.7832 -0.7338
   14MOL   C210 4396   1.238   6.993   1.673 -0.3102  0.6112  0.4363
   14MOL   C211 4397   1.308   7.031   1.539  0.2088 -0.0219 -0.0601
   14MOL   C212 4398   1.403   7.153   1.563 -0.6005 -0.1173 -0.0270
   14MOL   O213 4399   1.353   7.261   1.566  0.7116 -0.4451 -0.2254
   14MOL   N214 4400   1.535   7.136   1.590 -0.4649  0.0345  0.3152
   14MOL   C215 4401   1.611   7.262   1.625  0.3401  0.3941  0.4726
   14MOL   C216 4402   1.611   7.010   1.581  0.3379  0.2912  0.2555
   14MOL   H217 4403   1.178   7.082   1.692 -0.2389  0.6448  0.5016
   14MOL   H218 4404   1.306   6.983   1.757 -1.6582 -2.7992  1.1942
   14MOL   H219 4405   1.376   6.947   1.525 -1.3813 -1.1752 -0.9538
   14MOL   H220 4406   1.621   7.326   1.538 -0.2594 -0.4617 -0.2319
   14MOL   H221 4407   1.551   7.315   1.699  0.2992 -1.0738  1.5116
   14MOL   H222 4408   1.710   7.243   1.667  0.6911 -0.3523 -0.6912
   14MOL   H223 4409   1.572   6.927   1.639  3.2056 -0.4618  1.1827
   14MOL   H224 4410   1.719   7.019   1.595  0.2769  1.4266  0.0373
   14MOL   H225 4411   1.601   6.960   1.484  1.9910  1.8534 -0.7532
   14MOL   C226 4412   1.213   7.044   1.420  0.6584  0.3286 -0.0536
   14MOL   C227 4413   1.265   7.108   1.292 -0.2864 -0.2556 -0.3391
   14MOL   C228 4414   1.145   7.118   1.193  0.2938  0.4404  0.1481
   14MOL   O229 4415   1.083   7.014   1.164  0.3402 -0.2016 -0.0217
   14MOL   N230 4416   1.120   7.245   1.143 -0.1828 -0.1369 -0.2238
   14MOL   C231 4417   1.194   7.369   1.172  0.0260  0.0911 -0.0853
   14MOL   C232 4418   1.015   7.265   1.044 -0.6053 -0.3203 -0.4193
   14MOL   H233 4419   1.193   6.943   1.385  1.9975 -0.1585  0.5475
   14MOL   H234 4420   1.124   7.092   1.460  1.8490  1.5585  1.2167
   14MOL   H235 4421   1.292   7.208   1.325 -1.9466  0.2868 -0.6188
   14MOL   H236 4422   1.165   7.389   1.275 -2.4477 -2.1588 -0.2768
   14MOL   H237 4423   1.302   7.361   1.163  0.0618  1.3851 -0.9530
   14MOL   H238 4424   1.176   7.462   1.117 -2.0954 -1.3010 -1.8579
   14MOL   H239 4425   0.996   7.184   0.974  0.6620 -0.5834 -0.4717
   14MOL   H240 4426   1.037   7.357   0.990 -0.7793 -0.3129 -0.4781
   14MOL   H241 4427   0.923   7.284   1.101 -0.6287  0.3840 -0.6941
   14MOL   C242 4428   1.385   7.028   1.229 -0.0744 -0.5751 -0.1989
   14MOL   C243 4429   1.456   7.102   1.115 -0.6890 -0.5919  0.7751
   14MOL   C244 4430   1.512   6.995   1.014  0.1615 -0.7467 -0.3240
   14MOL   O245 4431   1.627   6.959   1.044 -0.2906  0.1757  0.1298
   14MOL   N246 4432   1.445   6.957   0.903 -0.7553  0.4959  0.0886
   14MOL   C247 4433   1.307   6.995   0.869 -0.3287 -0.0030  0.0652
   14MOL   C248 4434   1.502   6.852   0.812 -0.0161  0.2428  0.2589
   14MOL   H249 4435   1.474   6.998   1.283  0.5032  0.0305 -0.8006
   14MOL   H250 4436   1.347   6.929   1.204  2.5395 -1.7641  0.3604
   14MOL   H251 4437   1.377   7.143   1.052  0.2874 -0.5315 -0.4391
   14MOL   H252 4438   1.237   6.976   0.950  1.9309 -0.9345  1.8807
   14MOL   H253 4439   1.314   7.101   0.845 -0.5577 -0.3198 -1.4793
   14MOL   H254 4440   1.272   6.946   0.778  0.6817  1.8646 -1.3626
   14MOL   H255 4441   1.583   6.883   0.747  1.2872  0.2525  1.8472
   14MOL   H256 4442   1.428   6.794   0.756  0.1236 -1.3194  1.6318
   14MOL   H257 4443   1.536   6.777   0.884 -0.0032  0.1680  0.1744
   14MOL   C258 4444   1.561   7.216   1.153  0.0387 -0.1043 -0.0514
   14MOL   C259 4445   1.632   7.284   1.033 -0.0393  0.1781 -0.4412
   14MOL   C260 4446   1.757   7.360   1.078  0.3469 -0.0566  0.6108
   14MOL   O261 4447   1.741   7.457   1.153  0.4067  0.1947  0.1974
   14MOL   N262 4448   1.878   7.320   1.038  0.5464  0.6010 -0.3047
   14MOL   C263 4449   1.907   7.190   0.980 -0.3259  0.7311  0.6232
   14MOL   C264 4450   1.995   7.404   1.057 -0.2233 -0.1221 -0.5028
   14MOL   H265 4451   1.510   7.295   1.210  2.4084  2.4158 -1.3346
   14MOL   H266 4452   1.625   7.175   1.231  0.3163 -0.6922 -0.5847
   14MOL   H267 4453   1.662   7.205   0.965 -0.2034 -0.2324 -0.0442
   14MOL   H268 4454   1.848   7.109   1.022  0.8943 -0.7580 -0.5278
   14MOL   H269 4455   1.887   7.197   0.873  1.3951  0.6728  0.2785
   14MOL   H270 4456   2.011   7.164   1.000 -0.4808 -2.1246 -1.9584
   14MOL   H271 4457   2.074   7.376   1.127 -0.5519  0.2483  0.0193
   14MOL   H272 4458   1.969   7.498   1.106  1.6772 -0.1975  0.6913
   14MOL   H273 4459   2.041   7.445   0.967  1.3163 -0.3502  0.1604
   14MOL   C274 4460   1.528   7.371   0.959  0.4050 -0.3742 -0.2147
   14MOL   C275 4461   1.562   7.416   0.810  0.8282 -0.0048  0.1791
   14MOL   C276 4462   1.441   7.499   0.754  0.8032  0.0470 -0.0649
   14MOL   O277 4463   1.336   7.437   0.741  0.2893 -0.7206  0.0637
   14MOL   N278 4464   1.451   7.629   0.717  0.8443 -0.2068 -0.1189
   14MOL   C279 4465   1.346   7.696   0.634 -0.3710 -0.3429 -0.9640
   14MOL   C280 4466   1.558   7.719   0.758 -0.2271 -0.0004  0.5747
   14MOL   H281 4467   1.429   7.326   0.951 -0.6836  1.8891  0.3152
   14MOL   H282 4468   1.510   7.459   1.021 -4.2663  0.3670 -2.3709
   14MOL   H283 4469   1.650   7.480   0.809  0.7805  0.0498 -1.1751
   14MOL   H284 4470   1.273   7.626   0.595 -1.6560  1.1327 -1.2769
   14MOL   H285 4471   1.286   7.756   0.704  1.1999  0.7524 -0.5287
   14MOL   H286 4472   1.388   7.750   0.549  1.2556  1.0199  0.6689
   14MOL   H287 4473   1.550   7.742   0.865  3.1716  1.1529  0.6475
   14MOL   H288 4474   1.552   7.817   0.712 -2.1610 -0.6261 -0.5428
   14MOL   H289 4475   1.656   7.679   0.734  0.1192  1.9099 -1.3069
   14MOL   C290 4476   1.601   7.294   0.720  0.1264  0.3490 -0.2690
   14MOL   C291 4477   1.614   7.319   0.566  0.6509  0.6199 -0.4356
   14MOL   C292 4478   1.594   7.181   0.489  0.5298  0.1329 -1.1261
   14MOL   O293 4479   1.682   7.097   0.500 -0.7991 -0.2772  0.1306
   14MOL   N294 4480   1.479   7.158   0.416 -0.1095  0.3995 -0.0222
   14MOL   C295 4481   1.378   7.261   0.387 -0.0459 -0.8239 -0.4146
   14MOL   C296 4482   1.458   7.035   0.341 -0.1976  0.0493 -0.0222
   14MOL   H297 4483   1.690   7.247   0.762 -0.4911 -1.8725 -1.3728
   14MOL   H298 4484   1.527   7.216   0.738  1.1110 -0.8747 -1.4517
   14MOL   H299 4485   1.528   7.380   0.540  0.6502  0.8525  0.1147
   14MOL   H300 4486   1.320   7.305   0.467 -1.5867 -0.7865 -1.5185
   14MOL   H301 4487   1.422   7.348   0.339  0.4406 -0.9488 -0.1964
   14MOL   H302 4488   1.291   7.232   0.327 -0.8185  0.7331 -0.0654
   14MOL   H303 4489   1.525   6.961   0.385 -2.1383  0.1449  3.2500
   14MOL   H304 4490   1.497   7.050   0.240  0.1314  0.7175  0.1986
   14MOL   H305 4491   1.358   6.993   0.332 -1.0301  1.7281  1.1044
   14MOL   C306 4492   1.744   7.393   0.539  0.3612 -0.4530  0.3329
   14MOL   C307 4493   1.759   7.424   0.388  0.7058 -0.1826 -0.4505
   14MOL   C308 4494   1.663   7.533   0.340  0.7584 -0.2212  0.1183
   14MOL   O309 4495   1.620   7.612   0.426 -0.7106  0.1711  0.4419
   14MOL   N310 4496   1.629   7.528   0.210  0.2855  0.1093 -0.0255
   14MOL   C311 4497   1.669   7.435   0.102 -0.2527 -0.2234 -0.0901
   14MOL   C312 4498   1.526   7.622   0.161  0.5526 -0.2124  0.3652
   14MOL   H313 4499   1.757   7.485   0.595  0.7049 -0.4609  0.2662
   14MOL   H314 4500   1.817   7.318   0.570  1.5392  0.7620  0.5461
   14MOL   H315 4501   1.858   7.469   0.376  1.8473 -1.2592  3.9855
   14MOL   H316 4502   1.778   7.428   0.106 -0.3948 -1.9753  1.3616
   14MOL   H317 4503   1.622   7.339   0.124 -0.8264 -0.0689 -0.6147
   14MOL   H318 4504   1.653   7.477   0.002  0.1535 -2.9547 -1.3455
   14MOL   H319 4505   1.454   7.560   0.107  1.3452 -3.4396  2.7981
   14MOL   H320 4506   1.549   7.699   0.088  0.2175 -0.5718 -0.1254
   14MOL   H321 4507   1.464   7.678   0.230 -1.2781  0.1833 -1.5363
   14MOL   H322 4508   1.769   7.339   0.321  4.2537 -0.5314  0.4041
   15MOL     C1 4509   3.932   3.400   3.912 -0.3311  0.7004  0.1078
   15MOL     C2 4510   4.048   3.379   3.822  0.7187 -0.3939 -0.5691
   15MOL     C3 4511   4.169   3.337   3.908 -0.4588 -0.4597 -0.3395
   15MOL     O4 4512   4.216   3.419   3.983 -0.4475 -0.0599  0.3231
   15MOL     N5 4513   4.222   3.210   3.898 -0.0502 -0.7340  0.4698
   15MOL     C6 4514   4.206   3.131   3.774 -0.3055  0.4110  0.5702
   15MOL     C7 4515   4.309   3.162   4.000  0.0241  0.3008 -0.2317
   15MOL     H8 4516   3.918   3.503   3.944 -0.0543  0.2448  1.6933
   15MOL     H9 4517   3.937   3.336   4.000 -2.8094  0.7616  0.3276
   15MOL    H10 4518   4.014   3.292   3.766  0.4774  1.0212 -2.7085
   15MOL    H11 4519   4.119   3.066   3.784 -0.2793  0.5980  2.0746
   15MOL    H12 4520   4.178   3.185   3.684  0.5705  1.4656  0.9324
   15MOL    H13 4521   4.281   3.053   3.761 -0.9745 -0.0977 -0.3649
   15MOL    H14 4522   4.408   3.136   3.962  0.0298  0.8254 -0.5826
   15MOL    H15 4523   4.274   3.065   4.035  1.5956 -0.7943 -1.6453
   15MOL    H16 4524   4.325   3.224   4.088 -0.5201  1.9110 -1.2425
   15MOL    H17 4525   3.841   3.366   3.862  0.3422  1.0877 -1.4144
   15MOL    C18 4526   4.085   3.508   3.738  0.5652  0.0109  0.1120
   15MOL    C19 4527   4.006   3.514   3.600 -0.5301 -0.1865 -0.0253
   15MOL    C20 4528   3.865   3.565   3.631 -0.4231 -0.0433  0.7323
   15MOL    O21 4529   3.769   3.485   3.653 -0.4948 -0.6973  0.3005
   15MOL    N22 4530   3.837   3.696   3.648 -0.3546  0.4952 -0.1594
   15MOL    C23 4531   3.703   3.730   3.710 -0.9611 -0.5172 -0.7313
   15MOL    C24 4532   3.916   3.804   3.597  0.0558 -0.3573  0.0192
   15MOL    H25 4533   4.068   3.604   3.787  1.2888 -0.1886  0.7554
   15MOL    H26 4534   4.193   3.503   3.728  0.5401  1.3701 -1.0650
   15MOL    H27 4535   4.056   3.595   3.546 -2.4403  0.8575 -0.2848
   15MOL    H28 4536   3.656   3.659   3.778  0.6887 -2.1666 -1.2525
   15MOL    H29 4537   3.697   3.829   3.754 -0.8661 -0.8168 -0.0459
   15MOL    H30 4538   3.636   3.743   3.624 -0.2635 -2.5854 -1.6319
   15MOL    H31 4539   4.015   3.812   3.641  0.1309  0.1084 -0.2304
   15MOL    H32 4540   3.865   3.900   3.604 -0.2942 -0.3528 -2.2251
   15MOL    H33 4541   3.933   3.784   3.491 -3.9877 -2.4600 -0.3137
   15MOL    C34 4542   4.013   3.385   3.516 -0.1070 -0.2597 -0.5156
   15MOL    C35 4543   4.003   3.410   3.362  0.2223  0.3557 -0.2153
   15MOL    C36 4544   3.970   3.285   3.285  0.0566 -0.3357 -0.6620
   15MOL    O37 4545   4.043   3.188   3.295 -0.4210 -0.1263 -0.1091
   15MOL    N38 4546   3.864   3.272   3.200 -0.1014 -0.4786  0.0088
   15MOL    C39 4547   3.779   3.389   3.159 -0.3352 -0.6414  0.3238
   15MOL    C40 4548   3.827   3.148   3.128  0.1817 -0.6067 -0.5669
   15MOL    H41 4549   4.105   3.331   3.537  0.9051  1.6564  0.1419
   15MOL    H42 4550   3.936   3.313   3.543  1.3252 -1.7797 -0.3860
   15MOL    H43 4551   3.917   3.475   3.345 -2.8988 -3.3174  1.1398
   15MOL    H44 4552   3.721   3.424   3.244 -0.0884  1.3295 -0.2926
   15MOL    H45 4553   3.850   3.465   3.124 -0.5425 -0.8612 -0.5926
   15MOL    H46 4554   3.713   3.377   3.073  0.1018 -1.7971  0.1401
   15MOL    H47 4555   3.765   3.167   3.040 -0.0401  1.8002  0.0748
   15MOL    H48 4556   3.770   3.094   3.203  1.2294  1.8784  2.0643
   15MOL    H49 4557   3.911   3.089   3.089  0.3512 -1.3920  0.9821
   15MOL    C50 4558   4.123   3.493   3.303  0.0923  0.2229  0.0129
   15MOL    C51 4559   4.266   3.437   3.302  0.5066  0.3818  0.6158
   15MOL    C52 4560   4.336   3.449   3.440 -0.1627  0.3102 -0.5519
   15MOL    O53 4561   4.337   3.563   3.493 -0.2139  0.2554 -0.2607
   15MOL    N54 4562   4.376   3.343   3.515 -0.1996  0.1185  0.0275
   15MOL    C55 4563   4.473   3.364   3.626 -0.2280  0.0418  0.1732
   15MOL    C56 4564   4.375   3.209   3.460 -0.6673 -0.2428 -0.1327
   15MOL    H57 4565   4.098   3.508   3.198  0.3831 -2.0962 -0.4203
   15MOL    H58 4566   4.108   3.597   3.334  0.3046  0.0972  0.5477
   15MOL    H59 4567   4.271   3.331   3.276 -0.1326  0.5629 -0.2910
   15MOL    H60 4568   4.579   3.354   3.604  0.1850  1.3125  1.5033
   15MOL    H61 4569   4.459   3.460   3.676 -1.5829  1.7480 -3.3270
   15MOL    H62 4570   4.459   3.287   3.703 -1.3549 -0.0357 -0.0967
   15MOL    H63 4571   4.274   3.170   3.448  0.0349 -1.8197 -0.9997
   15MOL    H64 4572   4.418   3.138   3.531  2.8423  1.0825 -0.7944
   15MOL    H65 4573   4.407   3.191   3.358 -0.1057 -2.3990  0.3876
   15MOL    C66 4574   4.348   3.521   3.204  1.0184 -0.2539  0.0623
   15MOL    C67 4575   4.497   3.472   3.178 -0.4662 -0.5498  0.0994
   15MOL    C68 4576   4.604   3.575   3.227  0.2716  0.6068 -0.2457
   15MOL    O69 4577   4.594   3.692   3.189 -0.7999  0.3197  0.5024
   15MOL    N70 4578   4.701   3.530   3.310 -0.2294 -1.0997  0.1288
   15MOL    C71 4579   4.731   3.392   3.344 -0.1824  0.8420 -0.5355
   15MOL    C72 4580   4.817   3.611   3.333 -1.1470 -1.2416 -0.2486
   15MOL    H73 4581   4.294   3.563   3.120 -0.9039  1.0120  1.8725
   15MOL    H74 4582   4.356   3.617   3.255 -0.3231 -0.7469  1.2380
   15MOL    H75 4583   4.503   3.375   3.228  0.8170 -0.3274  0.3768
   15MOL    H76 4584   4.754   3.329   3.257 -0.6152 -0.7531  0.4801
   15MOL    H77 4585   4.810   3.385   3.418  0.9585 -2.0554 -1.9150
   15MOL    H78 4586   4.649   3.342   3.396  1.1815  0.2563  1.0947
   15MOL    H79 4587   4.872   3.654   3.250  0.9014  0.4321  1.8941
   15MOL    H80 4588   4.890   3.568   3.401  0.4671 -1.6708 -2.2112
   15MOL    H81 4589   4.768   3.698   3.378  0.9350 -0.1668 -0.0003
   15MOL    C82 4590   4.525   3.446   3.023  0.4853  0.4749  0.3424
   15MOL    C83 4591   4.428   3.348   2.952  0.0567 -0.3434  0.2848
   15MOL    C84 4592   4.412   3.215   3.030 -0.0952  0.2264  0.5029
   15MOL    O85 4593   4.510   3.163   3.087  0.4650  0.4420  0.1999
   15MOL    N86 4594   4.298   3.157   3.033 -0.5663  0.3302  0.1102
   15MOL    C87 4595   4.174   3.201   2.968  0.2190  0.1095  0.5934
   15MOL    C88 4596   4.285   3.029   3.102 -0.3765  0.0608  0.2266
   15MOL    H89 4597   4.519   3.539   2.966  2.3153  0.5672  0.2683
   15MOL    H90 4598   4.629   3.419   3.006  0.5598  0.8146  0.2697
   15MOL    H91 4599   4.333   3.400   2.940 -0.0067 -1.2514 -4.0231
   15MOL    H92 4600   4.186   3.242   2.868  0.6347 -0.9823  0.1801
   15MOL    H93 4601   4.104   3.118   2.959 -0.5578  0.8043  0.1788
   15MOL    H94 4602   4.127   3.275   3.033  0.1680  2.0540 -1.6213
   15MOL    H95 4603   4.189   2.979   3.089  0.4311 -0.8793 -2.4380
   15MOL    H96 4604   4.294   3.039   3.210  1.7825  2.9380 -0.1646
   15MOL    H97 4605   4.366   2.964   3.068 -0.1764  0.5281 -0.1906
   15MOL    C98 4606   4.489   3.325   2.811 -0.6321 -0.6831 -0.2088
   15MOL    C99 4607   4.488   3.434   2.708  0.2607 -0.1346  0.4788
   15MOL   C100 4608   4.340   3.466   2.664 -0.3492 -0.2247  0.2330
   15MOL   O101 4609   4.281   3.380   2.600  0.1128 -0.2107 -0.6199
   15MOL   N102 4610   4.281   3.591   2.685 -0.5775  0.2559 -0.1091
   15MOL   C103 4611   4.339   3.692   2.768  0.3025  0.0920 -0.5114
   15MOL   C104 4612   4.142   3.609   2.642 -0.0421 -1.0491 -0.4327
   15MOL   H105 4613   4.589   3.291   2.838 -0.8984  0.2048  1.9842
   15MOL   H106 4614   4.419   3.251   2.772 -0.7632  0.5575 -2.4077
   15MOL   H107 4615   4.535   3.525   2.746  0.0926  0.7000 -1.2680
   15MOL   H108 4616   4.269   3.772   2.793  1.8729  1.1026  0.7541
   15MOL   H109 4617   4.368   3.655   2.866 -0.9739 -0.0583 -0.1820
   15MOL   H110 4618   4.426   3.735   2.717  0.5823  1.9915  1.4668
   15MOL   H111 4619   4.141   3.575   2.538  1.7573  0.5955 -1.0249
   15MOL   H112 4620   4.101   3.710   2.645  1.0799 -0.5900 -0.5438
   15MOL   H113 4621   4.084   3.539   2.702  1.0055  0.2514  2.1281
   15MOL   C114 4622   4.574   3.391   2.590  0.4816  0.4542 -0.3886
   15MOL   C115 4623   4.589   3.484   2.466 -0.3527 -0.4315  0.3152
   15MOL   C116 4624   4.613   3.391   2.350  0.3084  0.6153 -0.4583
   15MOL   O117 4625   4.709   3.315   2.348 -0.4499  0.3236 -0.0373
   15MOL   N118 4626   4.519   3.382   2.246  0.3254 -0.7100 -0.1999
   15MOL   C119 4627   4.393   3.451   2.242  0.0149 -0.1708  0.1251
   15MOL   C120 4628   4.532   3.264   2.154  0.3303 -0.0138  0.1915
   15MOL   H121 4629   4.672   3.355   2.621  0.0678  0.6268  1.1816
   15MOL   H122 4630   4.515   3.304   2.559 -0.9279  0.1438  2.8851
   15MOL   H123 4631   4.492   3.534   2.459 -0.8362 -0.9558  2.9479
   15MOL   H124 4632   4.335   3.411   2.325 -0.3462  0.0599 -0.0158
   15MOL   H125 4633   4.385   3.559   2.234 -3.1541 -0.4408 -1.1505
   15MOL   H126 4634   4.326   3.422   2.160  0.7000  0.2311 -0.5821
   15MOL   H127 4635   4.585   3.182   2.202 -0.7623  0.3657  2.0715
   15MOL   H128 4636   4.569   3.282   2.053  1.3324  2.6776  0.9952
   15MOL   H129 4637   4.436   3.217   2.135  1.4370 -2.3185  0.0862
   15MOL   C130 4638   4.706   3.585   2.482  0.2868 -0.1038 -0.3297
   15MOL   C131 4639   4.691   3.702   2.382  0.5422 -0.3067 -0.4098
   15MOL   C132 4640   4.821   3.730   2.305 -0.6486  0.1529  0.1112
   15MOL   O133 4641   4.927   3.764   2.366 -0.1731  0.0681 -0.1315
   15MOL   N134 4642   4.816   3.709   2.172 -0.2315 -0.3449  0.8489
   15MOL   C135 4643   4.902   3.781   2.082 -0.2823  0.4475  0.2760
   15MOL   C136 4644   4.720   3.628   2.100 -0.0473  0.2615 -0.0161
   15MOL   H137 4645   4.706   3.632   2.580 -1.1948  0.1883 -0.4536
   15MOL   H138 4646   4.801   3.533   2.467  0.4196  0.1820 -0.5017
   15MOL   H139 4647   4.609   3.675   2.315 -0.4947  0.9632  0.3206
   15MOL   H140 4648   4.967   3.708   2.033 -0.5539  0.4245 -0.0595
   15MOL   H141 4649   4.845   3.824   2.000  0.5327 -0.1623 -0.6299
   15MOL   H142 4650   4.959   3.864   2.123  2.3218 -1.9333  1.6399
   15MOL   H143 4651   4.713   3.526   2.140  2.0145  0.2117  0.2838
   15MOL   H144 4652   4.743   3.612   1.995 -1.3245  0.7446 -0.3764
   15MOL   H145 4653   4.627   3.682   2.085  0.5153  1.4385  0.6527
   15MOL   C146 4654   4.665   3.832   2.464  0.6987 -0.7898  0.1626
   15MOL   C147 4655   4.573   3.941   2.399 -0.1059  0.1670 -0.3127
   15MOL   C148 4656   4.427   3.891   2.380 -0.0708  0.0581 -0.8941
   15MOL   O149 4657   4.409   3.817   2.287 -0.2402  0.2269  0.0207
   15MOL   N150 4658   4.323   3.934   2.461 -0.5852 -0.2955 -0.3381
   15MOL   C151 4659   4.183   3.919   2.410  0.2272  0.3668  0.7015
   15MOL   C152 4660   4.340   4.017   2.579 -0.3675 -0.0404 -0.3022
   15MOL   H153 4661   4.603   3.805   2.549 -0.1299 -1.2686 -0.5813
   15MOL   H154 4662   4.752   3.878   2.510  1.7974 -1.4563 -1.2157
   15MOL   H155 4663   4.569   4.030   2.462 -0.5260  0.9132 -1.3636
   15MOL   H156 4664   4.163   3.944   2.306 -0.5309 -1.9942  0.2490
   15MOL   H157 4665   4.168   3.811   2.411  2.9330 -0.0970 -1.4629
   15MOL   H158 4666   4.115   3.975   2.475 -0.8037  0.4602 -0.4377
   15MOL   H159 4667   4.433   3.988   2.628 -1.3732 -2.3297  0.3050
   15MOL   H160 4668   4.266   3.981   2.651  1.5940  0.1951  1.9313
   15MOL   H161 4669   4.346   4.123   2.554  1.2858 -0.3028 -1.0968
   15MOL   C162 4670   4.636   4.002   2.268 -0.0873  0.8085 -0.0580
   15MOL   C163 4671   4.582   4.142   2.218  0.4970  0.2405 -0.3035
   15MOL   C164 4672   4.603   4.256   2.326 -0.3488 -0.5143  1.1217
   15MOL   O165 4673   4.516   4.265   2.410 -0.3562 -0.2142  0.9224
   15MOL   N166 4674   4.711   4.335   2.322 -0.8305  0.1286  0.5322
   15MOL   C167 4675   4.718   4.445   2.423  0.1311 -0.4559  0.0702
   15MOL   C168 4676   4.840   4.297   2.260  0.2583  0.3003  0.3795
   15MOL   H169 4677   4.744   4.003   2.286  0.2502 -0.2341 -1.8955
   15MOL   H170 4678   4.616   3.940   2.181 -1.0942 -0.3840  1.0035
   15MOL   H171 4679   4.636   4.170   2.129 -2.1455  0.8054 -1.7731
   15MOL   H172 4680   4.696   4.545   2.383 -0.4852 -0.6043  0.0307
   15MOL   H173 4681   4.655   4.433   2.511  1.9020 -3.8819  0.9219
   15MOL   H174 4682   4.821   4.449   2.458  1.3824  0.2229 -3.4105
   15MOL   H175 4683   4.817   4.298   2.154  0.8664 -0.2011  0.2444
   15MOL   H176 4684   4.856   4.189   2.266  1.9671  0.4242 -1.5113
   15MOL   H177 4685   4.921   4.360   2.298  1.3793 -0.3311 -0.9160
   15MOL   C178 4686   4.437   4.159   2.165  0.8409  0.0212 -0.1541
   15MOL   C179 4687   4.400   4.087   2.035 -0.4228  0.0080  0.0043
   15MOL   C180 4688   4.485   4.150   1.916  0.3358  0.3148  0.5477
   15MOL   O181 4689   4.455   4.262   1.881  0.5585  0.1093  0.4853
   15MOL   N182 4690   4.583   4.073   1.870  0.6996  0.2587 -0.0232
   15MOL   C183 4691   4.582   3.925   1.877  0.6392 -0.2266  0.3486
   15MOL   C184 4692   4.692   4.130   1.796  0.3216  0.0952 -0.0038
   15MOL   H185 4693   4.374   4.130   2.249  0.8572 -0.5040 -0.3245
   15MOL   H186 4694   4.435   4.266   2.142  1.5093 -0.0344 -0.4985
   15MOL   H187 4695   4.422   3.985   2.066  0.4086  0.8763  2.3791
   15MOL   H188 4696   4.615   3.886   1.974 -1.3534  0.7919  1.4582
   15MOL   H189 4697   4.480   3.887   1.876 -0.2434  2.0048  1.2109
   15MOL   H190 4698   4.628   3.872   1.794  1.9528 -1.1300  1.6243
   15MOL   H191 4699   4.771   4.062   1.764 -0.9054 -1.2700 -0.1178
   15MOL   H192 4700   4.743   4.199   1.863  1.3366 -1.7264  1.1372
   15MOL   H193 4701   4.658   4.184   1.707  1.4629  1.4324  0.3446
   15MOL   C194 4702   4.248   4.105   2.013  0.2450 -0.3465  0.2264
   15MOL   C195 4703   4.173   3.995   1.933  0.0276 -1.0154 -0.0247
   15MOL   C196 4704   4.180   3.850   1.999 -0.2435 -0.1278 -0.0972
   15MOL   O197 4705   4.279   3.783   1.993  0.0520  0.0194 -0.8718
   15MOL   N198 4706   4.073   3.811   2.078 -0.1700 -0.7044 -0.1528
   15MOL   C199 4707   4.078   3.682   2.145  0.0708 -0.1323 -0.5459
   15MOL   C200 4708   3.963   3.895   2.132  0.4618 -0.5458  0.3429
   15MOL   H201 4709   4.203   4.112   2.111 -0.6261 -2.1048 -0.0330
   15MOL   H202 4710   4.225   4.203   1.972  0.0941  0.3535  1.9563
   15MOL   H203 4711   4.073   4.037   1.935 -0.2463 -1.6389 -0.5651
   15MOL   H204 4712   4.133   3.693   2.239 -1.7569  0.3760  0.4909
   15MOL   H205 4713   3.974   3.656   2.164  0.7442 -0.7288  2.5496
   15MOL   H206 4714   4.129   3.604   2.089 -1.9949 -1.1517 -1.0202
   15MOL   H207 4715   3.999   3.995   2.154  1.2328 -0.4133 -1.4245
   15MOL   H208 4716   3.923   3.873   2.231 -1.1594 -0.0523 -0.1961
   15MOL   H209 4717   3.879   3.905   2.064  0.1637 -0.4836  0.7233
   15MOL   C210 4718   4.207   3.998   1.780 -0.5219  0.2157  0.0809
   15MOL   C211 4719   4.092   3.957   1.680 -0.3186 -0.7093  0.1577
   15MOL   C212 4720   3.984   4.071   1.690  0.4003  0.9281 -0.2574
   15MOL   O213 4721   3.894   4.057   1.780 -0.5467 -0.2015  0.0574
   15MOL   N214 4722   3.985   4.178   1.605  0.1752  0.5532 -0.3156
   15MOL   C215 4723   4.061   4.179   1.478 -0.3428 -0.4233 -0.3276
   15MOL   C216 4724   3.896   4.294   1.623 -0.0522  0.0773 -0.3744
   15MOL   H217 4725   4.241   4.098   1.752 -0.6914  0.1463 -0.3884
   15MOL   H218 4726   4.289   3.929   1.759 -0.5394  0.3225 -0.3562
   15MOL   H219 4727   4.136   3.960   1.580 -0.7475  2.1107  0.0051
   15MOL   H220 4728   4.062   4.076   1.443 -0.1081 -0.6820  0.4395
   15MOL   H221 4729   4.013   4.245   1.406 -1.1983  0.0769  0.6978
   15MOL   H222 4730   4.160   4.222   1.497 -1.1012  0.9527  0.5623
   15MOL   H223 4731   3.941   4.377   1.677 -0.1937  1.4579 -2.3221
   15MOL   H224 4732   3.808   4.260   1.677 -0.4590 -1.1441 -1.7617
   15MOL   H225 4733   3.858   4.333   1.528 -0.1388  2.2699  0.5546
   15MOL   C226 4734   4.049   3.813   1.693 -0.3385  0.6058  0.7604
   15MOL   C227 4735   3.955   3.761   1.581  0.2624 -0.6163 -0.2345
   15MOL   C228 4736   3.819   3.708   1.641 -0.1055  0.0688  0.6997
   15MOL   O229 4737   3.822   3.632   1.736 -0.2821 -0.4296  0.2832
   15MOL   N230 4738   3.704   3.743   1.582  0.0847 -1.2511  0.1674
   15MOL   C231 4739   3.569   3.708   1.615 -0.1387 -0.1724  0.0553
   15MOL   C232 4740   3.702   3.823   1.460  0.2311 -0.5168  0.4526
   15MOL   H233 4741   4.135   3.751   1.718  1.3928  2.3754 -0.6923
   15MOL   H234 4742   3.999   3.812   1.790 -0.7249  2.0661  0.5825
   15MOL   H235 4743   3.942   3.852   1.522 -1.0210 -1.0190 -0.5686
   15MOL   H236 4744   3.561   3.634   1.695  1.1885 -0.7857 -0.3548
   15MOL   H237 4745   3.514   3.797   1.644 -1.5050 -0.4535 -1.6110
   15MOL   H238 4746   3.517   3.655   1.535  0.3505  0.1300 -0.4657
   15MOL   H239 4747   3.784   3.813   1.389 -0.3817  0.9278 -0.4688
   15MOL   H240 4748   3.697   3.927   1.490  2.7914 -0.1584 -0.2284
   15MOL   H241 4749   3.614   3.803   1.399 -0.5066 -1.5789  1.8207
   15MOL   C242 4750   4.033   3.648   1.505 -0.3318  0.5672 -0.2175
   15MOL   C243 4751   4.179   3.675   1.448 -0.2450 -0.2707 -0.0428
   15MOL   C244 4752   4.178   3.786   1.346  0.4652  0.6238  0.2641
   15MOL   O245 4753   4.069   3.829   1.307  0.1508  0.2475  0.1877
   15MOL   N246 4754   4.297   3.855   1.318 -0.4521  0.1365  0.7705
   15MOL   C247 4755   4.282   3.980   1.236 -0.4842  0.1828  0.1514
   15MOL   C248 4756   4.431   3.829   1.377 -0.1484 -0.0768 -0.3174
   15MOL   H249 4757   4.049   3.578   1.586  0.1958  0.0177 -0.7882
   15MOL   H250 4758   3.969   3.613   1.424 -0.4456  0.3877 -0.0488
   15MOL   H251 4759   4.239   3.716   1.529 -0.6732 -0.0210  0.1477
   15MOL   H252 4760   4.183   4.016   1.208 -1.0981 -2.0190 -0.6014
   15MOL   H253 4761   4.338   4.064   1.277 -0.5048 -0.3714  1.3249
   15MOL   H254 4762   4.320   3.965   1.135  1.2600  0.2272  0.7792
   15MOL   H255 4763   4.507   3.880   1.318 -0.0068  0.7330  0.5402
   15MOL   H256 4764   4.464   3.725   1.378  0.6621  0.1731  1.2002
   15MOL   H257 4765   4.457   3.846   1.482  0.8345 -1.0252 -0.4047
   15MOL   C258 4766   4.237   3.543   1.394 -0.9066 -0.2502  0.8393
   15MOL   C259 4767   4.291   3.443   1.495  0.5187  0.6715  0.0720
   15MOL   C260 4768   4.401   3.499   1.591  0.0280 -0.7186  1.5220
   15MOL   O261 4769   4.505   3.537   1.531 -0.0515  0.1703  0.0741
   15MOL   N262 4770   4.389   3.511   1.726  0.1160 -0.0081 -0.4630
   15MOL   C263 4771   4.261   3.487   1.793  0.0816 -0.9035  0.6466
   15MOL   C264 4772   4.496   3.555   1.809 -0.1506  0.7148 -1.0041
   15MOL   H265 4773   4.158   3.487   1.344 -0.1914  0.2210 -0.8602
   15MOL   H266 4774   4.312   3.558   1.316 -1.2083  1.4412  0.8624
   15MOL   H267 4775   4.213   3.413   1.565  1.8311 -2.7428  0.2051
   15MOL   H268 4776   4.174   3.527   1.741  0.6673 -0.3203  0.0967
   15MOL   H269 4777   4.254   3.378   1.795 -0.4921 -0.8914 -0.1946
   15MOL   H270 4778   4.253   3.526   1.895  0.6654  1.7246 -0.2866
   15MOL   H271 4779   4.561   3.470   1.829 -1.2696  0.4473  1.6468
   15MOL   H272 4780   4.469   3.596   1.906  4.0011  0.0010  0.5608
   15MOL   H273 4781   4.552   3.634   1.758 -0.5828  1.4238 -0.3770
   15MOL   C274 4782   4.340   3.312   1.426 -0.0070 -0.0758  0.1666
   15MOL   C275 4783   4.310   3.180   1.496 -0.0750  0.8988  0.6348
   15MOL   C276 4784   4.409   3.065   1.467  0.1321  0.8077 -0.2156
   15MOL   O277 4785   4.384   2.981   1.386  0.4391 -0.1941  0.2574
   15MOL   N278 4786   4.528   3.063   1.533 -0.5596  0.9603  0.3136
   15MOL   C279 4787   4.575   3.162   1.630 -0.7753 -0.5227 -0.7272
   15MOL   C280 4788   4.632   2.957   1.505 -0.0085 -1.1695 -0.1180
   15MOL   H281 4789   4.286   3.301   1.332 -0.0248 -0.1223  0.1827
   15MOL   H282 4790   4.446   3.319   1.402 -0.0320 -0.3341 -0.0231
   15MOL   H283 4791   4.335   3.199   1.601 -1.2639 -3.1225  1.7242
   15MOL   H284 4792   4.547   3.265   1.609 -1.1765 -0.3173  0.7499
   15MOL   H285 4793   4.529   3.140   1.727 -1.1856 -1.4209 -1.1174
   15MOL   H286 4794   4.683   3.162   1.646 -1.1948  1.6758  2.5444
   15MOL   H287 4795   4.586   2.863   1.474 -0.2889 -1.6679  1.7212
   15MOL   H288 4796   4.705   2.942   1.584 -0.7233 -1.4735  0.4931
   15MOL   H289 4797   4.700   2.989   1.426 -0.3485 -1.2693 -0.4559
   15MOL   C290 4798   4.160   3.142   1.471 -0.0996 -0.6002 -0.1842
   15MOL   C291 4799   4.094   3.102   1.336  0.2951  0.0915 -0.3823
   15MOL   C292 4800   4.048   3.218   1.240 -0.2901  0.0692  0.3233
   15MOL   O293 4801   3.970   3.302   1.284 -0.3613  0.3853 -0.5880
   15MOL   N294 4802   4.098   3.228   1.115 -0.0896  0.7889 -0.6079
   15MOL   C295 4803   4.212   3.142   1.063  0.9614 -0.1263  0.2187
   15MOL   C296 4804   4.046   3.330   1.022 -0.4181  0.5299  0.4520
   15MOL   H297 4805   4.155   3.051   1.530 -0.8395  0.2049  1.0217
   15MOL   H298 4806   4.101   3.220   1.519  0.9372 -0.5479  1.0729
   15MOL   H299 4807   4.166   3.040   1.282  0.3616 -0.7638  0.6793
   15MOL   H300 4808   4.248   3.183   0.969  3.0583 -0.0212  1.0522
   15MOL   H301 4809   4.290   3.142   1.139  0.7278  1.9584  0.4888
   15MOL   H302 4810   4.174   3.040   1.050 -2.8833  0.9170  2.2585
   15MOL   H303 4811   4.114   3.414   1.015 -0.2201  0.5006  1.8107
   15MOL   H304 4812   3.943   3.356   1.047 -0.0910  1.3649  0.9262
   15MOL   H305 4813   4.037   3.277   0.927 -1.0742 -2.7454  2.2694
   15MOL   C306 4814   3.971   3.000   1.344 -0.4175 -0.1086  0.6382
   15MOL   C307 4815   3.834   3.054   1.400 -0.2668  0.1856 -0.2281
   15MOL   C308 4816   3.847   3.106   1.540  0.6058  0.6232 -0.1173
   15MOL   O309 4817   3.912   3.044   1.623 -0.0859  0.4575 -0.1802
   15MOL   N310 4818   3.788   3.227   1.570 -0.4757  0.2129  0.3868
   15MOL   C311 4819   3.681   3.290   1.489 -0.1389  0.3566  0.0658
   15MOL   C312 4820   3.812   3.287   1.704 -0.6900  0.8946  0.0657
   15MOL   H313 4821   3.940   2.972   1.244  0.0059  2.2315 -0.1863
   15MOL   H314 4822   3.991   2.905   1.393 -1.9548 -0.4068  0.7109
   15MOL   H315 4823   3.796   3.135   1.337 -0.2746  0.2769 -0.1040
   15MOL   H316 4824   3.600   3.218   1.477  0.4634 -0.3667  0.3076
   15MOL   H317 4825   3.634   3.377   1.535 -2.1513  0.9327 -2.9340
   15MOL   H318 4826   3.719   3.325   1.393  3.0403 -0.8873  0.8148
   15MOL   H319 4827   3.839   3.391   1.685  0.9703  0.2418 -1.2646
   15MOL   H320 4828   3.892   3.250   1.769 -0.3640 -0.3501 -1.0467
   15MOL   H321 4829   3.724   3.275   1.768 -0.4999 -2.0265 -0.1544
   15MOL   H322 4830   3.754   2.980   1.405  0.4012 -0.4939  0.4174
   16MOL     C1 4831   5.109   2.678   2.480 -0.0187 -0.5437  0.0171
   16MOL     C2 4832   5.047   2.570   2.393 -0.6023  0.4511  0.3119
   16MOL     C3 4833   5.100   2.593   2.251 -0.4994 -0.5663 -0.5121
   16MOL     O4 4834   5.052   2.681   2.178 -0.4475 -0.2336  0.1985
   16MOL     N5 4835   5.202   2.522   2.208  0.2439  0.1617  0.3246
   16MOL     C6 4836   5.257   2.543   2.068 -0.0635  0.7802  0.3995
   16MOL     C7 4837   5.270   2.424   2.290  0.0225 -0.1578  0.3683
   16MOL     H8 4838   5.068   2.666   2.581 -2.6238 -0.1219 -0.9513
   16MOL     H9 4839   5.090   2.780   2.445  0.2870 -1.0760 -1.7090
   16MOL    H10 4840   5.070   2.468   2.426 -0.5990 -0.0710 -1.2587
   16MOL    H11 4841   5.357   2.501   2.057 -0.7569 -0.3059 -2.1543
   16MOL    H12 4842   5.201   2.500   1.985 -1.1579  1.5329  0.7330
   16MOL    H13 4843   5.276   2.650   2.056  2.0551  0.2053 -1.6718
   16MOL    H14 4844   5.332   2.480   2.360  0.5970  0.5393 -0.6906
   16MOL    H15 4845   5.341   2.371   2.227 -0.6400 -2.5271  1.5468
   16MOL    H16 4846   5.214   2.339   2.330  0.0612 -0.6528 -0.6264
   16MOL    H17 4847   5.216   2.664   2.494 -0.1512 -0.5767  1.0171
   16MOL    C18 4848   4.889   2.560   2.406  0.0854 -0.7923 -0.3478
   16MOL    C19 4849   4.811   2.696   2.400  0.4303 -0.9669 -0.5271
   16MOL    C20 4850   4.804   2.769   2.539  0.3439 -0.0639 -0.0429
   16MOL    O21 4851   4.809   2.702   2.641 -0.0896  0.1246 -0.0716
   16MOL    N22 4852   4.763   2.900   2.541  0.5455  0.6822 -0.0421
   16MOL    C23 4853   4.761   2.983   2.418  0.1668 -0.1536 -0.4180
   16MOL    C24 4854   4.698   2.950   2.669  0.4443 -0.2595 -0.0223
   16MOL    H25 4855   4.859   2.493   2.325 -1.6781 -1.9460  1.2026
   16MOL    H26 4856   4.867   2.517   2.504 -3.0178 -1.9044 -1.4729
   16MOL    H27 4857   4.871   2.762   2.338 -0.0478  1.6126  1.6536
   16MOL    H28 4858   4.662   2.989   2.373  0.0307  1.6463  0.0749
   16MOL    H29 4859   4.781   3.087   2.447  0.6121 -0.6244  1.0004
   16MOL    H30 4860   4.839   2.962   2.345  1.2772 -1.7399  1.1773
   16MOL    H31 4861   4.771   3.016   2.715 -1.0005  1.2758  0.1126
   16MOL    H32 4862   4.661   2.871   2.734  0.0236 -0.3487 -0.3617
   16MOL    H33 4863   4.620   3.022   2.642  1.4153  0.7887 -0.0450
   16MOL    C34 4864   4.672   2.676   2.339 -0.0453 -0.3966  1.2754
   16MOL    C35 4865   4.554   2.626   2.428 -0.5435 -0.0718  0.2230
   16MOL    C36 4866   4.569   2.486   2.492  0.2717 -0.4946  0.6969
   16MOL    O37 4867   4.624   2.401   2.425  0.3947 -0.4280 -0.0205
   16MOL    N38 4868   4.520   2.462   2.614  0.1616  0.1894  0.0729
   16MOL    C39 4869   4.472   2.567   2.709 -0.3846  0.0729 -0.1863
   16MOL    C40 4870   4.526   2.332   2.671 -0.6225 -0.0879  0.8411
   16MOL    H41 4871   4.652   2.765   2.279  0.9027  1.0570  3.0486
   16MOL    H42 4872   4.699   2.608   2.258 -1.3527  0.9442 -0.3126
   16MOL    H43 4873   4.545   2.701   2.507  1.1910  1.4663 -1.0219
   16MOL    H44 4874   4.369   2.547   2.738  0.2530 -1.1971  1.2957
   16MOL    H45 4875   4.520   2.553   2.806 -0.9662 -0.2810  0.0554
   16MOL    H46 4876   4.470   2.674   2.686  1.0831  0.0218 -0.6013
   16MOL    H47 4877   4.598   2.265   2.625  0.3547  0.0515  2.1188
   16MOL    H48 4878   4.431   2.283   2.691 -0.1303 -0.9057  1.2301
   16MOL    H49 4879   4.575   2.344   2.768 -0.4427 -0.4845  0.8013
   16MOL    C50 4880   4.426   2.626   2.345  0.7184  0.3466  0.6475
   16MOL    C51 4881   4.348   2.761   2.334 -0.6355  0.4655 -0.2667
   16MOL    C52 4882   4.318   2.824   2.474  0.3614 -0.1404  0.5159
   16MOL    O53 4883   4.265   2.751   2.557 -0.0888 -0.7269  0.0151
   16MOL    N54 4884   4.338   2.961   2.491  0.1155  0.7358  0.4525
   16MOL    C55 4885   4.295   3.028   2.611 -0.1146 -0.2346 -0.6330
   16MOL    C56 4886   4.381   3.062   2.393  0.3732  0.8647 -0.3116
   16MOL    H57 4887   4.457   2.581   2.251  1.8809 -0.3277  1.3362
   16MOL    H58 4888   4.358   2.550   2.383  1.3441  0.2557  1.6060
   16MOL    H59 4889   4.423   2.829   2.291  0.2618  0.2419  0.9137
   16MOL    H60 4890   4.191   3.006   2.634  0.3450  0.0192  1.7602
   16MOL    H61 4891   4.366   3.010   2.691  0.3756  0.6405 -0.8523
   16MOL    H62 4892   4.290   3.137   2.605 -1.8042 -0.2514  0.3241
   16MOL    H63 4893   4.485   3.088   2.407  1.0400 -0.8305 -1.9300
   16MOL    H64 4894   4.322   3.153   2.388 -0.4879  0.2324 -2.4517
   16MOL    H65 4895   4.374   3.031   2.288 -1.0742  0.5029 -0.1322
   16MOL    C66 4896   4.224   2.750   2.244  0.3876  0.3864  0.1991
   16MOL    C67 4897   4.264   2.763   2.089 -0.6331  0.1474  0.2152
   16MOL    C68 4898   4.179   2.867   2.016 -0.1464  0.0014 -0.5441
   16MOL    O69 4899   4.059   2.844   1.996 -1.0253 -0.1577 -0.2646
   16MOL    N70 4900   4.236   2.976   1.960 -0.2039 -0.5357  0.3132
   16MOL    C71 4901   4.158   3.066   1.877  0.2716 -0.4910 -0.5775
   16MOL    C72 4902   4.375   3.014   1.982  0.5324 -0.1290  0.0810
   16MOL    H73 4903   4.173   2.655   2.257  2.9532 -0.9376  0.8760
   16MOL    H74 4904   4.159   2.835   2.267  3.2689  2.9068 -0.6152
   16MOL    H75 4905   4.369   2.791   2.088 -0.8690  0.9966 -2.1015
   16MOL    H76 4906   4.150   3.031   1.774 -0.1112  0.5249 -0.9052
   16MOL    H77 4907   4.056   3.078   1.915  0.4222  0.6785 -0.5056
   16MOL    H78 4908   4.199   3.167   1.870 -1.2764  0.2438  0.5806
   16MOL    H79 4909   4.387   3.117   1.947  1.0609 -0.5936 -1.0905
   16MOL    H80 4910   4.438   2.962   1.910  0.1322 -0.1598 -0.2462
   16MOL    H81 4911   4.404   3.006   2.087 -0.8191  0.7886  0.5542
   16MOL    C82 4912   4.263   2.627   2.014 -0.7853  0.2636  0.5417
   16MOL    C83 4913   4.334   2.604   1.883  0.1477 -0.4809  0.1619
   16MOL    C84 4914   4.481   2.636   1.890  0.0542  0.8254 -0.1642
   16MOL    O85 4915   4.524   2.749   1.848  0.6016  0.3478  0.3913
   16MOL    N86 4916   4.568   2.538   1.922  0.0200  0.2907 -0.1710
   16MOL    C87 4917   4.540   2.405   1.985  0.6976 -0.1287 -0.7620
   16MOL    C88 4918   4.713   2.547   1.910  0.2348  0.7926 -0.3453
   16MOL    H89 4919   4.297   2.550   2.084 -1.6705  0.3391  1.0657
   16MOL    H90 4920   4.158   2.597   2.006 -0.0577 -1.6365 -2.6246
   16MOL    H91 4921   4.325   2.499   1.857 -0.1561 -0.2323 -0.7666
   16MOL    H92 4922   4.593   2.323   1.936  2.3777  0.3298  0.2204
   16MOL    H93 4923   4.589   2.417   2.082  0.3152 -1.0480 -0.4484
   16MOL    H94 4924   4.433   2.384   1.991  1.0713 -1.6652  1.5801
   16MOL    H95 4925   4.751   2.572   2.009 -1.0220  3.4364 -0.5079
   16MOL    H96 4926   4.747   2.634   1.854  0.5324  0.5288 -0.5786
   16MOL    H97 4927   4.753   2.456   1.864 -1.6715 -0.6518  0.7740
   16MOL    C98 4928   4.257   2.678   1.756 -0.5540 -0.0343 -0.1572
   16MOL    C99 4929   4.245   2.595   1.626  0.6453 -0.2897 -0.3430
   16MOL   C100 4930   4.131   2.488   1.632 -0.4461 -0.7688  0.3165
   16MOL   O101 4931   4.149   2.378   1.689 -0.5304  0.3551 -0.0350
   16MOL   N102 4932   4.017   2.502   1.558  0.4470  0.4128 -0.0688
   16MOL   C103 4933   3.992   2.606   1.457 -0.3451  0.2406 -0.5383
   16MOL   C104 4934   3.904   2.407   1.575  0.4821  0.7202 -0.8686
   16MOL   H105 4935   4.156   2.692   1.796  0.8679  2.9621  2.6298
   16MOL   H106 4936   4.302   2.776   1.737  1.6720 -1.1629 -0.8709
   16MOL   H107 4937   4.213   2.666   1.550  0.5404 -0.4562 -0.4559
   16MOL   H108 4938   3.984   2.703   1.506  0.7182 -0.2989  0.7299
   16MOL   H109 4939   4.075   2.605   1.388  1.7863  0.8757  1.9315
   16MOL   H110 4940   3.900   2.594   1.400 -1.8185 -1.9147  2.1442
   16MOL   H111 4941   3.927   2.322   1.639  1.5881  0.3980 -1.6754
   16MOL   H112 4942   3.881   2.364   1.477 -0.3261  0.7594 -0.7026
   16MOL   H113 4943   3.811   2.461   1.595 -0.9594 -2.2728  0.7713
   16MOL   C114 4944   4.384   2.533   1.588 -0.4237 -0.1634 -0.4930
   16MOL   C115 4945   4.398   2.511   1.428 -0.4444  0.2722 -0.1879
   16MOL   C116 4946   4.486   2.383   1.397 -0.3506  0.4900  0.3054
   16MOL   O117 4947   4.609   2.393   1.412 -0.4019  0.3980  0.1522
   16MOL   N118 4948   4.427   2.277   1.329 -0.3557 -0.1805  0.0052
   16MOL   C119 4949   4.517   2.182   1.271 -0.4133  0.2767  0.3084
   16MOL   C120 4950   4.283   2.244   1.322  0.2677 -0.4714  0.2373
   16MOL   H121 4951   4.465   2.598   1.620 -2.1352  1.6792  0.1674
   16MOL   H122 4952   4.401   2.436   1.636 -2.5993 -1.5297 -2.3393
   16MOL   H123 4953   4.297   2.499   1.389 -0.0862 -0.1554 -0.9831
   16MOL   H124 4954   4.600   2.233   1.222  1.0632 -0.9162  1.5365
   16MOL   H125 4955   4.545   2.108   1.346  1.3492  0.8797  0.2650
   16MOL   H126 4956   4.468   2.123   1.193 -0.2973  1.1228 -0.4188
   16MOL   H127 4957   4.233   2.259   1.226 -0.2972  3.2747  1.0230
   16MOL   H128 4958   4.225   2.289   1.402  1.5898 -1.4832  1.7939
   16MOL   H129 4959   4.262   2.139   1.338  2.0641 -1.5419 -3.7187
   16MOL   C130 4960   4.455   2.640   1.364 -0.1534  0.1773  0.9775
   16MOL   C131 4961   4.423   2.647   1.213 -0.1225  0.5854  0.6608
   16MOL   C132 4962   4.536   2.719   1.131 -0.1091  0.7525 -0.2759
   16MOL   O133 4963   4.519   2.831   1.098  0.6460 -0.2977 -0.5244
   16MOL   N134 4964   4.652   2.660   1.100 -0.2332 -0.1558 -0.2361
   16MOL   C135 4965   4.770   2.729   1.048  0.6809  0.8386  0.1275
   16MOL   C136 4966   4.669   2.517   1.084  0.0376  0.2703 -0.4827
   16MOL   H137 4967   4.410   2.726   1.414 -1.4582 -1.0174  1.8717
   16MOL   H138 4968   4.561   2.646   1.390 -0.6664  2.9238  2.6150
   16MOL   H139 4969   4.423   2.544   1.178  3.2405  0.5957  0.4909
   16MOL   H140 4970   4.764   2.711   0.941 -1.1466 -2.1837  0.6845
   16MOL   H141 4971   4.760   2.837   1.061  0.4892  0.7389  0.8311
   16MOL   H142 4972   4.867   2.710   1.095  1.2299 -0.1726 -1.3930
   16MOL   H143 4973   4.772   2.489   1.107  0.1278  2.2036  1.5678
   16MOL   H144 4974   4.642   2.486   0.983  0.5448  0.4100 -0.6636
   16MOL   H145 4975   4.604   2.458   1.148 -0.0115  0.5906 -0.2431
   16MOL   C146 4976   4.285   2.700   1.186  0.2444 -0.9200 -0.2786
   16MOL   C147 4977   4.228   2.671   1.046  0.2379 -0.6333  0.0078
   16MOL   C148 4978   4.113   2.771   1.016  0.8627 -0.6702  0.3269
   16MOL   O149 4979   4.016   2.774   1.093 -0.1365  0.1400 -0.4165
   16MOL   N150 4980   4.121   2.849   0.905  0.0061  0.1251  0.2040
   16MOL   C151 4981   4.237   2.882   0.815  0.3936 -0.2462 -0.6443
   16MOL   C152 4982   3.995   2.899   0.852  0.3946  0.9700 -0.3153
   16MOL   H153 4983   4.215   2.672   1.265 -0.1636 -2.0522 -1.0319
   16MOL   H154 4984   4.283   2.809   1.196 -1.6745 -1.2361  3.6549
   16MOL   H155 4985   4.311   2.683   0.977  0.8950 -3.8927  0.1539
   16MOL   H156 4986   4.222   2.955   0.736  1.2452  0.7050  0.0564
   16MOL   H157 4987   4.319   2.918   0.878 -0.4025  2.2646 -1.0027
   16MOL   H158 4988   4.286   2.795   0.772  0.5653  0.2409 -1.4402
   16MOL   H159 4989   3.928   2.818   0.824  1.5126  0.0103 -0.2805
   16MOL   H160 4990   4.001   2.964   0.764 -0.2740  0.0983 -1.0133
   16MOL   H161 4991   3.933   2.947   0.928 -2.5237 -0.1225 -1.9311
   16MOL   C162 4992   4.171   2.524   1.031 -0.1273 -0.2487 -0.0487
   16MOL   C163 4993   4.143   2.464   0.887 -0.5567  0.7001 -0.5848
   16MOL   C164 4994   4.279   2.458   0.815 -0.1082 -0.5460  0.4793
   16MOL   O165 4995   4.319   2.550   0.747  0.3878 -0.5815 -0.4455
   16MOL   N166 4996   4.349   2.340   0.820 -0.7736  0.1476  0.6034
   16MOL   C167 4997   4.304   2.219   0.893  0.2926  0.3505 -0.0865
   16MOL   C168 4998   4.486   2.332   0.765  0.5657 -0.6091 -0.0013
   16MOL   H169 4999   4.243   2.459   1.080 -0.4036 -0.2722  0.3327
   16MOL   H170 5000   4.085   2.511   1.097 -0.2682  2.1076  0.2866
   16MOL   H171 5001   4.099   2.366   0.901 -1.4099  1.3747  1.7819
   16MOL   H172 5002   4.391   2.158   0.918  0.6531  0.5038 -0.9453
   16MOL   H173 5003   4.243   2.225   0.983  0.9608 -0.0353  0.3970
   16MOL   H174 5004   4.253   2.155   0.821  1.1099 -0.9570  0.4767
   16MOL   H175 5005   4.551   2.413   0.798 -0.1656 -0.2220  0.4878
   16MOL   H176 5006   4.486   2.349   0.657  1.7549 -1.1673 -0.0953
   16MOL   H177 5007   4.546   2.242   0.780  0.6872 -0.8700 -1.8342
   16MOL   C178 5008   4.036   2.540   0.807 -0.1310  0.7948  0.3676
   16MOL   C179 5009   3.935   2.485   0.706  0.4383 -0.7843  0.1606
   16MOL   C180 5010   3.822   2.401   0.771 -0.2546  0.1548 -0.1819
   16MOL   O181 5011   3.854   2.326   0.867  0.2815 -0.2542  0.8594
   16MOL   N182 5012   3.694   2.416   0.723  0.0968 -0.1807  0.2545
   16MOL   C183 5013   3.588   2.326   0.767  0.0272 -0.4361  0.9275
   16MOL   C184 5014   3.655   2.511   0.621  0.1379  0.6125  0.2593
   16MOL   H185 5015   3.984   2.594   0.885  2.9202  1.0112  2.3593
   16MOL   H186 5016   4.083   2.623   0.754  1.6893  1.0098  2.2786
   16MOL   H187 5017   3.896   2.579   0.669 -1.5242 -1.8864 -0.6447
   16MOL   H188 5018   3.574   2.358   0.871  0.2636  2.6145  0.0628
   16MOL   H189 5019   3.495   2.338   0.712  0.6180 -1.1531 -0.2525
   16MOL   H190 5020   3.611   2.220   0.758  1.6247  0.0276 -0.7612
   16MOL   H191 5021   3.547   2.523   0.627 -0.3516 -3.1735  0.1684
   16MOL   H192 5022   3.686   2.469   0.526  1.6378  1.6300  0.2825
   16MOL   H193 5023   3.702   2.608   0.634 -1.4867  1.6119 -1.2019
   16MOL   C194 5024   4.010   2.406   0.596  0.1835  0.1293  0.2006
   16MOL   C195 5025   4.089   2.482   0.489 -0.3036  0.0412  0.1236
   16MOL   C196 5026   3.993   2.525   0.380  0.3868  0.1556 -0.1923
   16MOL   O197 5027   3.931   2.444   0.318 -0.8406 -0.0240 -0.0489
   16MOL   N198 5028   3.973   2.658   0.371  0.1500  0.0068  0.3996
   16MOL   C199 5029   3.851   2.704   0.306 -0.4585 -0.0648 -0.0696
   16MOL   C200 5030   4.071   2.765   0.410 -0.2877  0.2710 -0.4980
   16MOL   H201 5031   4.081   2.339   0.644 -0.5630 -1.2867 -0.6685
   16MOL   H202 5032   3.941   2.334   0.554  0.8945 -1.6055  1.9536
   16MOL   H203 5033   4.126   2.563   0.552  0.2190  0.0482 -0.1875
   16MOL   H204 5034   3.772   2.669   0.371 -1.5286  0.8841 -0.8433
   16MOL   H205 5035   3.833   2.811   0.320 -0.4508 -0.1291  0.4260
   16MOL   H206 5036   3.843   2.682   0.199 -0.9965  2.4788 -0.5771
   16MOL   H207 5037   4.056   2.848   0.341  1.1271 -0.1647 -1.3583
   16MOL   H208 5038   4.176   2.740   0.395 -0.2432  0.0739  0.1391
   16MOL   H209 5039   4.055   2.787   0.515 -2.6011  1.6137 -1.0884
   16MOL   C210 5040   4.215   2.416   0.424 -0.0577  0.0234  0.0722
   16MOL   C211 5041   4.195   2.273   0.364 -0.4736 -0.5090  0.6541
   16MOL   C212 5042   4.197   2.157   0.465 -0.4365  0.3035  0.1696
   16MOL   O213 5043   4.293   2.150   0.542 -0.1862  0.1961 -0.1026
   16MOL   N214 5044   4.095   2.067   0.470  0.5067  0.3192 -0.0947
   16MOL   C215 5045   3.973   2.069   0.395  0.5636 -0.1252  0.3485
   16MOL   C216 5046   4.121   1.946   0.557  0.2974  0.3245  0.1132
   16MOL   H217 5047   4.242   2.482   0.341 -1.9476 -1.1922 -1.5636
   16MOL   H218 5048   4.300   2.413   0.492 -0.7778 -0.7991  0.9386
   16MOL   H219 5049   4.098   2.263   0.316 -0.2159  1.5026 -0.3268
   16MOL   H220 5050   3.986   2.040   0.291 -0.6186  2.3273 -0.5303
   16MOL   H221 5051   3.889   2.015   0.438  1.8662 -0.2201  2.8554
   16MOL   H222 5052   3.935   2.171   0.389  1.1018 -0.0941 -3.2209
   16MOL   H223 5053   4.071   1.851   0.540  2.0515 -1.1648  2.8702
   16MOL   H224 5054   4.087   1.980   0.655 -0.1141  1.4016 -0.3934
   16MOL   H225 5055   4.227   1.920   0.568  0.3006 -0.5179 -1.6760
   16MOL   C226 5056   4.307   2.245   0.254  0.2738  0.0301 -0.3458
   16MOL   C227 5057   4.265   2.163   0.133 -0.5127 -0.8416  0.2146
   16MOL   C228 5058   4.282   2.014   0.158 -0.3437  0.1581  0.1709
   16MOL   O229 5059   4.388   1.977   0.211 -0.5630  0.0329 -0.7254
   16MOL   N230 5060   4.191   1.921   0.115 -0.5721 -0.0077 -0.3898
   16MOL   C231 5061   4.215   1.784   0.151  0.7587 -0.0461 -0.4001
   16MOL   C232 5062   4.074   1.945   0.032  0.0933  0.0373 -0.0341
   16MOL   H233 5063   4.342   2.342   0.219 -1.2546  0.0863 -1.7668
   16MOL   H234 5064   4.395   2.203   0.303 -0.2492 -2.2730 -1.3114
   16MOL   H235 5065   4.163   2.181   0.101 -0.7303  0.2578  1.4871
   16MOL   H236 5066   4.135   1.767   0.223 -1.9480 -2.5167 -3.8093
   16MOL   H237 5067   4.214   1.719   0.064 -1.1074 -1.4448  0.6364
   16MOL   H238 5068   4.311   1.770   0.201  1.0740  3.7091  0.2396
   16MOL   H239 5069   4.023   1.853   0.003 -1.8609  0.4354  2.0353
   16MOL   H240 5070   4.105   2.009   7.802 -2.6952  1.8134  0.2351
   16MOL   H241 5071   3.999   2.002   0.087 -0.3169  0.0633 -0.6153
   16MOL   C242 5072   4.335   2.207   0.008  0.4257  0.1885  0.1989
   16MOL   C243 5073   4.299   2.350   7.812 -0.5287 -0.0847  0.3053
   16MOL   C244 5074   4.193   2.348   7.709  0.5215 -0.5946  0.5001
   16MOL   O245 5075   4.228   2.300   7.602  0.0574 -0.5621  0.1491
   16MOL   N246 5076   4.068   2.399   7.729 -0.8588 -0.3125 -0.6350
   16MOL   C247 5077   3.964   2.372   7.625  0.1702  0.1604 -0.0843
   16MOL   C248 5078   4.011   2.450   0.004  0.0761 -0.2092  0.0983
   16MOL   H249 5079   4.439   2.204   0.039  0.1122 -2.0518  1.1476
   16MOL   H250 5080   4.328   2.129   7.785 -1.0884 -1.3287  1.8465
   16MOL   H251 5081   4.256   2.397   0.047 -1.4245 -1.2322  0.5038
   16MOL   H252 5082   3.872   2.342   7.675  1.6581 -0.0814  2.6443
   16MOL   H253 5083   3.931   2.462   7.574 -3.5876 -2.2390 -2.0877
   16MOL   H254 5084   3.990   2.298   7.549  0.5303 -0.4060  0.5769
   16MOL   H255 5085   4.061   2.546   0.020 -2.7275  1.5286 -1.3262
   16MOL   H256 5086   4.031   2.370   0.075  0.1449  0.2582  0.6138
   16MOL   H257 5087   3.903   2.465   7.852  0.1567 -0.6476 -3.2658
   16MOL   C258 5088   4.419   2.432   7.764  0.0131 -0.0605 -0.4341
   16MOL   C259 5089   4.399   2.577   7.717 -0.7001 -0.2359 -0.4700
   16MOL   C260 5090   4.538   2.640   7.684 -0.2920 -0.2709  0.5850
   16MOL   O261 5091   4.617   2.656   7.774 -0.2557 -0.2890  0.5482
   16MOL   N262 5092   4.566   2.682   7.559 -0.1732 -0.1550 -0.3910
   16MOL   C263 5093   4.683   2.770   7.531 -0.1384  0.1746 -0.4108
   16MOL   C264 5094   4.497   2.634   7.442  0.2067  0.0552 -0.2353
   16MOL   H265 5095   4.487   2.441   7.849 -1.5003  0.2977  0.7595
   16MOL   H266 5096   4.478   2.377   7.692  2.3385  0.9211  0.6727
   16MOL   H267 5097   4.332   2.569   7.632 -0.3402 -1.3060 -0.6673
   16MOL   H268 5098   4.756   2.704   7.484 -1.4359 -1.0770 -0.6993
   16MOL   H269 5099   4.660   2.847   7.457 -0.9756  1.4384  1.1282
   16MOL   H270 5100   4.735   2.812   7.617 -0.5873  0.2030 -0.1503
   16MOL   H271 5101   4.522   2.530   7.419 -1.5672 -0.3386 -0.4782
   16MOL   H272 5102   4.518   2.694   7.354 -0.1634 -0.5104 -0.7156
   16MOL   H273 5103   4.390   2.648   7.459 -0.0815 -1.7023 -0.4689
   16MOL   C274 5104   4.338   2.665   7.827  0.1883  0.3283  0.1001
   16MOL   C275 5105   4.281   2.808   7.775  0.8684  0.0428  0.0417
   16MOL   C276 5106   4.230   2.902   0.039  0.0106  0.2835  0.5260
   16MOL   O277 5107   4.126   2.867   0.098 -0.2297  0.1868  0.0761
   16MOL   N278 5108   4.306   3.005   0.084 -0.4854 -0.2521  0.2828
   16MOL   C279 5109   4.278   3.058   0.213 -0.3955  0.2235  0.0081
   16MOL   C280 5110   4.435   3.038   0.018  0.2574  0.5400 -0.9623
   16MOL   H281 5111   4.268   2.616   0.041  1.9252 -1.6008  0.5564
   16MOL   H282 5112   4.419   2.698   0.038 -0.8571  0.3516  1.4353
   16MOL   H283 5113   4.358   2.859   7.717 -0.6295  0.8141 -1.3230
   16MOL   H284 5114   4.213   3.008   0.285  0.7272 -1.2659  0.0290
   16MOL   H285 5115   4.366   3.054   0.278 -1.3094  1.3459  1.3318
   16MOL   H286 5116   4.258   3.164   0.199  2.5911  0.5886 -2.0638
   16MOL   H287 5117   4.502   2.963   0.060 -0.3533  0.2810 -0.4323
   16MOL   H288 5118   4.467   3.133   0.060  1.4627 -0.9980  1.7874
   16MOL   H289 5119   4.432   3.045   7.763 -0.8308  1.0614 -0.9015
   16MOL   C290 5120   4.158   2.789   7.678  0.0643  0.3813 -0.1347
   16MOL   C291 5121   4.124   2.924   7.601 -0.2324  0.8195 -0.9680
   16MOL   C292 5122   3.981   2.909   7.547 -0.5096 -0.7536 -0.3324
   16MOL   O293 5123   3.954   2.819   7.463  0.6684 -0.5604  0.3159
   16MOL   N294 5124   3.886   2.992   7.599  0.5789  0.2217 -0.1127
   16MOL   C295 5125   3.740   2.970   7.567  0.3685 -0.1983 -0.1812
   16MOL   C296 5126   3.907   3.113   7.682 -0.1976 -0.5394 -0.3032
   16MOL   H297 5127   4.183   2.714   7.604  0.2597  0.1736  0.1399
   16MOL   H298 5128   4.072   2.749   7.731  0.5767  0.4059  0.7241
   16MOL   H299 5129   4.140   3.009   7.667  0.1971  0.7736 -1.0105
   16MOL   H300 5130   3.702   3.046   7.499 -0.2305 -0.6975 -0.4120
   16MOL   H301 5131   3.713   2.872   7.528  0.3512 -0.3680  0.2606
   16MOL   H302 5132   3.670   2.988   7.649 -0.0121 -2.2136 -0.0343
   16MOL   H303 5133   3.985   3.175   7.638 -0.9423 -0.2762 -1.2717
   16MOL   H304 5134   3.925   3.074   7.782  0.1082  0.3081 -0.0185
   16MOL   H305 5135   3.819   3.178   7.687 -0.4613 -1.0210  1.3965
   16MOL   C306 5136   4.225   2.945   7.486 -0.3340  0.3480  0.1377
   16MOL   C307 5137   4.240   3.099   7.454 -0.6920  0.0811  0.1325
   16MOL   C308 5138   4.304   3.195   7.556 -0.3968 -0.4644 -0.1467
   16MOL   O309 5139   4.228   3.243   7.640 -0.0455 -1.0361  0.2865
   16MOL   N310 5140   4.427   3.246   7.541 -0.3603  0.3220  0.2598
   16MOL   C311 5141   4.535   3.189   7.453 -0.2903 -0.3796 -0.0466
   16MOL   C312 5142   4.474   3.347   7.629  0.3874 -0.9586 -0.0853
   16MOL   H313 5143   4.326   2.906   7.501  0.6684  1.6547 -2.7974
   16MOL   H314 5144   4.188   2.891   7.399 -0.3451  0.3465  0.1436
   16MOL   H315 5145   4.307   3.087   7.369  1.1148 -1.0709  1.7068
   16MOL   H316 5146   4.506   3.211   7.350 -4.3193 -0.7299  0.9377
   16MOL   H317 5147   4.634   3.235   7.461  0.1022 -0.5787 -3.1054
   16MOL   H318 5148   4.554   3.085   7.480 -2.5441 -0.3674  1.6864
   16MOL   H319 5149   4.437   3.330   7.730 -2.0308  0.9869 -0.5892
   16MOL   H320 5150   4.464   3.446   7.586  0.7117 -0.8843  0.0103
   16MOL   H321 5151   4.582   3.341   7.634  0.4708  0.1402 -0.6696
   16MOL   H322 5152   4.156   3.149   7.405 -0.1138 -2.1436 -3.3418
   17MOL     C1 5153   3.846   0.386   2.236 -0.0280  0.4739 -0.5301
   17MOL     C2 5154   3.842   0.399   2.084  0.6435 -0.5363  0.2018
   17MOL     C3 5155   3.979   0.371   2.017 -0.0894 -0.6495  0.5598
   17MOL     O4 5156   4.087   0.412   2.060 -0.4817  0.1722  0.4695
   17MOL     N5 5157   3.985   0.306   1.902  0.1389 -0.7179  0.3750
   17MOL     C6 5158   4.113   0.290   1.828  0.6491 -0.5700  0.1066
   17MOL     C7 5159   3.875   0.254   1.819 -0.3286  1.0098 -0.7373
   17MOL     H8 5160   3.942   0.422   2.273 -0.5516  0.9679  0.3683
   17MOL     H9 5161   3.838   0.286   2.277 -2.0474  1.5473  1.8240
   17MOL    H10 5162   3.777   0.317   2.054  0.0667  0.4730 -1.3351
   17MOL    H11 5163   4.153   0.389   1.806  1.2048 -0.4333  1.6987
   17MOL    H12 5164   4.191   0.239   1.884  1.5192  0.9003  0.2762
   17MOL    H13 5165   4.106   0.250   1.727  0.4900  2.8479 -1.3161
   17MOL    H14 5166   3.911   0.176   1.751 -1.6152 -0.9280  0.7554
   17MOL    H15 5167   3.823   0.333   1.765 -0.6186  2.0707  1.0508
   17MOL    H16 5168   3.807   0.195   1.880  1.8420 -0.9370 -0.1175
   17MOL    H17 5169   3.775   0.449   2.290  1.7212  0.0224  2.4029
   17MOL    C18 5170   3.785   0.540   2.042  0.4393 -0.0554  1.1956
   17MOL    C19 5171   3.636   0.573   2.083  0.5319  0.1070  0.6299
   17MOL    C20 5172   3.533   0.466   2.033 -0.4125 -0.2463 -0.1334
   17MOL    O21 5173   3.520   0.458   1.913  0.8526  0.4341 -0.7573
   17MOL    N22 5174   3.456   0.399   2.118  0.6248 -0.6369  0.1920
   17MOL    C23 5175   3.480   0.387   2.269 -0.0562 -0.2426  0.0558
   17MOL    C24 5176   3.350   0.307   2.075 -0.3767  0.7675 -0.0157
   17MOL    H25 5177   3.852   0.615   2.084  0.0786  1.9854 -1.7573
   17MOL    H26 5178   3.795   0.554   1.935 -1.6786  0.7034  1.0762
   17MOL    H27 5179   3.625   0.574   2.191  0.3697 -1.6037  0.6403
   17MOL    H28 5180   3.460   0.484   2.317  0.6382  0.2355 -0.6108
   17MOL    H29 5181   3.412   0.317   2.317 -0.4409  0.8561  1.1513
   17MOL    H30 5182   3.579   0.348   2.292 -0.2399 -0.9757 -0.4103
   17MOL    H31 5183   3.336   0.325   1.968 -2.3080  1.4088  0.3279
   17MOL    H32 5184   3.262   0.332   2.134 -0.9496  3.2854 -1.8658
   17MOL    H33 5185   3.388   0.205   2.079  0.9188  1.2203 -0.5992
   17MOL    C34 5186   3.585   0.711   2.024  0.7812  0.0929 -0.9767
   17MOL    C35 5187   3.447   0.766   2.074 -0.5549 -0.1617 -0.7356
   17MOL    C36 5188   3.412   0.892   1.993 -0.6398  0.1280 -0.3008
   17MOL    O37 5189   3.456   1.002   2.028  0.3462 -0.4886  0.1987
   17MOL    N38 5190   3.324   0.885   1.886  0.1915  0.0387  0.2494
   17MOL    C39 5191   3.277   0.762   1.831  0.1779 -0.1216 -0.0438
   17MOL    C40 5192   3.293   1.008   1.810  0.5963 -0.4989 -0.3452
   17MOL    H41 5193   3.655   0.792   2.047 -0.5607  0.5104  1.8203
   17MOL    H42 5194   3.572   0.700   1.916 -0.6056  0.2193 -0.8394
   17MOL    H43 5195   3.373   0.688   2.052 -0.7929 -0.0728 -0.2434
   17MOL    H44 5196   3.228   0.772   1.734 -0.2781 -0.0159  0.1956
   17MOL    H45 5197   3.365   0.703   1.807 -1.4854 -1.8624 -2.2011
   17MOL    H46 5198   3.210   0.711   1.900  0.6944  0.5133  0.9306
   17MOL    H47 5199   3.252   1.093   1.863 -0.6989 -1.5196  0.3141
   17MOL    H48 5200   3.216   0.977   1.740 -0.9883  1.9331  0.2919
   17MOL    H49 5201   3.383   1.038   1.757  0.7986 -0.7700 -0.1605
   17MOL    C50 5202   3.437   0.809   2.222  0.6584 -0.0003 -0.0783
   17MOL    C51 5203   3.296   0.838   2.289 -0.5767  0.1904 -0.5019
   17MOL    C52 5204   3.330   0.878   2.439  0.2004  0.6770  0.3788
   17MOL    O53 5205   3.392   0.791   2.505  0.2425  0.0398  0.0826
   17MOL    N54 5206   3.301   1.000   2.486  0.5607 -0.7291  0.3987
   17MOL    C55 5207   3.352   1.035   2.621 -0.2294  0.2780 -0.2594
   17MOL    C56 5208   3.236   1.104   2.410 -0.4485 -0.1971 -0.6425
   17MOL    H57 5209   3.487   0.726   2.273 -0.7935  0.2610  1.8392
   17MOL    H58 5210   3.502   0.894   2.240  0.9003  0.3322 -2.3307
   17MOL    H59 5211   3.246   0.920   2.238 -1.9609  0.0365  0.5685
   17MOL    H60 5212   3.451   1.003   2.651 -0.9067 -0.6699  1.0071
   17MOL    H61 5213   3.355   1.144   2.632 -2.4987  0.1683  2.0698
   17MOL    H62 5214   3.285   0.999   2.700 -1.5987  3.0444 -0.0911
   17MOL    H63 5215   3.200   1.183   2.475 -0.9255 -0.0301 -1.0999
   17MOL    H64 5216   3.145   1.065   2.364 -0.0541 -1.4641 -0.3599
   17MOL    H65 5217   3.304   1.148   2.337  1.4438 -0.5296  0.8976
   17MOL    C66 5218   3.196   0.717   2.293 -0.5529  0.0850 -0.1917
   17MOL    C67 5219   3.061   0.726   2.216 -0.4081  0.2473  0.1529
   17MOL    C68 5220   2.970   0.837   2.277  0.6471  0.0440  0.1237
   17MOL    O69 5221   2.907   0.800   2.375 -0.1443 -0.2340  0.0877
   17MOL    N70 5222   2.961   0.963   2.227  0.1929  0.4191 -0.0993
   17MOL    C71 5223   3.030   1.025   2.114 -0.8385 -0.0514  0.2254
   17MOL    C72 5224   2.867   1.060   2.289 -0.2648  0.0983 -0.2708
   17MOL    H73 5225   3.255   0.636   2.251 -0.1185 -0.2143  0.9731
   17MOL    H74 5226   3.179   0.699   2.399  2.8877  0.4821  0.4858
   17MOL    H75 5227   3.087   0.757   2.115  0.6487 -0.3192  0.2432
   17MOL    H76 5228   3.127   1.064   2.146 -1.1886  1.7527 -0.8617
   17MOL    H77 5229   3.057   0.961   2.030 -1.7976  1.7817 -1.5434
   17MOL    H78 5230   2.980   1.110   2.068 -0.0057 -0.3345 -1.2509
   17MOL    H79 5231   2.901   1.162   2.272 -0.3236  0.3854  1.3092
   17MOL    H80 5232   2.855   1.058   2.397  0.2600  0.5936 -0.2047
   17MOL    H81 5233   2.768   1.061   2.242 -0.8289 -1.4087  0.8494
   17MOL    C82 5234   2.993   0.585   2.204 -1.0598  0.0519  0.0999
   17MOL    C83 5235   2.947   0.513   2.332  0.0626 -0.2922  0.8955
   17MOL    C84 5236   3.013   0.373   2.354  0.3575 -0.1155 -0.3423
   17MOL    O85 5237   3.038   0.299   2.257  0.0455  0.1982  0.7678
   17MOL    N86 5238   3.060   0.346   2.478  0.0141 -0.0529  0.3573
   17MOL    C87 5239   3.011   0.406   2.600  0.3947 -0.3829  0.3032
   17MOL    C88 5240   3.145   0.234   2.506  0.6919 -0.1146 -0.5260
   17MOL    H89 5241   2.912   0.598   2.133 -0.2300  2.9104 -0.3866
   17MOL    H90 5242   3.063   0.523   2.148 -0.4993  0.3858  0.4195
   17MOL    H91 5243   2.966   0.580   2.416 -1.3487 -2.2559  2.8567
   17MOL    H92 5244   3.058   0.360   2.687 -1.9628 -2.9534  0.2870
   17MOL    H93 5245   3.026   0.513   2.608  1.2455 -0.5917  1.6216
   17MOL    H94 5246   2.903   0.396   2.606  0.2490 -0.2467 -1.7536
   17MOL    H95 5247   3.094   0.158   2.565  1.6718  0.2605  0.8203
   17MOL    H96 5248   3.233   0.270   2.560  1.1285 -1.5667 -0.2441
   17MOL    H97 5249   3.178   0.201   2.407 -1.8745  0.4204 -1.5889
   17MOL    C98 5250   2.791   0.488   2.319 -0.0477 -0.4832 -0.0562
   17MOL    C99 5251   2.735   0.365   2.223 -0.6514  0.3388 -0.1051
   17MOL   C100 5252   2.679   0.429   2.096 -0.6086  0.3752 -0.5292
   17MOL   O101 5253   2.605   0.524   2.103 -0.8724  0.2071  0.0027
   17MOL   N102 5254   2.701   0.374   1.974  0.5707  0.6416 -0.2700
   17MOL   C103 5255   2.612   0.412   1.858  0.9828  0.2540 -0.2883
   17MOL   C104 5256   2.829   0.305   1.938  0.2262 -0.6367 -0.0435
   17MOL   H105 5257   2.751   0.477   2.420  0.3621 -1.3250  0.0196
   17MOL   H106 5258   2.748   0.584   2.288 -0.0344  0.0460  1.5231
   17MOL   H107 5259   2.810   0.289   2.199 -1.2063 -0.0002 -0.7623
   17MOL   H108 5260   2.537   0.334   1.865  2.0274 -0.6606  1.1182
   17MOL   H109 5261   2.562   0.508   1.867  0.5614  0.0036  0.0553
   17MOL   H110 5262   2.660   0.405   1.760  1.9924  1.9369  0.0525
   17MOL   H111 5263   2.846   0.310   1.831 -1.2232 -1.4313 -0.3188
   17MOL   H112 5264   2.843   0.203   1.973 -0.4632 -0.0049  2.1842
   17MOL   H113 5265   2.911   0.361   1.984 -2.0884  0.7464  2.6090
   17MOL   C114 5266   2.638   0.271   2.294  0.0260  0.0361  0.5717
   17MOL   C115 5267   2.693   0.163   2.400  0.1153 -0.8860  0.3409
   17MOL   C116 5268   2.771   0.053   2.323 -0.8147 -0.9571  0.1473
   17MOL   O117 5269   2.756   0.054   2.199  0.3656 -0.0516 -0.5002
   17MOL   N118 5270   2.859   7.829   2.393 -0.1135 -0.9574 -0.7392
   17MOL   C119 5271   2.869   7.814   2.535  0.2404 -0.1475  0.2295
   17MOL   C120 5272   2.937   7.736   2.319 -0.1001 -0.2562  0.3389
   17MOL   H121 5273   2.562   0.335   2.338  0.0028  0.5802 -0.2389
   17MOL   H122 5274   2.568   0.222   2.227  0.3102 -0.2057  0.4495
   17MOL   H123 5275   2.765   0.215   2.463 -1.5383  0.9783  0.7512
   17MOL   H124 5276   2.866   0.051   2.597 -1.7009  0.9661 -1.4260
   17MOL   H125 5277   2.780   7.764   2.573  1.2448 -1.4089  0.9426
   17MOL   H126 5278   2.938   7.738   2.571 -2.0753 -1.8818  1.1549
   17MOL   H127 5279   3.032   7.781   2.289 -0.4228  0.5673  0.5510
   17MOL   H128 5280   2.882   7.693   2.236 -1.5673  1.0955  0.5795
   17MOL   H129 5281   2.981   7.655   2.378 -2.0601 -1.2499  0.4579
   17MOL   C130 5282   2.579   0.112   2.482  0.2295 -0.8492 -0.1163
   17MOL   C131 5283   2.511   0.208   2.586 -0.1167 -0.4317 -0.5119
   17MOL   C132 5284   2.608   0.291   2.684 -0.5059  0.3996 -0.1525
   17MOL   O133 5285   2.692   0.230   2.749  0.2691  0.4304  0.6740
   17MOL   N134 5286   2.593   0.420   2.709 -1.0712 -0.0049  0.1994
   17MOL   C135 5287   2.497   0.504   2.639 -0.0390  0.0220 -0.1292
   17MOL   C136 5288   2.669   0.497   2.808  0.9641  0.1343 -0.1509
   17MOL   H137 5289   2.504   0.077   2.411  1.5219  0.5417 -2.2040
   17MOL   H138 5290   2.603   0.016   2.528  0.4187 -1.9206 -2.3928
   17MOL   H139 5291   2.454   0.279   2.526  0.8506  1.2316  0.5208
   17MOL   H140 5292   2.490   0.603   2.684 -0.8589 -0.5291  0.9842
   17MOL   H141 5293   2.528   0.521   2.536 -1.3066  0.3056 -0.4708
   17MOL   H142 5294   2.398   0.460   2.651 -0.5601  1.4779  1.0552
   17MOL   H143 5295   2.733   0.566   2.753  0.8350  1.6342  1.5394
   17MOL   H144 5296   2.735   0.435   2.869  0.3797  0.0097  0.3542
   17MOL   H145 5297   2.599   0.550   2.873  1.7026 -0.6425  1.3205
   17MOL   C146 5298   2.412   0.126   2.681  0.4377 -0.0377  0.5000
   17MOL   C147 5299   2.281   0.195   2.731  0.7462  0.3610 -0.3005
   17MOL   C148 5300   2.225   0.117   2.856  0.4292  0.4617 -0.2886
   17MOL   O149 5301   2.174   0.007   2.843  0.1350 -0.2777 -0.4026
   17MOL   N150 5302   2.222   0.188   2.972  0.1410  0.4834 -0.5247
   17MOL   C151 5303   2.318   0.294   3.012 -0.6043  0.0177 -0.2471
   17MOL   C152 5304   2.124   0.145   3.075  0.3893  0.2295  0.2197
   17MOL   H153 5305   2.381   0.029   2.642  1.0791  0.0042 -0.1273
   17MOL   H154 5306   2.473   0.099   2.768  1.2535 -1.1176 -0.3876
   17MOL   H155 5307   2.310   0.294   2.764 -0.4152  0.6835 -0.2294
   17MOL   H156 5308   2.339   0.305   3.119 -0.3451 -0.4163 -0.2526
   17MOL   H157 5309   2.415   0.274   2.966 -0.0183 -0.3871  1.1296
   17MOL   H158 5310   2.282   0.389   2.974  0.7335  1.2183  1.3953
   17MOL   H159 5311   2.045   0.083   3.031  1.0230 -1.0511  0.8625
   17MOL   H160 5312   2.076   0.231   3.121 -2.2486  0.5682 -2.9130
   17MOL   H161 5313   2.176   0.087   3.150 -2.0856 -0.2226  1.6541
   17MOL   C162 5314   2.183   0.201   2.609 -0.0955  0.0592 -0.5008
   17MOL   C163 5315   2.048   0.272   2.616  1.0511 -0.0250  0.2039
   17MOL   C164 5316   2.063   0.410   2.680  0.0141  0.0687 -0.5242
   17MOL   O165 5317   2.062   0.416   2.805 -0.1252 -0.1655  0.2648
   17MOL   N166 5318   2.094   0.520   2.603  0.9527 -0.3316  0.0111
   17MOL   C167 5319   2.099   0.527   2.457  0.0533  0.5773  0.1254
   17MOL   C168 5320   2.127   0.644   2.661  0.4118 -0.2486  0.1191
   17MOL   H169 5321   2.235   0.248   2.526  0.1939  2.0028  0.7577
   17MOL   H170 5322   2.165   0.097   2.583  0.7070 -1.0475  2.9794
   17MOL   H171 5323   2.023   0.298   2.513 -1.7337  1.9465  1.3020
   17MOL   H172 5324   2.013   0.481   2.407  1.0475 -1.0904 -0.1035
   17MOL   H173 5325   2.112   0.628   2.418 -1.1791  0.8092  0.3062
   17MOL   H174 5326   2.184   0.467   2.424  1.0611  2.0178  0.0770
   17MOL   H175 5327   2.079   0.673   2.754  0.3937 -2.1573  0.7357
   17MOL   H176 5328   2.104   0.731   2.601  0.3409 -0.6825 -0.4862
   17MOL   H177 5329   2.235   0.631   2.676  0.3694 -0.9746 -0.1546
   17MOL   C178 5330   1.932   0.185   2.678  0.3983 -0.6267 -0.2368
   17MOL   C179 5331   1.806   0.181   2.597  0.0268  0.1467 -0.0591
   17MOL   C180 5332   1.689   0.149   2.689  0.0483 -0.3753  0.7153
   17MOL   O181 5333   1.711   0.072   2.784  0.3062 -0.5269  0.0471
   17MOL   N182 5334   1.570   0.210   2.671  0.5047 -0.8024  0.0166
   17MOL   C183 5335   1.456   0.184   2.763  0.1820  0.4878 -0.3677
   17MOL   C184 5336   1.523   0.280   2.551  0.5466  0.3049  0.2932
   17MOL   H185 5337   1.979   0.088   2.692  2.8001  0.5324  0.0423
   17MOL   H186 5338   1.914   0.229   2.777  0.9619 -0.8278 -0.0430
   17MOL   H187 5339   1.790   0.282   2.560  0.8802  0.0985 -0.5871
   17MOL   H188 5340   1.401   0.091   2.747  1.3957  0.2016 -3.0876
   17MOL   H189 5341   1.498   0.177   2.864  3.7679  0.8427 -1.7720
   17MOL   H190 5342   1.393   0.272   2.767  1.5292  1.4362  0.4859
   17MOL   H191 5343   1.530   0.194   2.484  0.1528  0.1801  0.4121
   17MOL   H192 5344   1.588   0.363   2.524  2.4439 -1.1018  0.3991
   17MOL   H193 5345   1.417   0.306   2.551  0.7965  1.3387 -0.2417
   17MOL   C194 5346   1.831   0.084   2.475  0.2000  0.5979 -0.5853
   17MOL   C195 5347   1.798   7.779   2.499 -0.2502 -0.5521  0.3513
   17MOL   C196 5348   1.936   7.722   2.525 -0.1315 -0.4533  0.4424
   17MOL   O197 5349   2.021   7.726   2.436 -0.0650  0.2802 -0.3663
   17MOL   N198 5350   1.960   7.659   2.641  0.6521 -0.1704  0.2385
   17MOL   C199 5351   2.070   7.563   2.644  0.4950  0.1435  0.5982
   17MOL   C200 5352   1.878   7.661   2.759 -0.1033 -0.8063  0.1642
   17MOL   H201 5353   1.767   0.124   2.397  0.5788 -0.1374 -1.2876
   17MOL   H202 5354   1.932   0.103   2.438  1.0584 -0.4432  1.1187
   17MOL   H203 5355   1.725   7.778   2.580 -0.6749 -1.4466 -0.0459
   17MOL   H204 5356   2.164   7.607   2.676  0.0167  1.3469  0.4043
   17MOL   H205 5357   2.045   7.479   2.708  1.3644 -1.1223 -0.7028
   17MOL   H206 5358   2.084   7.527   2.542  1.1710  1.9647  0.0265
   17MOL   H207 5359   1.774   7.639   2.739 -0.0613  0.6761 -1.7604
   17MOL   H208 5360   1.882   7.760   2.804  0.7747 -0.4828 -0.6109
   17MOL   H209 5361   1.916   7.594   2.836 -1.4840 -0.0205  1.5636
   17MOL   C210 5362   1.739   7.717   2.365  0.0884 -0.1275 -0.4545
   17MOL   C211 5363   1.588   7.716   2.338  0.5495 -0.0485  0.3775
   17MOL   C212 5364   1.512   7.624   2.441  0.3996  0.0661  0.3702
   17MOL   O213 5365   1.555   7.506   2.473  1.4663 -0.2689 -0.4061
   17MOL   N214 5366   1.406   7.670   2.507 -0.0267  0.1562 -0.2360
   17MOL   C215 5367   1.339   7.797   2.493 -0.4870 -0.7836 -0.5771
   17MOL   C216 5368   1.322   7.574   2.588  0.2163 -0.1524 -0.5569
   17MOL   H217 5369   1.778   7.763   2.274 -3.3203 -0.0582 -1.9598
   17MOL   H218 5370   1.763   7.611   2.367 -0.8758 -0.3749 -1.6287
   17MOL   H219 5371   1.555   7.820   2.345 -0.8355 -0.6376  3.7353
   17MOL   H220 5372   1.280   7.825   2.580 -1.3780 -0.7913 -1.1708
   17MOL   H221 5373   1.397   0.033   2.468 -1.0796 -1.4861 -4.9924
   17MOL   H222 5374   1.275   7.781   2.406 -0.2359 -0.4393 -0.8295
   17MOL   H223 5375   1.343   7.472   2.555  0.7433 -0.8569  1.8461
   17MOL   H224 5376   1.214   7.589   2.583  0.3009 -0.0077 -2.1251
   17MOL   H225 5377   1.334   7.582   2.696 -1.8519 -2.5426 -0.1094
   17MOL   C226 5378   1.563   7.661   2.195  0.4811  0.1214 -0.0709
   17MOL   C227 5379   1.423   7.706   2.138  0.4060  0.2311 -0.1204
   17MOL   C228 5380   1.368   7.597   2.042  0.0368 -0.5270  0.5107
   17MOL   O229 5381   1.422   7.588   1.930 -0.1436 -0.3073 -0.1730
   17MOL   N230 5382   1.269   7.513   2.067  0.1443 -0.0874  0.1214
   17MOL   C231 5383   1.231   7.407   1.969  0.4639  0.0057  0.2533
   17MOL   C232 5384   1.188   7.511   2.187  0.5218 -0.3335  0.3661
   17MOL   H233 5385   1.638   7.703   2.129 -0.7691  1.7573 -0.4806
   17MOL   H234 5386   1.577   7.555   2.177 -0.2079  0.1635 -0.8700
   17MOL   H235 5387   1.352   7.699   2.220  0.6955  3.3581  0.4757
   17MOL   H236 5388   1.314   7.345   1.937 -0.0326  0.6347 -2.3689
   17MOL   H237 5389   1.149   7.341   1.999 -0.1412  0.3955 -0.5257
   17MOL   H238 5390   1.195   7.460   1.880  0.4360 -0.0099  0.2550
   17MOL   H239 5391   1.239   7.465   2.271  0.8012  0.4695  0.6433
   17MOL   H240 5392   1.091   7.468   2.163  0.8409 -1.1012  0.4337
   17MOL   H241 5393   1.161   7.611   2.220 -1.4193 -0.3254 -1.1850
   17MOL   C242 5394   1.428   7.851   2.087 -0.1111 -0.2068  0.3434
   17MOL   C243 5395   1.299   0.087   2.070  0.1341 -0.8998  0.0705
   17MOL   C244 5396   1.232   0.127   2.203 -0.5601 -0.4162 -0.2737
   17MOL   O245 5397   1.141   0.056   2.253 -0.0515  0.3057  0.3973
   17MOL   N246 5398   1.265   0.246   2.267 -0.1870 -0.0389  0.1510
   17MOL   C247 5399   1.181   0.296   2.389  1.1179  0.7426 -0.6948
   17MOL   C248 5400   1.353   0.349   2.216 -0.3004 -0.5637 -0.1325
   17MOL   H249 5401   1.494   0.057   2.149 -0.2392  1.0877 -0.7497
   17MOL   H250 5402   1.487   0.000   1.995 -1.2103 -2.0551 -0.4512
   17MOL   H251 5403   1.324   0.180   2.020  2.2219 -1.0255  0.8499
   17MOL   H252 5404   1.214   0.243   2.478  0.4134  1.3533 -0.0617
   17MOL   H253 5405   1.202   0.399   2.417  1.5693  0.6860 -0.8245
   17MOL   H254 5406   1.074   0.278   2.377  1.0642  0.4326  0.2277
   17MOL   H255 5407   1.414   0.390   2.296  1.1067 -0.4934 -1.2075
   17MOL   H256 5408   1.315   0.430   2.153  0.8011  0.1420  0.1077
   17MOL   H257 5409   1.432   0.307   2.153  0.1455  0.3827 -0.2105
   17MOL   C258 5410   1.206   0.025   1.954  0.2604 -0.7186 -0.2774
   17MOL   C259 5411   1.095   0.116   1.899  0.7010  0.1886 -0.0383
   17MOL   C260 5412   0.969   0.105   1.992 -0.7970 -0.1149 -0.4874
   17MOL   O261 5413   0.919   7.850   2.009  0.0347  0.4423  0.0560
   17MOL   N262 5414   0.916   0.212   2.054  0.2556 -0.2274  0.0586
   17MOL   C263 5415   0.972   0.345   2.052  0.2363  0.1857 -0.5593
   17MOL   C264 5416   0.807   0.202   2.152  0.5328 -0.3110 -0.3141
   17MOL   H265 5417   1.267   7.842   1.871 -2.4365  0.1594 -2.7131
   17MOL   H266 5418   1.161   7.784   1.986 -0.8742 -0.3145 -0.6838
   17MOL   H267 5419   1.145   0.212   1.886  1.7232 -0.4836 -1.2060
   17MOL   H268 5420   1.056   0.353   2.121 -1.5707  0.9668  1.6398
   17MOL   H269 5421   0.993   0.375   1.949 -1.0867 -0.4750 -1.0312
   17MOL   H270 5422   0.898   0.414   2.093 -1.9157 -2.9324  0.9849
   17MOL   H271 5423   0.823   0.266   2.239 -0.5307 -1.1999  0.5563
   17MOL   H272 5424   0.797   0.103   2.197  0.5155  0.1527  0.7294
   17MOL   H273 5425   0.711   0.225   2.106  0.2150  1.5412  1.2163
   17MOL   C274 5426   1.045   0.070   1.763 -0.2812  0.0906 -0.1322
   17MOL   C275 5427   1.127   0.114   1.633 -0.0527  0.1574  0.1369
   17MOL   C276 5428   1.126   0.265   1.605 -0.6980 -0.4142  0.0918
   17MOL   O277 5429   1.040   0.333   1.671  0.2030  0.2440 -0.3313
   17MOL   N278 5430   1.206   0.316   1.513 -0.3202 -0.1974  0.7518
   17MOL   C279 5431   1.318   0.244   1.449 -0.6326 -0.2474  0.1420
   17MOL   C280 5432   1.187   0.452   1.458 -0.2358 -0.5252  0.2674
   17MOL   H281 5433   1.050   7.815   1.771 -1.9040  0.0247  0.0476
   17MOL   H282 5434   0.947   0.105   1.732  0.9212  3.9425  0.0489
   17MOL   H283 5435   1.230   0.092   1.660 -0.3733  0.0224  1.2972
   17MOL   H284 5436   1.407   0.307   1.449 -0.7199 -0.1081 -0.7798
   17MOL   H285 5437   1.352   0.154   1.500  0.0578 -0.5467 -0.8285
   17MOL   H286 5438   1.292   0.211   1.348  0.9372  0.4556 -0.5175
   17MOL   H287 5439   1.098   0.496   1.503 -0.6998 -0.4865 -0.6708
   17MOL   H288 5440   1.178   0.448   1.349 -1.8905  2.1444  0.2395
   17MOL   H289 5441   1.268   0.524   1.467 -0.3302 -0.3840  0.0234
   17MOL   C290 5442   1.072   0.037   1.507  0.0831 -0.2521  0.1330
   17MOL   C291 5443   1.120   7.746   1.504 -0.6841  0.0967 -0.1639
   17MOL   C292 5444   1.267   7.729   1.454 -0.2459  0.0281  0.3574
   17MOL   O293 5445   1.296   7.793   1.352 -0.1953  0.3211 -0.0434
   17MOL   N294 5446   1.362   7.654   1.515 -0.5603 -0.2126  0.8612
   17MOL   C295 5447   1.334   7.596   1.638 -0.5529  0.3191 -0.9142
   17MOL   C296 5448   1.499   7.628   1.462 -0.0392 -0.3822 -0.3315
   17MOL   H297 5449   0.966   0.051   1.489  0.0685  2.6294  2.0893
   17MOL   H298 5450   1.110   0.087   1.417  3.0846  1.7468  2.4247
   17MOL   H299 5451   1.104   7.703   1.603 -1.2948  2.2683  0.7264
   17MOL   H300 5452   1.288   7.662   1.712  2.2914  0.5288  0.7439
   17MOL   H301 5453   1.263   7.515   1.623 -0.8467  0.6070 -1.0931
   17MOL   H302 5454   1.422   7.557   1.689 -0.8176 -0.2851 -0.9225
   17MOL   H303 5455   1.513   7.641   1.355  0.5066 -0.6888 -0.2978
   17MOL   H304 5456   1.535   7.529   1.491  0.6785  0.0081  0.1307
   17MOL   H305 5457   1.576   7.691   1.508 -1.6190  0.7128  0.8698
   17MOL   C306 5458   1.028   7.659   1.415  0.2542  0.0286  0.5927
   17MOL   C307 5459   1.010   7.697   1.270  0.5458  0.1017 -0.2261
   17MOL   C308 5460   0.917   7.600   1.195 -0.8892 -0.5885 -0.1068
   17MOL   O309 5461   0.854   7.506   1.250 -0.1750 -0.3771  0.0670
   17MOL   N310 5462   0.897   7.634   1.064 -0.3942  0.3691 -0.4844
   17MOL   C311 5463   0.817   7.546   0.971  0.0001 -0.0936  0.0827
   17MOL   C312 5464   0.982   7.733   1.001  0.5050  0.1672  0.6265
   17MOL   H313 5465   1.039   7.551   1.415 -1.7326 -0.2008 -0.8081
   17MOL   H314 5466   0.934   7.666   1.469 -0.4101 -2.4019 -0.1938
   17MOL   H315 5467   0.980   7.801   1.257 -1.8628 -0.2869  1.7693
   17MOL   H316 5468   0.881   7.501   0.894  1.5731 -1.0300  1.8934
   17MOL   H317 5469   0.769   7.462   1.020  1.6439 -1.8074 -1.1501
   17MOL   H318 5470   0.745   7.613   0.924  0.7564  1.1976  0.7212
   17MOL   H319 5471   1.090   7.719   1.011  0.7953  0.1795 -2.0192
   17MOL   H320 5472   0.964   7.826   1.054  0.2545  0.1847  0.5096
   17MOL   H321 5473   0.968   7.732   0.893  4.6852 -2.0997 -0.0464
   17MOL   H322 5474   1.107   7.681   1.223  0.3318 -1.2986 -0.2125
   18MOL     C1 5475   6.019   5.709   0.140 -0.4215 -0.4172 -0.1123
   18MOL     C2 5476   5.935   5.632   0.242  1.0597 -0.2320 -0.6385
   18MOL     C3 5477   5.787   5.673   0.230 -0.0131  0.7908  0.1052
   18MOL     O4 5478   5.751   5.778   0.276 -0.1609 -0.2413 -0.2748
   18MOL     N5 5479   5.691   5.585   0.194 -0.1760 -0.3752  0.0022
   18MOL     C6 5480   5.547   5.604   0.213 -0.0623 -0.0862  0.5978
   18MOL     C7 5481   5.731   5.468   0.120  0.5586 -0.2059 -0.3136
   18MOL     H8 5482   5.996   5.810   0.174 -0.6217 -0.4318 -0.2054
   18MOL     H9 5483   5.993   5.708   0.034 -0.1010  0.2008 -0.2002
   18MOL    H10 5484   5.952   5.527   0.221 -1.8042 -1.6250  3.3015
   18MOL    H11 5485   5.479   5.540   0.156 -1.6719  2.0693  0.0290
   18MOL    H12 5486   5.528   5.581   0.318  1.9387 -0.9775  0.7921
   18MOL    H13 5487   5.518   5.704   0.181  0.3840 -0.2589 -0.3565
   18MOL    H14 5488   5.757   5.392   0.193 -3.0877 -1.4059 -0.1349
   18MOL    H15 5489   5.822   5.490   0.063 -0.5159  2.0978 -1.2259
   18MOL    H16 5490   5.650   5.429   0.057 -0.8123  1.0066  0.6694
   18MOL    H17 5491   6.125   5.682   0.144 -0.1878  0.6534  1.2301
   18MOL    C18 5492   5.996   5.649   0.389 -0.0540 -0.2545 -0.1092
   18MOL    C19 5493   5.929   5.554   0.499  0.6424  1.0195 -0.0131
   18MOL    C20 5494   5.945   5.616   0.639 -0.5546  0.7706  0.3847
   18MOL    O21 5495   6.051   5.598   0.699 -0.3988 -0.1969  0.0757
   18MOL    N22 5496   5.845   5.691   0.701 -0.4140  0.0731  0.3455
   18MOL    C23 5497   5.724   5.744   0.636  0.1168  0.5530 -0.1659
   18MOL    C24 5498   5.849   5.719   0.843 -0.3126 -0.7174 -0.7787
   18MOL    H25 5499   6.100   5.617   0.383 -0.5178 -1.9073  0.5323
   18MOL    H26 5500   5.997   5.756   0.414  1.6615 -0.3467  0.2809
   18MOL    H27 5501   5.822   5.559   0.477  0.7602  1.5588 -0.4736
   18MOL    H28 5502   5.685   5.835   0.684 -0.2892  0.6274 -0.6324
   18MOL    H29 5503   5.733   5.763   0.529  0.3938 -1.8028 -0.5713
   18MOL    H30 5504   5.648   5.666   0.637 -0.4534  1.0415 -2.4636
   18MOL    H31 5505   5.755   5.759   0.880  0.2208 -3.0591  3.3871
   18MOL    H32 5506   5.930   5.780   0.882 -0.0897 -1.0926 -0.6562
   18MOL    H33 5507   5.830   5.639   0.913  1.0586 -1.2994 -1.0705
   18MOL    C34 5508   5.994   5.413   0.489  0.0272 -0.0301  0.3995
   18MOL    C35 5509   5.918   5.296   0.555 -0.7450  0.3069 -0.0524
   18MOL    C36 5510   6.004   5.170   0.543  0.1700 -0.6638 -0.2353
   18MOL    O37 5511   6.026   5.125   0.429  0.1698 -0.5681  0.0003
   18MOL    N38 5512   6.059   5.118   0.654  0.2916  0.4928  1.0328
   18MOL    C39 5513   6.090   5.192   0.782  1.2674  0.6334  0.6002
   18MOL    C40 5514   6.117   4.989   0.652  0.1601 -0.0869 -1.4354
   18MOL    H41 5515   6.009   5.378   0.387  0.1478  0.2536  0.3187
   18MOL    H42 5516   6.094   5.420   0.532 -0.1619 -1.6705  1.1414
   18MOL    H43 5517   5.899   5.323   0.658 -0.1754 -0.0863  0.1570
   18MOL    H44 5518   6.148   5.131   0.851 -0.6064 -1.4345  0.3956
   18MOL    H45 5519   6.154   5.278   0.764  0.9651  0.5682 -0.8413
   18MOL    H46 5520   6.000   5.220   0.836  2.2581 -0.0081  2.6180
   18MOL    H47 5521   6.223   5.002   0.633  0.1788  0.3758 -1.0272
   18MOL    H48 5522   6.072   4.931   0.571 -0.2850 -2.8130  0.6739
   18MOL    H49 5523   6.101   4.939   0.748  0.3062 -2.6772 -2.6932
   18MOL    C50 5524   5.775   5.271   0.500 -0.3157 -0.6519  0.1686
   18MOL    C51 5525   5.669   5.223   0.600  0.1626  0.1205 -0.2766
   18MOL    C52 5526   5.541   5.170   0.528  0.5676  0.2648 -0.2727
   18MOL    O53 5527   5.460   5.253   0.485  0.4082  0.5038 -0.3367
   18MOL    N54 5528   5.525   5.038   0.511  0.0941 -0.3226 -0.6608
   18MOL    C55 5529   5.619   4.929   0.550  0.0350  0.0098 -0.2198
   18MOL    C56 5530   5.403   4.994   0.440 -0.1199 -0.0719  0.3821
   18MOL    H57 5531   5.740   5.364   0.455 -2.1399 -1.3233  0.1602
   18MOL    H58 5532   5.784   5.206   0.413  2.9095 -0.4572  0.2896
   18MOL    H59 5533   5.712   5.138   0.653  1.6676 -0.6202 -2.6099
   18MOL    H60 5534   5.641   4.930   0.657 -0.5324  0.2705 -0.0991
   18MOL    H61 5535   5.568   4.840   0.514 -2.7514  0.0715  3.2120
   18MOL    H62 5536   5.712   4.928   0.494  0.8894 -1.8788  1.1722
   18MOL    H63 5537   5.362   4.910   0.497  1.7974 -1.1414  0.2531
   18MOL    H64 5538   5.423   4.961   0.338 -1.8680  0.4472 -0.1449
   18MOL    H65 5539   5.323   5.064   0.420  1.0285  1.1034 -0.1361
   18MOL    C66 5540   5.636   5.324   0.715 -0.1552 -0.3976 -0.1439
   18MOL    C67 5541   5.589   5.254   0.845  0.3375 -0.2646  0.3653
   18MOL    C68 5542   5.525   5.355   0.942  0.6646  0.0357  0.0592
   18MOL    O69 5543   5.590   5.462   0.945  0.6704  0.1543  0.1338
   18MOL    N70 5544   5.419   5.317   1.021 -0.7937  0.1965 -0.1236
   18MOL    C71 5545   5.395   5.380   1.148  0.3168 -0.1946 -0.3002
   18MOL    C72 5546   5.326   5.211   0.989 -0.0583  0.2657  0.3536
   18MOL    H73 5547   5.727   5.382   0.729 -0.1841  0.1333 -1.9539
   18MOL    H74 5548   5.566   5.402   0.686  1.3252  0.9342 -0.2040
   18MOL    H75 5549   5.519   5.178   0.811  0.0861  0.7986 -1.5206
   18MOL    H76 5550   5.466   5.457   1.177 -3.6022  1.9081  4.4386
   18MOL    H77 5551   5.303   5.438   1.137  0.3036 -0.2583 -0.5241
   18MOL    H78 5552   5.381   5.303   1.224 -3.2434 -0.1125 -0.8022
   18MOL    H79 5553   5.227   5.214   1.034 -0.4548  2.0014 -0.6036
   18MOL    H80 5554   5.375   5.121   1.028 -0.7886 -0.0999  0.4452
   18MOL    H81 5555   5.304   5.206   0.882  1.4704  1.1528 -0.0216
   18MOL    C82 5556   5.715   5.193   0.918  0.5270  0.2873  0.4573
   18MOL    C83 5557   5.705   5.073   1.021  0.4236 -0.1970  0.0602
   18MOL    C84 5558   5.632   4.947   0.960  0.3542 -0.5413 -0.0198
   18MOL    O85 5559   5.504   4.950   0.937 -0.1000 -0.1518  0.2598
   18MOL    N86 5560   5.701   4.846   0.908  0.0402  0.2134  0.1353
   18MOL    C87 5561   5.847   4.833   0.926 -0.2412 -0.6332 -0.6004
   18MOL    C88 5562   5.645   4.726   0.842 -0.5950  0.2268  0.0677
   18MOL    H89 5563   5.793   5.176   0.844 -0.7855  1.0071 -1.1215
   18MOL    H90 5564   5.772   5.274   0.964  0.5816 -0.8504  2.4550
   18MOL    H91 5565   5.811   5.049   1.034  0.5614 -0.2152 -1.1083
   18MOL    H92 5566   5.854   4.819   1.034  0.5000 -1.6906 -0.7740
   18MOL    H93 5567   5.885   4.746   0.873  2.2923  0.8025 -1.1916
   18MOL    H94 5568   5.902   4.920   0.889  0.9332 -1.5920 -1.1404
   18MOL    H95 5569   5.559   4.749   0.777  0.2789  0.2027 -1.1147
   18MOL    H96 5570   5.611   4.665   0.926 -1.6717  1.9410  0.9031
   18MOL    H97 5571   5.709   4.665   0.779 -2.1902 -0.9674 -0.4326
   18MOL    C98 5572   5.639   5.118   1.155  0.2753 -0.2377 -0.9881
   18MOL    C99 5573   5.679   5.054   1.287  0.6674 -0.7370 -0.2199
   18MOL   C100 5574   5.576   5.083   1.403  0.0050  0.9075 -0.2163
   18MOL   O101 5575   5.523   5.193   1.407  0.2081  0.0621  0.1947
   18MOL   N102 5576   5.546   4.997   1.503  0.4945 -0.1149 -1.1348
   18MOL   C103 5577   5.453   5.036   1.615  0.0236  0.0220  0.1896
   18MOL   C104 5578   5.619   4.869   1.518 -0.2656  0.0854 -0.4198
   18MOL   H105 5579   5.631   5.226   1.169  1.7249 -0.4027  1.4118
   18MOL   H106 5580   5.535   5.092   1.136  1.0916 -2.7057 -2.2849
   18MOL   H107 5581   5.670   4.948   1.264  1.1974 -0.5615 -1.2940
   18MOL   H108 5582   5.348   5.022   1.590 -0.5195  2.1518  1.1286
   18MOL   H109 5583   5.468   4.994   1.715  0.1033  1.2516  0.7125
   18MOL   H110 5584   5.463   5.142   1.641  2.7878 -0.1058 -0.1734
   18MOL   H111 5585   5.581   4.810   1.602  2.2621 -2.5494 -1.0275
   18MOL   H112 5586   5.719   4.895   1.555 -0.6277  0.3677  0.3832
   18MOL   H113 5587   5.608   4.800   1.434 -1.0632 -0.0903 -0.1699
   18MOL   C114 5588   5.829   5.076   1.333 -0.2900 -0.0042  0.4327
   18MOL   C115 5589   5.874   5.229   1.329 -0.0605 -0.3012  0.3559
   18MOL   C116 5590   5.942   5.271   1.194 -0.0061  0.8292  0.0729
   18MOL   O117 5591   6.005   5.191   1.136 -0.3686  0.3021  0.0148
   18MOL   N118 5592   5.929   5.392   1.149 -0.1527 -0.3683 -0.4068
   18MOL   C119 5593   5.988   5.428   1.023  0.1472 -0.1809 -0.1185
   18MOL   C120 5594   5.843   5.496   1.209 -0.3177 -0.2586 -1.2389
   18MOL   H121 5595   5.844   5.034   1.433 -2.5020  0.3210  0.9361
   18MOL   H122 5596   5.889   5.021   1.261  1.8802  1.3174  1.1666
   18MOL   H123 5597   5.783   5.281   1.358 -0.9418 -1.9327  0.5043
   18MOL   H124 5598   5.933   5.394   0.935 -0.4311 -0.0646  0.1901
   18MOL   H125 5599   5.990   5.537   1.019 -1.5598 -0.0247  2.0518
   18MOL   H126 5600   6.087   5.386   1.007 -0.6354 -0.6491 -4.2989
   18MOL   H127 5601   5.843   5.491   1.318  0.7745  0.4831 -1.1934
   18MOL   H128 5602   5.745   5.466   1.172 -1.5976 -1.2706  2.7350
   18MOL   H129 5603   5.858   5.600   1.182  2.0114 -0.0473  0.7438
   18MOL   C130 5604   5.963   5.268   1.450 -0.4455 -0.3779  0.5268
   18MOL   C131 5605   6.099   5.192   1.468 -0.9858  0.0234 -0.2973
   18MOL   C132 5606   6.088   5.091   1.582 -0.1017  0.1655 -0.5146
   18MOL   O133 5607   6.070   5.133   1.694 -0.1347 -0.3604  0.4854
   18MOL   N134 5608   6.095   4.957   1.560  0.2019 -0.2821 -0.6415
   18MOL   C135 5609   6.166   4.901   1.443 -0.0549  0.4516 -0.1577
   18MOL   C136 5610   6.054   4.861   1.663 -0.2200 -0.0583 -0.1711
   18MOL   H137 5611   5.986   5.372   1.426 -1.2942 -0.5660 -1.1742
   18MOL   H138 5612   5.901   5.268   1.539  0.7280  1.0808  1.3814
   18MOL   H139 5613   6.123   5.136   1.377  1.1188 -0.3517  0.4680
   18MOL   H140 5614   6.238   4.967   1.395 -0.8870  1.1885 -0.4186
   18MOL   H141 5615   6.218   4.811   1.476 -2.5545 -0.9948  0.0262
   18MOL   H142 5616   6.103   4.859   1.364 -1.6984  0.4106  1.1316
   18MOL   H143 5617   6.077   4.756   1.641  0.5989  0.5497 -2.3788
   18MOL   H144 5618   5.948   4.863   1.689  0.1378  0.7975  1.2874
   18MOL   H145 5619   6.109   4.877   1.756 -3.3421 -0.1779  1.7649
   18MOL   C146 5620   6.212   5.291   1.504  0.2581  0.0144 -0.6020
   18MOL   C147 5621   6.293   5.347   1.383  0.2899 -0.0884 -0.4161
   18MOL   C148 5622   6.385   5.240   1.322  0.2177  0.9113  0.2972
   18MOL   O149 5623   6.422   5.145   1.390 -0.1193  0.2832  0.7598
   18MOL   N150 5624   6.422   5.242   1.196  0.2595  0.3010 -1.1206
   18MOL   C151 5625   6.509   5.136   1.144 -0.1908  0.0278  0.3964
   18MOL   C152 5626   6.366   5.336   1.097 -0.0783 -0.2109  0.4219
   18MOL   H153 5627   6.164   5.375   1.554  0.6358  0.2454 -0.6341
   18MOL   H154 5628   6.284   5.247   1.573  0.4252  1.8707  0.4282
   18MOL   H155 5629   6.217   5.382   1.313 -0.3945 -0.7219  0.0004
   18MOL   H156 5630   6.587   5.189   1.089 -1.9517  1.6366 -0.6300
   18MOL   H157 5631   6.552   5.065   1.215 -0.8576 -0.3708  0.4094
   18MOL   H158 5632   6.443   5.080   1.077  0.9666 -2.2601  1.1120
   18MOL   H159 5633   6.454   5.377   1.048 -1.8297  3.4873  0.2011
   18MOL   H160 5634   6.312   5.420   1.142 -3.1252 -2.0148  0.3061
   18MOL   H161 5635   6.307   5.294   1.015 -1.8543  1.8819  0.5939
   18MOL   C162 5636   6.374   5.469   1.425  0.2394 -0.2870  0.5075
   18MOL   C163 5637   6.468   5.472   1.552  0.0951  0.4799  1.2539
   18MOL   C164 5638   6.390   5.509   1.681  0.0623 -0.4877 -0.2657
   18MOL   O165 5639   6.336   5.623   1.682 -1.2728  0.0931 -0.3743
   18MOL   N166 5640   6.374   5.423   1.786  0.1606  0.3024  0.3086
   18MOL   C167 5641   6.461   5.309   1.810  0.5842 -0.3629  0.0549
   18MOL   C168 5642   6.279   5.468   1.891 -0.1443  0.0874 -1.0041
   18MOL   H169 5643   6.429   5.505   1.338 -1.6287 -0.0673 -0.6106
   18MOL   H170 5644   6.300   5.547   1.445  2.7795  2.6148 -0.9770
   18MOL   H171 5645   6.527   5.381   1.557 -0.1326  0.2434 -0.3327
   18MOL   H172 5646   6.412   5.247   1.885 -0.7886 -1.8160 -1.9990
   18MOL   H173 5647   6.487   5.245   1.726  1.7183  0.7398 -0.4607
   18MOL   H174 5648   6.548   5.353   1.859 -1.6126  0.2778  3.5575
   18MOL   H175 5649   6.310   5.423   1.985  1.3255  2.1589 -0.4805
   18MOL   H176 5650   6.179   5.430   1.872 -0.2037  1.2501 -3.1958
   18MOL   H177 5651   6.269   5.576   1.900 -0.1334 -0.0229  0.3949
   18MOL   C178 5652   6.586   5.575   1.536  0.0015  0.7077  0.0581
   18MOL   C179 5653   6.673   5.612   1.662 -0.3963  0.4121  0.7499
   18MOL   C180 5654   6.641   5.753   1.712  0.3267  0.6551  0.1677
   18MOL   O181 5655   6.653   5.848   1.630  0.1495  0.8727  0.4873
   18MOL   N182 5656   6.603   5.768   1.844 -0.7931  0.5914 -0.0393
   18MOL   C183 5657   6.622   5.663   1.948  0.0429 -0.0302  0.3411
   18MOL   C184 5658   6.553   5.900   1.888  0.7531 -0.5008 -0.2307
   18MOL   H185 5659   6.657   5.542   1.459 -0.9277  0.1109 -0.5544
   18MOL   H186 5660   6.541   5.666   1.497  1.3995  0.8412 -1.3291
   18MOL   H187 5661   6.659   5.534   1.736  2.6994 -1.6850 -0.7402
   18MOL   H188 5662   6.701   5.593   1.922  1.0943  1.0471  0.5879
   18MOL   H189 5663   6.631   5.698   2.050 -2.7519 -0.7341  0.8575
   18MOL   H190 5664   6.529   5.606   1.950  0.0547 -0.0879 -0.4965
   18MOL   H191 5665   6.516   5.966   1.809 -2.2611 -0.4439  1.1659
   18MOL   H192 5666   6.629   5.958   1.941  2.2370 -2.4345 -0.2149
   18MOL   H193 5667   6.474   5.879   1.960  0.0335 -2.2980 -1.5121
   18MOL   C194 5668   6.827   5.594   1.627  0.3147  0.7841 -0.1478
   18MOL   C195 5669   6.887   5.447   1.637  0.7126  0.0515 -0.1431
   18MOL   C196 5670   6.881   5.403   1.789  0.3785  0.0262 -0.5127
   18MOL   O197 5671   6.913   5.494   1.871  0.5727  1.2322  0.4271
   18MOL   N198 5672   6.827   5.283   1.831  0.1710 -0.0086 -0.1445
   18MOL   C199 5673   6.804   5.245   1.973  0.3866  0.5774  0.0625
   18MOL   C200 5674   6.806   5.171   1.731 -1.1301 -0.6160 -0.7698
   18MOL   H201 5675   6.843   5.631   1.526 -1.6234  0.0959 -0.7329
   18MOL   H202 5676   6.877   5.667   1.690  0.4075  0.5975 -0.0044
   18MOL   H203 5677   6.810   5.388   1.587  0.8090 -1.1353  1.0729
   18MOL   H204 5678   6.867   5.158   1.992  1.6048  1.2571 -0.7925
   18MOL   H205 5679   6.817   5.317   2.054  0.9213  0.2770  0.2513
   18MOL   H206 5680   6.704   5.202   1.976  1.0344 -1.1382 -2.0348
   18MOL   H207 5681   6.712   5.161   1.679 -1.0814  1.1099 -1.2319
   18MOL   H208 5682   6.801   5.074   1.780 -0.5797  0.4550  1.4961
   18MOL   H209 5683   6.885   5.171   1.656 -2.5058  0.4197 -2.2203
   18MOL   C210 5684   7.026   5.432   1.569  0.0159  1.0177  0.4083
   18MOL   C211 5685   7.035   5.458   1.415 -0.5830  0.3238  0.5237
   18MOL   C212 5686   6.917   5.392   1.351  0.2080  0.5943 -0.2211
   18MOL   O213 5687   6.903   5.273   1.376  0.2576 -0.5115  0.0324
   18MOL   N214 5688   6.835   5.460   1.270  0.0308  0.4792  0.1096
   18MOL   C215 5689   6.867   5.592   1.216  0.2744 -0.3727  0.1327
   18MOL   C216 5690   6.713   5.390   1.225 -0.4290  0.2532 -0.2485
   18MOL   H217 5691   7.102   5.479   1.631 -0.1123  2.4607 -0.5242
   18MOL   H218 5692   7.046   5.325   1.579  1.4135  1.0772 -1.5889
   18MOL   H219 5693   7.030   5.566   1.402 -1.2635  0.0395 -1.7945
   18MOL   H220 5694   6.788   5.592   1.141 -1.3970 -2.0685  1.8189
   18MOL   H221 5695   6.848   5.668   1.292 -2.1825 -0.4504 -0.3548
   18MOL   H222 5696   6.963   5.598   1.165  0.7024  0.4482  1.0174
   18MOL   H223 5697   6.677   5.304   1.282  0.3097 -1.4162 -2.2527
   18MOL   H224 5698   6.727   5.360   1.122  2.8511  0.1199  0.1972
   18MOL   H225 5699   6.628   5.458   1.229 -0.3486  0.3320  0.1601
   18MOL   C226 5700   7.169   5.398   1.367  0.0490 -0.2188  0.0145
   18MOL   C227 5701   7.298   5.487   1.396  0.6208  0.5790  0.0867
   18MOL   C228 5702   7.305   5.608   1.305  0.1219  0.3974 -0.0582
   18MOL   O229 5703   7.336   5.585   1.184 -0.6256  0.2036 -0.2745
   18MOL   N230 5704   7.307   5.734   1.358  0.6344 -0.5682 -0.0336
   18MOL   C231 5705   7.357   5.843   1.283 -0.8105  0.3389 -0.1495
   18MOL   C232 5706   7.233   5.768   1.476 -0.2308 -0.4769  0.1389
   18MOL   H233 5707   7.187   5.296   1.400 -1.3778 -0.8198 -1.0028
   18MOL   H234 5708   7.154   5.401   1.259 -0.9756  0.7116  0.1810
   18MOL   H235 5709   7.292   5.520   1.500 -0.3579 -0.6607  0.4398
   18MOL   H236 5710   7.281   5.919   1.265  1.9329  3.0288 -0.8446
   18MOL   H237 5711   7.435   5.897   1.337 -1.8100  0.3243  1.3147
   18MOL   H238 5712   7.403   5.802   1.193  0.6547 -2.2083  1.6922
   18MOL   H239 5713   7.189   5.867   1.481 -0.4593 -0.6745  2.3865
   18MOL   H240 5714   7.297   5.754   1.564  1.1644  0.2771 -0.7325
   18MOL   H241 5715   7.141   5.712   1.488  0.4800 -1.3879  1.5057
   18MOL   C242 5716   7.429   5.404   1.387 -0.6847 -0.3363 -0.1818
   18MOL   C243 5717   7.548   5.426   1.496  0.3127  0.0727  0.5627
   18MOL   C244 5718   7.503   5.373   1.629  0.3402 -0.0791 -1.0557
   18MOL   O245 5719   7.449   5.455   1.707  0.5116  0.3168  0.2011
   18MOL   N246 5720   7.508   5.236   1.660  0.6196  0.4426  0.7418
   18MOL   C247 5721   7.444   5.189   1.785 -0.2116 -0.2218 -0.8828
   18MOL   C248 5722   7.606   5.143   1.617  0.0686  0.4441 -0.1855
   18MOL   H249 5723   7.411   5.297   1.380  0.3839 -0.5733  0.6178
   18MOL   H250 5724   7.485   5.417   1.294 -0.5048  1.2194  0.1275
   18MOL   H251 5725   7.631   5.363   1.464 -0.8110 -0.6092 -1.1214
   18MOL   H252 5726   7.501   5.237   1.865  1.0857 -1.5686 -0.9826
   18MOL   H253 5727   7.346   5.237   1.779  0.7547  1.5163 -3.5756
   18MOL   H254 5728   7.444   5.082   1.803 -1.8818  0.1659  1.8069
   18MOL   H255 5729   7.693   5.149   1.682 -0.0609  3.8101 -0.2233
   18MOL   H256 5730   7.621   5.181   1.515  1.7166 -0.5965 -0.3312
   18MOL   H257 5731   7.578   5.041   1.593 -0.5654  0.5767 -0.0396
   18MOL   C258 5732   7.593   5.577   1.497 -0.1907 -0.0347 -0.8856
   18MOL   C259 5733   7.731   5.609   1.573 -0.4829 -0.1954  0.3002
   18MOL   C260 5734   7.759   5.758   1.577  0.0183  0.2928 -0.2857
   18MOL   O261 5735   7.742   5.821   1.471 -0.3582  0.3784  0.4207
   18MOL   N262 5736   7.785   5.824   1.697 -0.3305 -0.0658 -0.0034
   18MOL   C263 5737   7.830   5.772   1.825  0.7551 -0.1670  0.2481
   18MOL   C264 5738   7.785   5.964   1.686  0.6546 -0.4504  0.4756
   18MOL   H265 5739   7.610   5.598   1.392  2.5411  1.1302 -0.2375
   18MOL   H266 5740   7.515   5.644   1.535  0.4660 -0.0272  0.4982
   18MOL   H267 5741   7.733   5.570   1.674  0.9992  0.2347  0.4551
   18MOL   H268 5742   7.785   5.822   1.911 -0.5444  1.3857 -1.2857
   18MOL   H269 5743   7.839   5.664   1.836  0.9975 -0.1430  0.2924
   18MOL   H270 5744   0.078   5.811   1.823  0.5190  0.4284 -1.4007
   18MOL   H271 5745   7.691   6.008   1.654  1.2852  1.2022  0.8482
   18MOL   H272 5746   7.847   5.992   1.600 -0.3974  1.3342  0.2902
   18MOL   H273 5747   7.820   6.025   1.770  0.0130 -0.9034  1.0740
   18MOL   C274 5748   0.006   5.533   1.513 -0.1679 -0.5559 -1.4318
   18MOL   C275 5749   0.045   5.549   1.362 -0.1884 -0.6040  0.6609
   18MOL   C276 5750   7.819   5.457   1.268  0.3901 -0.1955  0.5999
   18MOL   O277 5751   7.827   5.337   1.291  0.0778 -0.2430  0.0415
   18MOL   N278 5752   7.742   5.507   1.167 -0.4965 -0.0992  0.3112
   18MOL   C279 5753   7.709   5.656   1.150 -0.0403  0.2437 -0.0400
   18MOL   C280 5754   7.679   5.415   1.073  0.3234 -0.3102  0.2026
   18MOL   H281 5755   0.093   5.571   1.566  0.8536 -2.6810 -1.5207
   18MOL   H282 5756   7.852   5.426   1.531  0.1262 -0.6447 -1.8081
   18MOL   H283 5757   0.032   5.654   1.337 -3.3536 -1.1781 -0.2453
   18MOL   H284 5758   7.772   5.717   1.084 -0.4968  1.1437  0.3435
   18MOL   H285 5759   7.613   5.679   1.103 -0.3138 -1.1457 -0.1610
   18MOL   H286 5760   7.689   5.701   1.247 -2.0248 -1.0077  0.1555
   18MOL   H287 5761   7.599   5.469   1.023 -0.1128  0.4414  1.6957
   18MOL   H288 5762   7.624   5.330   1.112 -2.6053  0.9259 -1.1089
   18MOL   H289 5763   7.747   5.376   0.997 -0.1023  1.2914 -1.0283
   18MOL   C290 5764   0.204   5.529   1.357  0.0746 -0.3808 -0.1408
   18MOL   C291 5765   0.261   5.563   1.218 -0.5019  0.7980 -0.7958
   18MOL   C292 5766   0.266   5.439   1.123 -0.0833  0.6208 -1.3289
   18MOL   O293 5767   0.313   5.332   1.166 -0.2555 -0.1269 -0.5260
   18MOL   N294 5768   0.215   5.447   0.996  0.0038  0.2908 -0.2888
   18MOL   C295 5769   0.199   5.324   0.911  0.1221 -0.2799 -0.0616
   18MOL   C296 5770   0.181   5.573   0.928  0.0901 -0.1108 -0.5542
   18MOL   H297 5771   0.251   5.592   1.433 -2.9302  1.2773  0.4188
   18MOL   H298 5772   0.227   5.428   1.393  0.0065 -0.3497 -0.0095
   18MOL   H299 5773   0.208   5.646   1.172 -1.5446  0.4017 -0.3134
   18MOL   H300 5774   0.115   5.335   0.842 -0.6500 -0.5470  0.8225
   18MOL   H301 5775   0.289   5.308   0.852  1.9219  1.4661  2.1376
   18MOL   H302 5776   0.193   5.233   0.971  0.7475 -1.0410 -1.1480
   18MOL   H303 5777   0.082   5.596   0.969 -0.2246  0.2376 -1.4932
   18MOL   H304 5778   0.159   5.560   0.822  2.4648  0.2881 -1.1270
   18MOL   H305 5779   0.257   5.649   0.943  0.6243 -0.4640 -1.4588
   18MOL   C306 5780   0.407   5.615   1.237  0.0734 -0.3518  0.2417
   18MOL   C307 5781   0.402   5.767   1.268 -0.0135  0.1974  0.1188
   18MOL   C308 5782   0.545   5.826   1.287  0.2033  0.8574  0.1684
   18MOL   O309 5783   0.590   5.844   1.399 -0.6063  0.1093 -0.4815
   18MOL   N310 5784   0.623   5.865   1.177  0.0583  0.1998 -0.1975
   18MOL   C311 5785   0.752   5.933   1.183 -0.1683 -0.5158 -0.0588
   18MOL   C312 5786   0.575   5.850   1.041  0.5991  0.3669 -0.3544
   18MOL   H313 5787   0.461   5.554   1.310  0.9349  1.5788  1.2428
   18MOL   H314 5788   0.466   5.602   1.147 -1.1363  0.5128 -0.6951
   18MOL   H315 5789   0.348   5.827   1.195 -0.1313  0.6470  0.5744
   18MOL   H316 5790   0.761   5.985   1.278 -0.3134 -0.4179 -0.0992
   18MOL   H317 5791   0.841   5.871   1.174  0.6299  1.0476 -3.3481
   18MOL   H318 5792   0.763   6.006   1.104 -1.1064  2.4370  2.4377
   18MOL   H319 5793   0.657   5.795   0.996 -0.4350 -0.4276 -1.2982
   18MOL   H320 5794   0.575   5.953   1.004  0.7136  0.9471  1.2212
   18MOL   H321 5795   0.482   5.799   1.016 -0.5640  1.5846  1.3902
   18MOL   H322 5796   0.339   5.789   1.354  1.5885 -0.2937  1.4570
   19MOL     C1 5797   2.176   4.178   1.048  0.0367  0.2981 -0.4259
   19MOL     C2 5798   2.199   4.321   0.994  0.4575 -0.0037 -0.2627
   19MOL     C3 5799   2.077   4.408   1.027 -0.0775  0.2143  0.1703
   19MOL     O4 5800   1.970   4.363   0.994 -0.5756  0.0980 -0.3540
   19MOL     N5 5801   2.091   4.517   1.105 -0.3515  0.0096  0.7705
   19MOL     C6 5802   2.217   4.568   1.160  0.1506  0.2889 -0.2292
   19MOL     C7 5803   1.980   4.608   1.139 -0.0097 -0.0981  0.3270
   19MOL     H8 5804   2.188   4.161   1.155  0.2608 -1.2342 -0.6788
   19MOL     H9 5805   2.238   4.113   0.986 -2.4432 -0.6580 -1.9637
   19MOL    H10 5806   2.291   4.360   1.039  0.6933 -2.7345  1.8349
   19MOL    H11 5807   2.281   4.595   1.076  1.5471 -0.0252  0.7223
   19MOL    H12 5808   2.222   4.647   1.234 -0.9957 -0.5780  0.7991
   19MOL    H13 5809   2.259   4.481   1.212 -0.9040  1.5257  2.7811
   19MOL    H14 5810   1.887   4.557   1.115  0.5065 -0.1143 -1.7831
   19MOL    H15 5811   1.985   4.697   1.075 -0.4566  0.7213  1.4257
   19MOL    H16 5812   1.969   4.638   1.243 -0.7964  0.6381  0.0395
   19MOL    H17 5813   2.080   4.137   1.016  0.9974 -2.4111  0.0176
   19MOL    C18 5814   2.211   4.321   0.839 -0.0744  0.0266  0.5830
   19MOL    C19 5815   2.273   4.453   0.770  0.0916 -0.0185 -0.1985
   19MOL    C20 5816   2.245   4.439   0.619  0.8023 -0.2254  0.2606
   19MOL    O21 5817   2.300   4.358   0.554 -0.1220  0.0403  0.2122
   19MOL    N22 5818   2.162   4.528   0.561  0.4908 -0.3883 -0.8820
   19MOL    C23 5819   2.050   4.580   0.639  0.0814 -0.7345 -0.1686
   19MOL    C24 5820   2.143   4.544   0.417  0.1386 -0.6635 -1.0019
   19MOL    H25 5821   2.287   4.248   0.810  0.7089  0.8118  0.6487
   19MOL    H26 5822   2.114   4.290   0.800 -1.2873 -0.0863  3.5517
   19MOL    H27 5823   2.224   4.539   0.816 -1.6837 -0.0931 -1.8682
   19MOL    H28 5824   1.997   4.502   0.694  0.6328  0.2316  1.7756
   19MOL    H29 5825   2.084   4.662   0.701  2.3873 -0.0919 -2.2112
   19MOL    H30 5826   1.972   4.626   0.578  1.6091  1.7062 -0.3360
   19MOL    H31 5827   2.216   4.475   0.375  1.5652  0.0971  0.1909
   19MOL    H32 5828   2.163   4.646   0.385 -3.3897  0.4189 -0.0035
   19MOL    H33 5829   2.047   4.512   0.377  0.1056 -2.1476  0.2132
   19MOL    C34 5830   2.419   4.464   0.795 -0.6955  0.2608 -0.3212
   19MOL    C35 5831   2.477   4.611   0.803  0.3848 -0.4828  0.6212
   19MOL    C36 5832   2.459   4.678   0.658  0.6524  0.3852 -0.0795
   19MOL    O37 5833   2.520   4.625   0.566 -0.4603 -0.5955  0.1553
   19MOL    N38 5834   2.401   4.800   0.652 -0.0573  0.7972  0.7860
   19MOL    C39 5835   2.396   4.867   0.522  0.3898  0.2907 -0.1597
   19MOL    C40 5836   2.331   4.864   0.762  0.3253  0.1197  0.1501
   19MOL    H41 5837   2.428   4.425   0.896 -0.4318  0.9008 -0.0904
   19MOL    H42 5838   2.477   4.413   0.718 -1.0454 -0.0545 -0.3769
   19MOL    H43 5839   2.411   4.658   0.876 -1.2769  0.1082 -1.2058
   19MOL    H44 5840   2.350   4.788   0.462 -1.3594  0.3465  1.0958
   19MOL    H45 5841   2.342   4.960   0.507  0.0061  0.1408  0.2941
   19MOL    H46 5842   2.498   4.892   0.492  0.1121  2.5597  0.7136
   19MOL    H47 5843   2.269   4.801   0.826  0.8462  1.0775  1.6049
   19MOL    H48 5844   2.273   4.953   0.736 -0.2629 -0.0921  0.7101
   19MOL    H49 5845   2.407   4.914   0.821  0.2750  1.9380 -1.2903
   19MOL    C50 5846   2.635   4.608   0.830 -0.2830 -0.8934  0.0798
   19MOL    C51 5847   2.696   4.678   0.951 -0.2027  0.8091 -0.5473
   19MOL    C52 5848   2.655   4.603   1.079  0.1781 -0.1974 -0.1832
   19MOL    O53 5849   2.535   4.594   1.102  0.4437  0.1402 -0.2453
   19MOL    N54 5850   2.745   4.559   1.171 -0.2811 -0.4822  0.6974
   19MOL    C55 5851   2.707   4.472   1.275  0.6263  0.6254 -0.8557
   19MOL    C56 5852   2.878   4.622   1.188 -0.1076  0.1837 -0.6504
   19MOL    H57 5853   2.664   4.504   0.845  0.2798 -0.5850  1.2132
   19MOL    H58 5854   2.695   4.635   0.744  0.4669 -2.5732  0.0484
   19MOL    H59 5855   2.805   4.682   0.949 -0.1695  1.9095  1.7532
   19MOL    H60 5856   2.657   4.520   1.359  0.0378  0.6029 -1.1909
   19MOL    H61 5857   2.652   4.385   1.239  1.1910 -0.7581  1.5353
   19MOL    H62 5858   2.795   4.423   1.315  0.0300 -0.2700 -0.6253
   19MOL    H63 5859   2.944   4.550   1.238  0.9039  1.0678 -0.7102
   19MOL    H64 5860   2.877   4.707   1.255  0.0341  0.0832 -0.5200
   19MOL    H65 5861   2.934   4.629   1.095  0.6316 -1.5100 -0.3649
   19MOL    C66 5862   2.652   4.831   0.950 -0.5285 -0.7421  0.4255
   19MOL    C67 5863   2.715   4.926   1.056  0.6738  0.5293 -0.5401
   19MOL    C68 5864   2.621   5.044   1.093  0.5839  0.2110 -0.9184
   19MOL    O69 5865   2.627   5.143   1.018  0.0653 -0.7716  0.2004
   19MOL    N70 5866   2.559   5.038   1.210  0.4674  0.0069 -0.4958
   19MOL    C71 5867   2.489   5.160   1.261 -0.7470  0.4994 -0.4957
   19MOL    C72 5868   2.544   4.924   1.302  0.0032 -0.1546 -0.2834
   19MOL    H73 5869   2.682   4.871   0.853  1.1856 -0.1916  1.1663
   19MOL    H74 5870   2.545   4.827   0.971 -0.4615 -2.7799  0.4804
   19MOL    H75 5871   2.730   4.870   1.148 -0.5334 -1.7554 -1.6760
   19MOL    H76 5872   2.456   5.235   1.189 -3.5688 -0.7760 -0.5973
   19MOL    H77 5873   2.398   5.141   1.317 -0.6810  0.3061 -0.4506
   19MOL    H78 5874   2.546   5.205   1.342  1.1156  1.0462 -2.0664
   19MOL    H79 5875   2.628   4.922   1.372 -0.2634  0.1982  0.0481
   19MOL    H80 5876   2.536   4.827   1.253 -1.7979 -0.0470 -0.2369
   19MOL    H81 5877   2.464   4.941   1.373 -0.0509 -3.7720  0.6192
   19MOL    C82 5878   2.859   4.964   1.009 -0.2836  0.7406  0.0982
   19MOL    C83 5879   2.894   5.044   0.878  0.2495  0.3926 -0.1500
   19MOL    C84 5880   2.906   4.974   0.742  0.1899 -0.6779  0.6285
   19MOL    O85 5881   3.000   4.894   0.735 -0.2067  0.3886 -0.2954
   19MOL    N86 5882   2.823   4.991   0.634 -0.5151  0.5448  0.7807
   19MOL    C87 5883   2.719   5.098   0.624 -0.6873 -0.2543 -0.3405
   19MOL    C88 5884   2.848   4.911   0.506  0.1375  0.1857  0.4599
   19MOL    H89 5885   2.912   5.005   1.094  1.4745  1.1818 -1.1788
   19MOL    H90 5886   2.910   4.868   0.994  0.0660  0.7366  1.3217
   19MOL    H91 5887   2.812   5.116   0.880 -0.5462 -0.5091 -0.0466
   19MOL    H92 5888   2.701   5.115   0.518 -2.9205  0.5582  0.1580
   19MOL    H93 5889   2.623   5.079   0.670 -0.2629 -0.1035  0.6315
   19MOL    H94 5890   2.746   5.191   0.675 -0.3681  1.2881 -3.1949
   19MOL    H95 5891   2.756   4.855   0.489  0.2027  0.3194 -0.3150
   19MOL    H96 5892   2.937   4.849   0.504  1.2832  1.7870  1.0015
   19MOL    H97 5893   2.856   4.981   0.424  3.5823 -0.6207  0.0350
   19MOL    C98 5894   3.021   5.124   0.895 -0.5672  0.1302 -0.2168
   19MOL    C99 5895   3.005   5.258   0.977 -0.2667 -0.4876  0.4106
   19MOL   C100 5896   2.930   5.359   0.893  0.0988  1.1849  0.1103
   19MOL   O101 5897   2.986   5.385   0.783  0.5720  0.7972 -0.2286
   19MOL   N102 5898   2.816   5.425   0.931 -0.4898  0.2260 -0.4139
   19MOL   C103 5899   2.740   5.500   0.826 -0.1209  0.3849  0.2560
   19MOL   C104 5900   2.769   5.443   1.073  0.4956 -0.3933 -0.5590
   19MOL   H105 5901   3.101   5.070   0.946  0.1832  1.0767 -0.3843
   19MOL   H106 5902   3.064   5.147   0.798 -0.5184 -0.9333 -0.4552
   19MOL   H107 5903   2.936   5.244   1.060  0.1996  0.6348  1.0016
   19MOL   H108 5904   2.636   5.468   0.814  0.6949 -2.3735  0.2949
   19MOL   H109 5905   2.751   5.603   0.860 -1.1632  0.0566  1.6596
   19MOL   H110 5906   2.773   5.478   0.725  1.4106 -1.2466  1.0936
   19MOL   H111 5907   2.836   5.505   1.132  0.3287 -2.2148  1.6284
   19MOL   H112 5908   2.777   5.351   1.131  0.7818  0.5942  0.9672
   19MOL   H113 5909   2.669   5.484   1.087  0.6459 -0.2557  0.1007
   19MOL   C114 5910   3.134   5.317   1.012 -0.4183 -0.0529 -0.8841
   19MOL   C115 5911   3.216   5.257   1.132 -0.0532 -0.1373  0.0275
   19MOL   C116 5912   3.155   5.286   1.270 -0.1053  0.4195  0.7021
   19MOL   O117 5913   3.100   5.398   1.284 -0.0116 -0.0491 -0.2509
   19MOL   N118 5914   3.158   5.195   1.369 -0.0080 -0.4087 -0.2928
   19MOL   C119 5915   3.077   5.213   1.487 -0.0145  0.0858 -0.1642
   19MOL   C120 5916   3.245   5.081   1.378 -0.4184 -0.2632  0.2742
   19MOL   H121 5917   3.192   5.305   0.921 -1.0393  2.0132 -1.5745
   19MOL   H122 5918   3.117   5.423   1.029  1.8304  0.2152 -0.1096
   19MOL   H123 5919   3.201   5.150   1.118  1.3257 -0.3406  0.1225
   19MOL   H124 5920   3.101   5.134   1.559 -1.8437  0.8331  1.3445
   19MOL   H125 5921   3.109   5.312   1.521  0.3164  0.1826 -0.7614
   19MOL   H126 5922   2.969   5.216   1.469  0.2831 -1.1677 -2.2580
   19MOL   H127 5923   3.349   5.103   1.355 -0.4688 -0.4974 -0.1749
   19MOL   H128 5924   3.202   5.005   1.312 -1.7179  0.8721 -0.2147
   19MOL   H129 5925   3.256   5.033   1.475  1.2062 -0.2025  0.1209
   19MOL   C130 5926   3.368   5.287   1.111  0.0507  0.2584  0.8583
   19MOL   C131 5927   3.437   5.214   0.990 -0.4179 -0.3555  0.2181
   19MOL   C132 5928   3.393   5.059   0.973 -0.9450 -1.0065 -0.4170
   19MOL   O133 5929   3.417   4.979   1.070 -0.4314  0.9284  0.5583
   19MOL   N134 5930   3.342   5.018   0.853 -0.3525  0.3997 -0.4400
   19MOL   C135 5931   3.318   5.098   0.732  0.0010  0.4525  0.3131
   19MOL   C136 5932   3.339   4.873   0.824 -0.0029 -0.3350 -0.3452
   19MOL   H137 5933   3.388   5.394   1.107  0.2435  0.2366  1.2607
   19MOL   H138 5934   3.430   5.253   1.195  0.6025  2.5509  1.3951
   19MOL   H139 5935   3.403   5.270   0.902 -1.7992 -1.7506 -0.1642
   19MOL   H140 5936   3.247   5.056   0.661  0.3860  0.8867 -0.3306
   19MOL   H141 5937   3.288   5.202   0.743 -0.5288  0.3667 -0.2677
   19MOL   H142 5938   3.413   5.105   0.679 -0.4530  2.0097 -0.3366
   19MOL   H143 5939   3.232   4.853   0.816  0.3035 -1.2031 -2.4205
   19MOL   H144 5940   3.390   4.811   0.898 -1.7613  0.4177  1.5344
   19MOL   H145 5941   3.383   4.855   0.726 -1.7808  3.0686 -1.8343
   19MOL   C146 5942   3.596   5.220   0.998  0.1558 -0.3933 -0.2238
   19MOL   C147 5943   3.672   5.170   0.877 -0.3636 -0.0028  0.2623
   19MOL   C148 5944   3.789   5.078   0.911  0.4153  0.0127 -0.2735
   19MOL   O149 5945   3.866   5.128   0.994  0.5378  0.6383 -0.1062
   19MOL   N150 5946   3.820   4.967   0.849 -0.1248  0.6819  0.3378
   19MOL   C151 5947   3.951   4.896   0.859 -0.1328  0.5701  0.1300
   19MOL   C152 5948   3.728   4.900   0.754 -0.5729  0.8337 -0.2385
   19MOL   H153 5949   3.631   5.320   1.020  0.8410 -0.9229  1.1405
   19MOL   H154 5950   3.627   5.174   1.092  1.6999  2.8742  0.9323
   19MOL   H155 5951   3.608   5.113   0.809 -1.2983  1.0210  0.2706
   19MOL   H156 5952   4.034   4.948   0.812  1.1982 -1.1678  0.4857
   19MOL   H157 5953   3.995   4.872   0.956 -0.5846 -0.9880 -0.0246
   19MOL   H158 5954   3.948   4.799   0.808  1.9573  1.6746 -2.1923
   19MOL   H159 5955   3.725   4.948   0.656 -1.6568 -3.4366 -2.4235
   19MOL   H160 5956   3.629   4.897   0.798  0.0287  0.7224  1.1506
   19MOL   H161 5957   3.749   4.793   0.746  0.3636  0.9856  0.1177
   19MOL   C162 5958   3.723   5.297   0.812  0.5237  0.1133  0.7946
   19MOL   C163 5959   3.783   5.277   0.673 -0.8906  0.1013  0.1559
   19MOL   C164 5960   3.874   5.396   0.651  0.0134 -0.3284  0.1740
   19MOL   O165 5961   3.810   5.495   0.613 -0.6523 -0.3274 -0.3795
   19MOL   N166 5962   4.010   5.391   0.662  0.4425 -0.2939  0.1946
   19MOL   C167 5963   4.097   5.513   0.643 -0.8436 -0.4056 -0.1858
   19MOL   C168 5964   4.082   5.271   0.708 -0.0691 -0.1427  0.3293
   19MOL   H169 5965   3.643   5.368   0.788  2.0736  0.6705 -3.3055
   19MOL   H170 5966   3.787   5.356   0.877 -2.5072  0.0722  3.9403
   19MOL   H171 5967   3.831   5.180   0.673 -0.3187  0.3800 -1.3175
   19MOL   H172 5968   4.187   5.492   0.585 -1.5870 -2.2025 -0.7233
   19MOL   H173 5969   4.047   5.593   0.588 -0.4307  0.4691  0.6985
   19MOL   H174 5970   4.148   5.542   0.735 -0.8600 -1.5684  0.1898
   19MOL   H175 5971   4.025   5.201   0.769 -4.0936  0.1973 -2.8512
   19MOL   H176 5972   4.171   5.298   0.765 -0.7441  1.6825  0.5779
   19MOL   H177 5973   4.116   5.230   0.613 -0.0896 -0.0172  0.2670
   19MOL   C178 5974   3.681   5.255   0.563  0.1723  0.2512  0.3601
   19MOL   C179 5975   3.726   5.235   0.420 -0.4068 -0.4444  0.3867
   19MOL   C180 5976   3.586   5.221   0.339  0.0337  0.2462  0.7303
   19MOL   O181 5977   3.532   5.111   0.336 -0.6834  0.0986  0.4577
   19MOL   N182 5978   3.535   5.333   0.283  0.4708 -0.0381  0.2035
   19MOL   C183 5979   3.592   5.472   0.299 -0.3607 -0.4789 -0.3445
   19MOL   C184 5980   3.403   5.332   0.212  0.0442 -0.3659  0.0843
   19MOL   H185 5981   3.626   5.164   0.587 -0.0937  0.3590  0.1682
   19MOL   H186 5982   3.613   5.340   0.567  1.0934  0.9837  0.5782
   19MOL   H187 5983   3.777   5.326   0.387  1.2020 -2.1029 -1.8405
   19MOL   H188 5984   3.602   5.487   0.407 -2.6867  0.2088 -0.1914
   19MOL   H189 5985   3.688   5.475   0.248  0.2309 -1.0288  0.7056
   19MOL   H190 5986   3.527   5.553   0.265 -2.3539 -0.9995  1.9953
   19MOL   H191 5987   3.360   5.432   0.213  0.4675 -0.1315 -1.8865
   19MOL   H192 5988   3.328   5.258   0.241  0.5621 -1.5135 -1.4312
   19MOL   H193 5989   3.418   5.313   0.105 -1.7009 -1.9375  0.0935
   19MOL   C194 5990   3.819   5.111   0.400 -0.6453  0.4446 -0.4423
   19MOL   C195 5991   3.890   5.100   0.263 -0.1494 -0.3076 -0.2531
   19MOL   C196 5992   3.986   5.221   0.239 -0.1221  0.4580 -0.7861
   19MOL   O197 5993   3.937   5.321   0.186 -0.3760  0.3326  0.6874
   19MOL   N198 5994   4.109   5.231   0.294 -1.4528 -0.2752 -0.3323
   19MOL   C199 5995   4.189   5.110   0.319 -0.1501 -0.2721  0.2257
   19MOL   C200 5996   4.171   5.362   0.305 -0.5690  0.3567 -0.0595
   19MOL   H201 5997   3.888   5.115   0.484  0.5934  0.2310 -1.4223
   19MOL   H202 5998   3.760   5.021   0.415  0.2248  0.0667  0.7199
   19MOL   H203 5999   3.956   5.014   0.274  0.1881 -0.4020 -2.8009
   19MOL   H204 6000   4.294   5.133   0.331 -1.0599  3.4519  1.5152
   19MOL   H205 6001   4.151   5.069   0.413  0.1847 -0.9720  0.0576
   19MOL   H206 6002   4.182   5.035   0.240  1.1391  0.5963 -0.7233
   19MOL   H207 6003   4.179   5.398   0.202 -1.7771  0.9090  0.0362
   19MOL   H208 6004   4.266   5.366   0.360 -0.6551  1.7896  0.0119
   19MOL   H209 6005   4.101   5.423   0.362 -4.2926 -2.7615 -1.1206
   19MOL   C210 6006   3.799   5.069   0.147 -0.1457  1.0122  0.0944
   19MOL   C211 6007   3.731   4.933   0.141  0.5904  0.3691 -0.2059
   19MOL   C212 6008   3.827   4.808   0.152 -0.4570 -0.1110  0.8760
   19MOL   O213 6009   3.905   4.795   0.057  0.2695 -0.8272  0.3089
   19MOL   N214 6010   3.826   4.729   0.260  0.1582  0.4013  0.0812
   19MOL   C215 6011   3.944   4.647   0.288  0.3567 -0.3490 -0.7299
   19MOL   C216 6012   3.728   4.715   0.369 -0.1602 -0.2683 -0.0529
   19MOL   H217 6013   3.719   5.142   0.139  0.0058  1.1255 -0.3595
   19MOL   H218 6014   3.856   5.096   0.058 -0.9373  2.2580 -0.0432
   19MOL   H219 6015   3.660   4.944   0.223  0.3497  2.4353 -0.6609
   19MOL   H220 6016   3.984   4.683   0.383 -1.8223  0.9197 -0.2597
   19MOL   H221 6017   3.923   4.542   0.308 -2.1445  0.6190  2.2083
   19MOL   H222 6018   4.021   4.648   0.211  0.5184 -3.4547 -0.6895
   19MOL   H223 6019   3.742   4.638   0.444  1.4353 -0.5279 -0.6055
   19MOL   H224 6020   3.630   4.694   0.326  0.1882 -1.6991 -0.1511
   19MOL   H225 6021   3.719   4.804   0.432  3.1529 -0.5575  0.9399
   19MOL   C226 6022   3.643   4.931   0.016  0.0143  0.3634 -0.2956
   19MOL   C227 6023   3.532   4.821   0.021  0.5463  0.3759 -0.0421
   19MOL   C228 6024   3.533   4.753   7.737 -0.2128  0.3410  0.4848
   19MOL   O229 6025   3.511   4.823   7.640 -0.9639  0.4380 -0.4770
   19MOL   N230 6026   3.569   4.627   7.722 -0.0555  0.4876  0.4918
   19MOL   C231 6027   3.567   4.523   7.829 -0.4536  0.2345 -0.3563
   19MOL   C232 6028   3.615   4.579   7.590  0.1711  0.1454 -0.1844
   19MOL   H233 6029   3.588   5.025   0.008 -1.7493 -0.5819  0.3439
   19MOL   H234 6030   3.708   4.928   7.782  1.3474  1.2095  0.6631
   19MOL   H235 6031   3.566   4.747   0.094  0.1775  0.9766  0.7498
   19MOL   H236 6032   3.485   4.533   0.046 -1.9805  0.1641 -2.0855
   19MOL   H237 6033   3.530   4.429   7.788 -0.3945 -0.5770  1.3776
   19MOL   H238 6034   3.662   4.512   0.029 -0.8073 -0.9477  0.0465
   19MOL   H239 6035   3.556   4.602   7.502 -1.0707 -0.9906  0.3417
   19MOL   H240 6036   3.603   4.471   7.596  2.1074 -0.0050  1.8068
   19MOL   H241 6037   3.721   4.596   7.566  0.7385 -1.7121  0.9298
   19MOL   C242 6038   3.399   4.884   0.061 -0.7049  0.2460  0.0992
   19MOL   C243 6039   3.277   4.803   0.106  0.6806  0.6926  0.3181
   19MOL   C244 6040   3.302   4.726   0.242 -0.3366 -0.6728 -0.7399
   19MOL   O245 6041   3.358   4.617   0.249  0.2007 -0.0561  0.0458
   19MOL   N246 6042   3.255   4.787   0.358  0.4075 -0.8064  0.3005
   19MOL   C247 6043   3.188   4.914   0.369  0.6978  0.0163 -0.6599
   19MOL   C248 6044   3.236   4.706   0.483 -0.4010  0.0395 -0.5487
   19MOL   H249 6045   3.415   4.947   0.149  1.6049  0.9719 -0.7787
   19MOL   H250 6046   3.363   4.937   7.826  2.7098 -1.7082 -2.5953
   19MOL   H251 6047   3.192   4.870   0.119 -1.9804 -1.9199 -2.6855
   19MOL   H252 6048   3.248   4.993   0.323  1.8403 -0.9283 -0.7950
   19MOL   H253 6049   3.083   4.917   0.341 -0.0059  1.7574  1.9818
   19MOL   H254 6050   3.191   4.944   0.474  1.4719 -1.4403 -0.2562
   19MOL   H255 6051   3.158   4.744   0.549  1.5626  1.3153  1.0931
   19MOL   H256 6052   3.324   4.706   0.548  0.0582 -2.2020 -1.1414
   19MOL   H257 6053   3.206   4.605   0.456  0.9808 -0.5855  0.2226
   19MOL   C258 6054   3.226   4.712   7.845 -0.1862  0.1091  0.2553
   19MOL   C259 6055   3.075   4.671   0.018 -0.2358 -0.5560 -0.1582
   19MOL   C260 6056   3.064   4.525   0.041 -0.0189 -0.3670  0.2996
   19MOL   O261 6057   3.127   4.458   7.818 -0.4804  0.5793 -0.5781
   19MOL   N262 6058   2.986   4.470   0.143 -0.8050 -0.2664 -0.0732
   19MOL   C263 6059   3.018   4.335   0.199 -0.0483  0.7783 -0.9596
   19MOL   C264 6060   2.885   4.540   0.220 -0.4338 -0.4408  0.2050
   19MOL   H265 6061   3.232   4.762   7.749  0.4538 -0.3882  0.0297
   19MOL   H266 6062   3.295   4.628   7.840  0.4162  0.6973 -1.4478
   19MOL   H267 6063   3.049   4.721   0.111 -1.1848  2.4783 -2.0007
   19MOL   H268 6064   3.092   4.342   0.278 -1.5360 -0.1478  0.5351
   19MOL   H269 6065   2.937   4.279   0.244  0.3303  2.1693  1.5751
   19MOL   H270 6066   3.063   4.276   0.119  0.5585  1.4027 -1.0941
   19MOL   H271 6067   2.836   4.476   0.295 -0.5877  0.2245  0.6758
   19MOL   H272 6068   2.810   4.548   0.142  1.1313  1.4328 -1.1336
   19MOL   H273 6069   2.917   4.642   0.242  2.2373 -1.5531  1.7987
   19MOL   C274 6070   2.986   4.725   7.755  0.0913 -0.2857 -0.4437
   19MOL   C275 6071   3.015   4.679   7.605  0.3995  0.0337 -0.0077
   19MOL   C276 6072   3.102   4.783   7.529  0.0403  0.0155  0.7746
   19MOL   O277 6073   3.089   4.903   7.560 -0.0277  0.0987 -0.2381
   19MOL   N278 6074   3.188   4.743   7.426  0.4677  0.5401  0.7757
   19MOL   C279 6075   3.283   4.840   7.369  0.0157 -0.0808  0.6977
   19MOL   C280 6076   3.178   4.604   7.367  0.2937 -0.3727 -0.0955
   19MOL   H281 6077   2.883   4.700   7.782 -0.0351  1.2597  0.5577
   19MOL   H282 6078   2.975   4.832   7.771  0.1321 -0.4740  0.9505
   19MOL   H283 6079   3.064   4.582   7.599 -0.5744 -0.4745  0.1589
   19MOL   H284 6080   3.223   4.907   7.308  0.9338  0.2542  0.1540
   19MOL   H285 6081   3.334   4.915   7.430 -0.9125  2.7431 -1.8754
   19MOL   H286 6082   3.355   4.799   7.297 -0.8810  0.1775 -0.3548
   19MOL   H287 6083   3.250   4.601   7.286  1.2726  2.1466  0.6448
   19MOL   H288 6084   3.080   4.572   7.331 -0.2578  2.0604 -0.8583
   19MOL   H289 6085   3.219   4.527   7.433 -0.9126 -1.2554 -0.3533
   19MOL   C290 6086   2.870   4.671   7.528  0.3812 -0.1311  0.8040
   19MOL   C291 6087   2.781   4.545   7.540  0.0802  0.4252 -0.0500
   19MOL   C292 6088   2.643   4.590   7.606  0.4514 -0.2857 -1.3319
   19MOL   O293 6089   2.637   4.621   7.725  0.1307 -0.3339  0.0340
   19MOL   N294 6090   2.528   4.591   7.536 -0.4110  0.5550 -0.2084
   19MOL   C295 6091   2.506   4.568   7.394  0.2275  0.5870  0.5881
   19MOL   C296 6092   2.400   4.632   7.601  1.0987  0.8201 -0.0678
   19MOL   H297 6093   2.816   4.766   7.535  2.7722  1.3747 -0.3389
   19MOL   H298 6094   2.896   4.672   7.422  0.5146  0.0386  0.8382
   19MOL   H299 6095   2.764   4.498   7.443 -0.5696 -1.9432  1.1772
   19MOL   H300 6096   2.498   4.666   7.348  2.8552  0.1008 -0.9811
   19MOL   H301 6097   2.578   4.514   7.332  0.5846  2.3903 -0.6000
   19MOL   H302 6098   2.411   4.518   7.377  1.2328 -1.1642  0.0087
   19MOL   H303 6099   2.342   4.704   7.544 -0.7926  1.0276  2.0338
   19MOL   H304 6100   2.415   4.688   7.693  0.9744  1.9316 -0.7179
   19MOL   H305 6101   2.338   4.545   7.625 -0.2943  1.8366  0.0505
   19MOL   C306 6102   2.839   4.443   7.636 -0.1354  0.8315 -0.2302
   19MOL   C307 6103   2.753   4.321   7.654  0.4506  0.5280 -0.6631
   19MOL   C308 6104   2.768   4.215   7.550 -0.0928 -0.2258 -0.4435
   19MOL   O309 6105   2.729   4.242   7.437  0.0266  0.1815  0.0351
   19MOL   N310 6106   2.815   4.094   7.584  0.1215  0.4578  0.0746
   19MOL   C311 6107   2.878   4.054   7.712  0.0691  0.7417 -0.3927
   19MOL   C312 6108   2.836   3.984   7.489  0.0261  0.2246 -0.4016
   19MOL   H313 6109   2.942   4.410   7.626 -0.0866  0.4402  1.3275
   19MOL   H314 6110   2.838   4.496   7.732  1.9772  1.7188 -0.6752
   19MOL   H315 6111   2.761   4.300   7.760 -2.1567  1.0599 -0.3428
   19MOL   H316 6112   2.910   3.950   7.718  2.2324  1.1506 -3.6062
   19MOL   H317 6113   2.964   4.118   7.735 -0.1802  0.9047  0.1013
   19MOL   H318 6114   2.799   4.059   7.788  1.6184 -0.3554  1.3444
   19MOL   H319 6115   2.815   4.013   7.387 -0.3653 -0.5338 -0.5415
   19MOL   H320 6116   2.768   3.904   7.522  2.9923 -2.2266  0.0106
   19MOL   H321 6117   2.935   3.939   7.490 -0.1380 -0.1866 -1.7674
   19MOL   H322 6118   2.648   4.347   7.666  0.4427  0.4020 -0.4564
   20MOL     C1 6119   0.543   1.565   5.355  0.1639  0.3974  0.2510
   20MOL     C2 6120   0.486   1.453   5.260  0.2348 -0.1385  0.1964
   20MOL     C3 6121   0.604   1.374   5.193  0.7394  0.6987  0.5308
   20MOL     O4 6122   0.701   1.434   5.144  0.2622 -0.5147 -0.3221
   20MOL     N5 6123   0.591   1.239   5.181  0.4126  0.1973  0.1068
   20MOL     C6 6124   0.678   1.170   5.085 -0.2105 -0.1609  0.1089
   20MOL     C7 6125   0.492   1.155   5.249  0.7014 -0.4394  0.1537
   20MOL     H8 6126   0.600   1.525   5.439 -3.2527  0.1503  2.5597
   20MOL     H9 6127   0.451   1.607   5.396 -0.3117 -0.4472  0.0717
   20MOL    H10 6128   0.431   1.398   5.336 -0.9617 -2.3409 -2.1881
   20MOL    H11 6129   0.659   1.211   4.986  1.3664 -0.9244 -0.5251
   20MOL    H12 6130   0.784   1.194   5.099 -0.2025 -0.1699  0.0626
   20MOL    H13 6131   0.673   1.063   5.106 -1.5880  0.0263  0.7595
   20MOL    H14 6132   0.389   1.167   5.216  1.6628 -0.3442 -2.9046
   20MOL    H15 6133   0.503   1.177   5.356 -0.5172  0.9661  0.0132
   20MOL    H16 6134   0.516   1.049   5.248  3.4014  0.1269  0.6637
   20MOL    H17 6135   0.590   1.646   5.300 -0.9164 -0.3612 -1.8816
   20MOL    C18 6136   0.385   1.502   5.145 -0.0376  0.0214 -0.0746
   20MOL    C19 6137   0.417   1.639   5.078  0.2968  0.1697  0.0374
   20MOL    C20 6138   0.374   1.771   5.158  0.2875 -0.4881 -0.2431
   20MOL    O21 6139   0.307   1.759   5.265 -0.4223 -0.4735 -0.4150
   20MOL    N22 6140   0.425   1.888   5.120  0.6230 -0.0684 -0.3272
   20MOL    C23 6141   0.363   2.016   5.155 -0.0084 -0.3832 -0.5265
   20MOL    C24 6142   0.545   1.895   5.035  0.9441  0.5073 -0.8565
   20MOL    H25 6143   0.376   1.423   5.071 -5.0186  0.3842 -0.0576
   20MOL    H26 6144   0.286   1.515   5.189 -0.0589  0.3081 -0.2011
   20MOL    H27 6145   0.524   1.636   5.057  0.6958 -1.0974  2.0154
   20MOL    H28 6146   0.366   2.079   5.066 -1.5402 -0.9276 -0.9642
   20MOL    H29 6147   0.261   2.002   5.189 -0.5822 -1.1807 -2.4947
   20MOL    H30 6148   0.430   2.054   5.233 -1.9400  1.6963  0.1822
   20MOL    H31 6149   0.625   1.824   5.054  0.3380  0.1491  0.4110
   20MOL    H32 6150   0.595   1.985   5.069  0.5273 -0.7568  3.3850
   20MOL    H33 6151   0.524   1.905   4.929 -1.3418  0.0940 -0.4762
   20MOL    C34 6152   0.332   1.634   4.952  0.5902  0.2053 -1.3668
   20MOL    C35 6153   0.405   1.546   4.845 -0.2900  0.1161  0.1368
   20MOL    C36 6154   0.498   1.649   4.772  0.7528 -0.0314  0.0473
   20MOL    O37 6155   0.449   1.753   4.719 -0.2729  0.0529 -0.0406
   20MOL    N38 6156   0.632   1.621   4.769  0.2184 -0.3581 -0.2173
   20MOL    C39 6157   0.696   1.493   4.797  0.5065  0.0553  0.3764
   20MOL    C40 6158   0.721   1.718   4.718 -0.5898 -0.4523  0.6484
   20MOL    H41 6159   0.235   1.596   4.985  0.2208  2.5737  0.4621
   20MOL    H42 6160   0.314   1.734   4.912 -0.4459 -0.9493 -3.8619
   20MOL    H43 6161   0.473   1.469   4.880  1.3327  2.3435  2.0490
   20MOL    H44 6162   0.793   1.479   4.749  0.3358 -0.0958  0.0710
   20MOL    H45 6163   0.718   1.499   4.904  3.2243  1.7859 -0.2207
   20MOL    H46 6164   0.632   1.413   4.760  1.2979 -0.7302  0.6715
   20MOL    H47 6165   0.823   1.679   4.710 -0.3829  0.4684 -1.7051
   20MOL    H48 6166   0.727   1.806   4.783 -1.8718 -0.2792  0.5336
   20MOL    H49 6167   0.685   1.753   4.622  0.3111  0.3535  0.5874
   20MOL    C50 6168   0.318   1.486   4.732 -0.3214  0.1301 -0.0646
   20MOL    C51 6169   0.263   1.345   4.752  0.2900  0.3160 -0.5530
   20MOL    C52 6170   0.133   1.353   4.833 -0.3057 -0.0642  1.0060
   20MOL    O53 6171   0.150   1.347   4.956  0.0512  0.1806 -0.0703
   20MOL    N54 6172   0.010   1.368   4.784  0.3307  0.1955 -0.1376
   20MOL    C55 6173   7.748   1.383   4.883 -0.5284 -0.2825 -0.1179
   20MOL    C56 6174   7.831   1.377   4.647 -0.4278  0.0488 -0.3792
   20MOL    H57 6175   0.230   1.548   4.720  0.4397  1.1129 -0.6820
   20MOL    H58 6176   0.379   1.474   4.643 -2.8064 -1.7244 -1.5715
   20MOL    H59 6177   0.234   1.307   4.654 -1.6760 -0.5138  0.3104
   20MOL    H60 6178   7.677   1.460   4.853  0.3093  0.6667  0.2614
   20MOL    H61 6179   7.693   1.291   4.901 -1.3292  0.1904 -0.1497
   20MOL    H62 6180   7.771   1.426   4.981 -0.9579 -0.6164  0.1283
   20MOL    H63 6181   7.807   1.277   4.613 -1.7751  0.0561  0.5163
   20MOL    H64 6182   0.057   1.403   4.577  0.7138 -0.4280  0.7206
   20MOL    H65 6183   7.742   1.439   4.637  0.4202  1.5246  0.8702
   20MOL    C66 6184   0.374   1.249   4.804  0.1739  0.0646  0.6816
   20MOL    C67 6185   0.369   1.099   4.772  0.2781  0.0254 -0.1194
   20MOL    C68 6186   0.244   1.025   4.820 -0.0782 -0.2800 -0.5603
   20MOL    O69 6187   0.230   1.011   4.946 -0.5565 -0.6222 -0.3591
   20MOL    N70 6188   0.154   0.966   4.734  0.5713  0.5525  0.3734
   20MOL    C71 6189   0.165   0.974   4.591  0.0280 -0.6558 -0.1782
   20MOL    C72 6190   0.079   0.846   4.782  0.5835 -0.7047 -0.1249
   20MOL    H73 6191   0.472   1.279   4.767  0.4234 -2.1575 -0.5195
   20MOL    H74 6192   0.395   1.265   4.910  2.7430 -0.9603  0.3693
   20MOL    H75 6193   0.376   1.084   4.664  0.7855  1.5249 -0.3160
   20MOL    H76 6194   0.061   0.975   4.557 -0.1059  2.1207  0.1824
   20MOL    H77 6195   0.207   1.068   4.556 -3.9866  1.1938 -0.4091
   20MOL    H78 6196   0.224   0.891   4.553 -1.5544 -1.2920 -1.2959
   20MOL    H79 6197   7.849   0.831   4.714 -1.2117  1.3656  1.5408
   20MOL    H80 6198   0.050   0.852   4.887  1.9706  0.9251  0.1901
   20MOL    H81 6199   0.142   0.758   4.789  2.1754  0.3407 -0.9661
   20MOL    C82 6200   0.490   1.039   4.845  0.4936 -0.0816  0.7411
   20MOL    C83 6201   0.527   0.895   4.805 -0.1002 -0.4751 -0.0229
   20MOL    C84 6202   0.623   0.835   4.913  0.4027 -0.6689  0.7107
   20MOL    O85 6203   0.739   0.832   4.880  0.3746  0.5922  0.0428
   20MOL    N86 6204   0.586   0.771   5.021  0.4232 -0.1374 -0.1589
   20MOL    C87 6205   0.680   0.692   5.106  0.2103 -0.9356 -0.1852
   20MOL    C88 6206   0.445   0.763   5.063 -0.6245 -0.2243 -0.6740
   20MOL    H89 6207   0.573   1.102   4.813 -0.2474 -0.8095 -2.8535
   20MOL    H90 6208   0.491   1.058   4.952  1.6956  0.4326  0.6476
   20MOL    H91 6209   0.437   0.834   4.805 -0.8972  0.6762  0.5342
   20MOL    H92 6210   0.729   0.763   5.172 -0.3731 -1.0728  0.3927
   20MOL    H93 6211   0.627   0.626   5.174  1.1555 -1.4098  0.1078
   20MOL    H94 6212   0.744   0.618   5.057  2.1897  1.0297 -0.6678
   20MOL    H95 6213   0.385   0.729   4.979 -1.4681 -2.3706  0.7283
   20MOL    H96 6214   0.409   0.862   5.089  2.2661  0.4624  0.9639
   20MOL    H97 6215   0.423   0.688   5.140  0.5558  0.5157  0.4119
   20MOL    C98 6216   0.583   0.902   4.658  0.1487  0.2367  0.0812
   20MOL    C99 6217   0.641   0.770   4.601  0.6907  0.0052 -0.2070
   20MOL   C100 6218   0.689   0.786   4.454  0.9939  0.2245  0.5504
   20MOL   O101 6219   0.595   0.790   4.375  0.0367  0.2435 -0.2925
   20MOL   N102 6220   0.817   0.794   4.415 -0.1480 -0.3541  0.0973
   20MOL   C103 6221   0.854   0.802   4.272  0.3734 -0.1888 -0.6883
   20MOL   C104 6222   0.928   0.826   4.503 -0.0909 -0.0356 -0.3490
   20MOL   H105 6223   0.523   0.954   4.583 -0.5137 -1.6512 -0.7249
   20MOL   H106 6224   0.671   0.965   4.665  0.2835  0.5915 -3.6238
   20MOL   H107 6225   0.732   0.741   4.652 -0.4259 -1.7948  0.7924
   20MOL   H108 6226   0.792   0.884   4.236  0.4514  0.9591  1.6993
   20MOL   H109 6227   0.960   0.822   4.257  0.5422  0.9891  1.8378
   20MOL   H110 6228   0.826   0.715   4.213 -1.0730  0.4333 -0.9433
   20MOL   H111 6229   1.028   0.824   4.460  0.5537  1.5314  1.0169
   20MOL   H112 6230   0.944   0.750   4.580 -0.0455  1.0595  0.7396
   20MOL   H113 6231   0.906   0.906   4.574 -0.2867  0.5418 -1.0509
   20MOL   C114 6232   0.529   0.661   4.610 -0.1073 -0.3792 -0.0734
   20MOL   C115 6233   0.592   0.519   4.617  0.3616 -0.0179  0.4726
   20MOL   C116 6234   0.496   0.419   4.551  0.6369 -0.5441 -0.3358
   20MOL   O117 6235   0.381   0.410   4.589 -0.1117 -0.5614  0.0106
   20MOL   N118 6236   0.545   0.328   4.466 -0.6253 -0.0692  0.0334
   20MOL   C119 6237   0.653   0.357   4.371 -0.3765 -0.8179 -0.5408
   20MOL   C120 6238   0.479   0.197   4.464  0.1210 -0.0512  0.1842
   20MOL   H121 6239   0.462   0.667   4.695  0.4264  2.1250  0.2250
   20MOL   H122 6240   0.452   0.684   4.536 -0.7409  0.6216  0.8884
   20MOL   H123 6241   0.682   0.522   4.556 -0.3866  2.9457 -0.5383
   20MOL   H124 6242   0.648   0.310   4.273 -0.6205  0.0670 -0.9560
   20MOL   H125 6243   0.660   0.465   4.359 -1.9976 -0.7887 -1.3828
   20MOL   H126 6244   0.742   0.321   4.423 -1.1300  0.2491  1.5636
   20MOL   H127 6245   0.377   0.206   4.427 -0.3104 -2.2962  0.7527
   20MOL   H128 6246   0.478   0.153   4.563  0.0936 -0.3887  0.0340
   20MOL   H129 6247   0.544   0.137   4.400  0.6956  3.1731 -2.4113
   20MOL   C130 6248   0.645   0.479   4.756  0.3816  0.1115  0.0060
   20MOL   C131 6249   0.770   0.379   4.756  0.2844  0.2848  0.1499
   20MOL   C132 6250   0.773   0.287   4.884 -0.3162  0.4558  0.3200
   20MOL   O133 6251   0.779   0.341   4.995  0.6976  0.3080  0.0861
   20MOL   N134 6252   0.769   0.146   4.867  0.1871  0.0088 -0.0839
   20MOL   C135 6253   0.772   0.059   4.985 -0.6122 -0.3155  0.0203
   20MOL   C136 6254   0.694   0.095   4.758 -0.0719 -0.5473  0.4098
   20MOL   H137 6255   0.680   0.571   4.804  0.2890 -2.1548  4.6614
   20MOL   H138 6256   0.564   0.436   4.816  2.3596 -3.4326  0.2305
   20MOL   H139 6257   0.756   0.323   4.663  0.0310  0.0714  0.3166
   20MOL   H140 6258   0.708   0.111   5.057 -0.9844 -2.1023  1.0254
   20MOL   H141 6259   0.726   7.816   4.967 -0.2890 -0.2416 -1.2170
   20MOL   H142 6260   0.875   0.036   5.014 -0.7905  1.0754  1.8584
   20MOL   H143 6261   0.755   0.095   4.668  0.6544  0.2542  0.9009
   20MOL   H144 6262   0.596   0.143   4.749  0.2896 -0.3178 -3.2880
   20MOL   H145 6263   0.665   7.844   4.771  1.8375 -1.1030  0.3209
   20MOL   C146 6264   0.898   0.449   4.730  0.3476 -0.0944  0.7148
   20MOL   C147 6265   1.027   0.356   4.702 -0.1035 -0.2604 -0.1351
   20MOL   C148 6266   1.145   0.447   4.692 -1.1692  0.0351  0.4494
   20MOL   O149 6267   1.162   0.503   4.580  0.5316 -0.2216  0.2384
   20MOL   N150 6268   1.227   0.461   4.795 -0.8765  0.4657 -0.0292
   20MOL   C151 6269   1.206   0.406   4.926 -0.3454  0.0524 -0.1878
   20MOL   C152 6270   1.352   0.546   4.783  0.0090 -0.1458 -0.1376
   20MOL   H153 6271   0.884   0.506   4.638  1.0220 -1.3277 -0.1632
   20MOL   H154 6272   0.919   0.527   4.804  1.9450 -0.7270  0.9392
   20MOL   H155 6273   1.036   0.281   4.781  1.4376 -0.6632 -0.6677
   20MOL   H156 6274   1.247   0.453   5.015  2.7491 -1.8642 -0.5197
   20MOL   H157 6275   1.103   0.393   4.959  0.1503 -1.8935  0.7000
   20MOL   H158 6276   1.248   0.305   4.933 -0.0010  0.3614  3.0943
   20MOL   H159 6277   1.435   0.487   4.744  0.3420 -0.8433  1.5518
   20MOL   H160 6278   1.380   0.583   4.882  1.9255 -0.5192 -0.5385
   20MOL   H161 6279   1.337   0.633   4.720 -0.8536  0.2405  0.5740
   20MOL   C162 6280   1.014   0.272   4.572 -1.2496  0.0556 -0.2864
   20MOL   C163 6281   1.150   0.199   4.529  0.7456 -0.1742 -0.0254
   20MOL   C164 6282   1.140   0.160   4.379 -0.5674 -0.3560  0.5697
   20MOL   O165 6283   1.043   0.085   4.351  0.0223 -0.3893 -0.0639
   20MOL   N166 6284   1.235   0.190   4.290 -0.7702  0.4524  0.4718
   20MOL   C167 6285   1.351   0.280   4.313  0.9719  0.2708 -0.1224
   20MOL   C168 6286   1.232   0.139   4.156  0.2821 -0.1873 -0.0104
   20MOL   H169 6287   0.930   0.202   4.576 -2.0010  0.9113 -0.8899
   20MOL   H170 6288   0.985   0.338   4.490  0.8413  1.5084  0.1240
   20MOL   H171 6289   1.234   0.269   4.531  0.9034 -0.3890  2.3699
   20MOL   H172 6290   1.329   0.369   4.372  1.2964 -0.2832  0.8389
   20MOL   H173 6291   1.436   0.224   4.352  0.0421 -0.5500  0.7613
   20MOL   H174 6292   1.380   0.321   4.217 -2.8477  2.1306 -0.5790
   20MOL   H175 6293   1.173   0.047   4.156  2.7065 -1.7987 -1.6293
   20MOL   H176 6294   1.330   0.135   4.107 -0.9123  1.2432 -2.6297
   20MOL   H177 6295   1.195   0.210   4.082  1.0064 -1.0565 -1.2387
   20MOL   C178 6296   1.194   0.087   4.631  0.3707  0.2857 -0.4855
   20MOL   C179 6297   1.329   0.087   4.689 -0.2528  0.0989 -0.1085
   20MOL   C180 6298   1.440   0.054   4.583  0.3834  0.5483  0.2077
   20MOL   O181 6299   1.439   7.799   4.525 -0.2886  0.3214 -0.0934
   20MOL   N182 6300   1.543   0.141   4.572 -0.4890 -0.0655 -0.1235
   20MOL   C183 6301   1.550   0.277   4.626 -0.0593  0.3814 -0.3582
   20MOL   C184 6302   1.662   0.093   4.499 -0.4130  0.3436  0.0771
   20MOL   H185 6303   1.119   0.074   4.709  0.6008 -2.5248 -0.6850
   20MOL   H186 6304   1.169   7.850   4.576  1.3523 -0.5295  0.3942
   20MOL   H187 6305   1.338   0.188   4.728 -2.4763 -0.5261  2.0841
   20MOL   H188 6306   1.644   0.326   4.598 -0.1673  0.1096 -1.1798
   20MOL   H189 6307   1.464   0.329   4.585  0.0993 -0.5988 -1.9666
   20MOL   H190 6308   1.543   0.268   4.735  1.6889  1.6844 -0.1106
   20MOL   H191 6309   1.750   0.155   4.516 -0.4243  0.0550  1.2571
   20MOL   H192 6310   1.642   0.121   4.396 -1.1229 -2.8218 -0.6917
   20MOL   H193 6311   1.677   7.840   4.516 -1.3765  0.5136  2.2423
   20MOL   C194 6312   1.335   7.840   4.812 -0.2140  0.3792  0.9273
   20MOL   C195 6313   1.315   7.684   4.786  0.1006  0.7393 -0.8911
   20MOL   C196 6314   1.166   7.644   4.765 -0.4846  0.1069 -0.8836
   20MOL   O197 6315   1.088   7.667   4.855  0.2039  0.0132 -0.5522
   20MOL   N198 6316   1.125   7.573   4.658 -0.1578  0.7262  0.0179
   20MOL   C199 6317   0.984   7.565   4.611  0.1670 -0.3189 -0.3047
   20MOL   C200 6318   1.220   7.526   4.555  0.4510 -0.1379  0.2517
   20MOL   H201 6319   1.434   7.847   4.858 -0.3354 -2.7588  1.7828
   20MOL   H202 6320   1.267   0.012   4.894 -0.2757  1.7570  0.4552
   20MOL   H203 6321   1.376   7.641   4.706  1.2489 -0.4527  0.6036
   20MOL   H204 6322   0.934   7.488   4.669  2.3400 -2.5983 -1.3379
   20MOL   H205 6323   0.948   7.668   4.615  2.3969  0.4437  1.1930
   20MOL   H206 6324   0.970   7.535   4.507  0.9927 -0.9084 -0.2499
   20MOL   H207 6325   1.264   7.614   4.508 -0.1951 -1.0247 -2.0407
   20MOL   H208 6326   1.165   7.472   4.479 -2.7141  0.1653  2.2427
   20MOL   H209 6327   1.305   7.468   4.592 -0.2163 -0.9659  0.4767
   20MOL   C210 6328   1.366   7.621   4.913 -0.2346 -1.0237 -0.5121
   20MOL   C211 6329   1.363   7.466   4.928 -0.3723 -0.7267 -0.1285
   20MOL   C212 6330   1.239   7.406   5.004 -0.1926  0.5614  0.3698
   20MOL   O213 6331   1.216   7.462   5.114  0.1914  0.1900  0.3444
   20MOL   N214 6332   1.171   7.299   4.957 -0.3936 -0.6648 -0.4098
   20MOL   C215 6333   1.069   7.231   5.038  0.2519 -0.0894 -0.2253
   20MOL   C216 6334   1.187   7.240   4.819  0.1926 -0.3734  0.7510
   20MOL   H217 6335   1.471   7.644   4.930  0.0115  1.0674 -4.3752
   20MOL   H218 6336   1.310   7.666   4.995  2.0976 -1.2441  1.2668
   20MOL   H219 6337   1.359   7.429   4.826  1.3939  1.8612 -1.1973
   20MOL   H220 6338   1.098   7.197   5.138  1.0158 -3.3209 -1.4636
   20MOL   H221 6339   0.988   7.300   5.062 -0.5916 -1.6082  1.5023
   20MOL   H222 6340   1.019   7.151   4.983 -0.0440 -0.2051  0.2073
   20MOL   H223 6341   1.291   7.211   4.805 -0.8389 -4.1831  0.4513
   20MOL   H224 6342   1.165   7.316   4.743 -0.5817 -1.7422 -0.4186
   20MOL   H225 6343   1.135   7.146   4.802  2.7296 -1.3740 -1.9082
   20MOL   C226 6344   1.491   7.406   5.001  1.2992  0.4830 -0.3392
   20MOL   C227 6345   1.629   7.411   4.922  0.2163  0.1947 -0.8247
   20MOL   C228 6346   1.602   7.378   4.770 -0.0431 -0.3190 -0.1249
   20MOL   O229 6347   1.548   7.265   4.752 -0.0724  0.0884  0.6042
   20MOL   N230 6348   1.636   7.468   4.675  0.2588 -0.1518  0.8807
   20MOL   C231 6349   1.671   7.606   4.694 -0.2490 -1.2147  0.3580
   20MOL   C232 6350   1.587   7.452   4.536 -0.3959  0.6235  0.3436
   20MOL   H233 6351   1.490   7.457   5.098 -0.4919 -0.6793  0.2841
   20MOL   H234 6352   1.471   7.301   5.022 -2.2987  1.6714  2.8276
   20MOL   H235 6353   1.665   7.513   4.928 -1.7844  0.9373 -1.1669
   20MOL   H236 6354   1.764   7.618   4.749 -0.3524  0.6329  0.1432
   20MOL   H237 6355   1.702   7.654   4.602 -2.1910  0.6252  0.6144
   20MOL   H238 6356   1.602   7.670   4.749  1.7419  0.9925  0.3334
   20MOL   H239 6357   1.512   7.372   4.537  1.0718 -0.7607  0.9205
   20MOL   H240 6358   1.670   7.426   4.471  1.3327  2.4781  1.7618
   20MOL   H241 6359   1.528   7.539   4.509  0.9819  1.5087  0.1752
   20MOL   C242 6360   1.733   7.311   4.987  0.3436 -1.2423 -0.7795
   20MOL   C243 6361   1.884   7.322   4.947  0.2809  0.8517 -0.9400
   20MOL   C244 6362   1.952   7.449   5.013 -1.0860 -0.3997 -0.0479
   20MOL   O245 6363   1.917   7.555   4.969 -0.0411 -0.0606  0.0040
   20MOL   N246 6364   2.049   7.445   5.109  0.3338  1.1197 -0.1594
   20MOL   C247 6365   2.126   7.566   5.155 -0.0430  0.1440 -0.6317
   20MOL   C248 6366   2.089   7.323   5.177 -0.2823 -0.1168 -0.3602
   20MOL   H249 6367   1.723   7.322   5.095  0.3335  0.4250 -0.9370
   20MOL   H250 6368   1.701   7.208   4.970 -0.9167 -1.2558  1.4637
   20MOL   H251 6369   1.930   7.229   4.980 -0.7509  0.4443 -0.6058
   20MOL   H252 6370   2.233   7.546   5.142 -0.3745 -2.1441 -0.1745
   20MOL   H253 6371   2.101   7.655   5.098  1.2986  0.7828 -0.2455
   20MOL   H254 6372   2.120   7.586   5.262  1.0213  3.2161 -1.1132
   20MOL   H255 6373   2.132   7.252   5.106  1.3744  1.0394 -0.5347
   20MOL   H256 6374   2.000   7.280   5.223 -0.1180  0.6453  0.6795
   20MOL   H257 6375   2.167   7.346   5.250  0.1656  0.2878 -0.9654
   20MOL   C258 6376   1.915   7.309   4.790  0.1879 -0.4717  0.3754
   20MOL   C259 6377   2.062   7.269   4.745  0.0139 -0.4059  0.2988
   20MOL   C260 6378   2.136   7.395   4.695  1.1311  0.7163  0.1404
   20MOL   O261 6379   2.083   7.458   4.603  0.3107 -0.0655  0.5999
   20MOL   N262 6380   2.256   7.427   4.747  0.6371 -0.5696 -0.0041
   20MOL   C263 6381   2.343   7.537   4.692  0.3512 -0.0319 -0.0024
   20MOL   C264 6382   2.318   7.369   4.860  0.0353  0.3336 -0.0875
   20MOL   H265 6383   1.848   7.227   4.764  1.8066 -1.3697 -1.0839
   20MOL   H266 6384   1.895   7.402   4.737  0.4932 -0.0727  0.9429
   20MOL   H267 6385   2.109   7.236   4.838 -1.0542 -3.2343 -0.1179
   20MOL   H268 6386   2.286   7.595   4.620  0.5407 -1.1581 -1.0663
   20MOL   H269 6387   2.385   7.608   4.764 -0.4637  1.1593 -0.6778
   20MOL   H270 6388   2.429   7.504   4.634  0.8930  0.9612  0.2240
   20MOL   H271 6389   2.359   7.273   4.829 -0.1648 -0.0439  0.7999
   20MOL   H272 6390   2.254   7.358   4.948  0.5360  1.3390  0.4087
   20MOL   H273 6391   2.397   7.437   4.891 -0.4665 -0.1786  2.4302
   20MOL   C274 6392   2.068   7.161   4.638  0.6521  0.0048  1.0461
   20MOL   C275 6393   2.006   7.020   4.674 -0.3345 -0.5430  0.0842
   20MOL   C276 6394   2.038   6.976   4.816 -0.3254  0.0226  0.3546
   20MOL   O277 6395   2.156   6.966   4.852  0.0048  0.2397  0.0176
   20MOL   N278 6396   1.943   6.951   4.907  0.4856 -0.5524  0.2679
   20MOL   C279 6397   1.980   6.910   5.046 -0.2869  0.5509 -0.3832
   20MOL   C280 6398   1.800   6.936   4.886  0.5845 -0.2945 -0.0752
   20MOL   H281 6399   2.037   7.206   4.544  0.7071  0.2963  1.1667
   20MOL   H282 6400   2.171   7.137   4.612  0.2059 -1.0873  0.2404
   20MOL   H283 6401   1.897   7.022   4.666 -0.2922 -2.1091 -1.1256
   20MOL   H284 6402   2.062   6.966   5.090  1.1927  0.0470 -2.4089
   20MOL   H285 6403   1.897   6.939   5.111 -0.6390 -1.6666  0.2040
   20MOL   H286 6404   2.000   6.804   5.066  0.9951  0.5519 -1.5904
   20MOL   H287 6405   1.759   6.974   4.792 -0.1054  3.2214  1.5395
   20MOL   H288 6406   1.743   6.991   4.961  1.2888  0.3438 -0.0044
   20MOL   H289 6407   1.775   6.833   4.910  2.9071 -1.0759 -0.9197
   20MOL   C290 6408   2.051   6.908   4.568  0.2294 -0.2208 -0.4094
   20MOL   C291 6409   2.008   6.919   4.424  0.3845  0.1415 -0.0942
   20MOL   C292 6410   1.851   6.934   4.417 -0.1903  0.6726  0.0731
   20MOL   O293 6411   1.778   6.849   4.477 -0.4118 -0.0439 -0.2213
   20MOL   N294 6412   1.802   7.038   4.358  0.2189 -0.3053 -0.0399
   20MOL   C295 6413   1.657   7.043   4.328  0.1528 -0.4665  0.1482
   20MOL   C296 6414   1.867   7.130   4.275 -0.4103 -0.3975 -0.2048
   20MOL   H297 6415   2.160   6.905   4.570  0.2132 -1.7385 -1.0928
   20MOL   H298 6416   2.023   6.809   4.603 -1.0180  0.8628  1.7673
   20MOL   H299 6417   2.066   7.008   4.398 -0.6404  1.6877  2.7771
   20MOL   H300 6418   1.622   7.146   4.329 -1.3282 -0.9521 -0.3780
   20MOL   H301 6419   1.634   6.997   4.232  0.8222 -1.1500  0.3149
   20MOL   H302 6420   1.597   6.987   4.400  0.0033 -2.8171 -1.7355
   20MOL   H303 6421   1.839   7.234   4.293  1.5902  0.8328 -3.6265
   20MOL   H304 6422   1.839   7.112   4.171 -0.6046  1.5753 -0.5258
   20MOL   H305 6423   1.976   7.132   4.271 -0.3921  0.0148  0.4929
   20MOL   C306 6424   2.052   6.796   4.341  0.6329  0.6918 -0.6235
   20MOL   C307 6425   2.009   6.777   4.193  0.0711 -0.1246  0.3633
   20MOL   C308 6426   2.053   6.877   4.093  0.1612  0.2561 -0.5754
   20MOL   O309 6427   2.121   6.966   4.139 -0.4762 -0.2288 -0.3423
   20MOL   N310 6428   2.024   6.870   3.965  0.0850  0.4915 -0.0556
   20MOL   C311 6429   2.105   6.932   3.858 -0.0136  0.0338  0.2593
   20MOL   C312 6430   1.910   6.788   3.919  0.5223 -0.2256 -0.3959
   20MOL   H313 6431   2.159   6.776   4.342  0.7730  1.3772 -1.2153
   20MOL   H314 6432   1.994   6.722   4.396 -3.9988  3.0295 -2.0617
   20MOL   H315 6433   2.019   6.675   4.155 -0.0814 -0.4566  1.1992
   20MOL   H316 6434   2.206   6.961   3.887 -0.2085  1.0925 -0.1076
   20MOL   H317 6435   2.119   6.861   3.777  0.6961  0.6391 -0.1483
   20MOL   H318 6436   2.056   7.026   3.833  0.6632  0.3923  0.2640
   20MOL   H319 6437   1.939   6.682   3.915 -1.5870 -0.9096  1.3288
   20MOL   H320 6438   1.877   6.820   3.820 -1.1867  1.0476  0.5610
   20MOL   H321 6439   1.829   6.805   3.990  2.1863 -1.5793  1.9022
   20MOL   H322 6440   1.901   6.790   4.191  0.3003  1.9562 -1.1405
   21MOL     C1 6441   3.996   2.332   3.190  0.0829  0.1484 -0.8021
   21MOL     C2 6442   4.049   2.414   3.068 -0.1167 -0.6100 -0.4705
   21MOL     C3 6443   4.138   2.529   3.112 -0.4222  0.3207  0.0111
   21MOL     O4 6444   4.081   2.619   3.177  0.0179  0.1971 -0.0176
   21MOL     N5 6445   4.267   2.539   3.075  0.2282  0.1612 -0.3430
   21MOL     C6 6446   4.348   2.425   3.029 -0.7826  0.2347 -0.1239
   21MOL     C7 6447   4.340   2.670   3.106 -0.3338  0.4928 -0.4646
   21MOL     H8 6448   3.926   2.393   3.248 -0.9360 -0.9096 -0.8996
   21MOL     H9 6449   4.067   2.307   3.269 -0.4295 -1.7259 -0.9236
   21MOL    H10 6450   4.109   2.339   3.017  2.1473 -0.0158  1.2218
   21MOL    H11 6451   4.444   2.462   2.994 -1.0794  0.6453 -0.5183
   21MOL    H12 6452   4.363   2.363   3.117 -1.0083 -0.1419 -0.3519
   21MOL    H13 6453   4.297   2.374   2.947 -0.8636  0.7918 -0.4227
   21MOL    H14 6454   4.441   2.649   3.140 -0.2064 -1.0756 -1.7495
   21MOL    H15 6455   4.294   2.726   3.187 -0.0663  0.9724 -0.6426
   21MOL    H16 6456   4.337   2.726   3.012 -0.1380 -2.3343 -2.2214
   21MOL    H17 6457   3.941   2.242   3.163 -1.7376  1.2694 -0.9034
   21MOL    C18 6458   3.934   2.469   2.988 -0.3378  0.3321 -0.3392
   21MOL    C19 6459   3.954   2.577   2.875 -0.3889  0.0632 -0.4099
   21MOL    C20 6460   3.812   2.603   2.824  0.6780  0.0089 -0.0594
   21MOL    O21 6461   3.762   2.503   2.771 -0.0250 -0.0140 -0.6849
   21MOL    N22 6462   3.756   2.724   2.823  0.3457  0.6274  0.2652
   21MOL    C23 6463   3.786   2.824   2.924 -0.6630  0.3262  0.4328
   21MOL    C24 6464   3.638   2.753   2.745 -0.3277 -0.3477  0.5157
   21MOL    H25 6465   3.885   2.380   2.948 -0.9245  0.0933  0.8904
   21MOL    H26 6466   3.859   2.502   3.060 -1.1766  0.5804 -1.3024
   21MOL    H27 6467   3.994   2.671   2.913 -2.1516  0.3750  0.7065
   21MOL    H28 6468   3.822   2.780   3.017  1.9118 -0.6719 -0.9879
   21MOL    H29 6469   3.852   2.898   2.880 -1.9064 -0.1819 -2.4261
   21MOL    H30 6470   3.697   2.880   2.953 -1.5084  0.0683 -1.5526
   21MOL    H31 6471   3.609   2.856   2.725  3.1257  0.5099 -0.3492
   21MOL    H32 6472   3.555   2.687   2.771  1.1281 -1.8149  1.5553
   21MOL    H33 6473   3.669   2.720   2.645 -1.8962  2.1330 -0.8319
   21MOL    C34 6474   4.049   2.548   2.760 -0.9893 -0.9835 -0.0722
   21MOL    C35 6475   4.031   2.423   2.667 -0.1373  1.3305  0.3664
   21MOL    C36 6476   4.057   2.295   2.740 -0.0507 -0.7047 -0.3499
   21MOL    O37 6477   4.173   2.275   2.767  0.4260  0.1464  0.3193
   21MOL    N38 6478   3.962   2.202   2.773 -0.4631  0.5290  0.3331
   21MOL    C39 6479   3.826   2.195   2.723 -0.0782 -0.3093  0.6146
   21MOL    C40 6480   4.002   2.096   2.865 -0.3057  0.1574  0.1368
   21MOL    H41 6481   4.062   2.634   2.694  2.0451 -0.9728  0.4326
   21MOL    H42 6482   4.154   2.555   2.789 -0.5642 -3.0747 -1.0518
   21MOL    H43 6483   3.932   2.417   2.623  0.2519 -1.1354 -0.2476
   21MOL    H44 6484   3.811   2.102   2.669  0.6206  0.3222 -0.6924
   21MOL    H45 6485   3.757   2.217   2.805  1.7355 -1.3121  2.4588
   21MOL    H46 6486   3.805   2.270   2.646 -1.3846 -0.3311  0.9334
   21MOL    H47 6487   4.065   2.025   2.811 -1.0120 -0.0981 -0.3661
   21MOL    H48 6488   3.915   2.040   2.898 -0.5675  1.3755  1.5692
   21MOL    H49 6489   4.046   2.130   2.959  1.0937 -0.6903 -0.1918
   21MOL    C50 6490   4.123   2.416   2.538  0.6445  0.3558  0.0951
   21MOL    C51 6491   4.096   2.301   2.440  0.4614  0.5895 -1.5594
   21MOL    C52 6492   4.222   2.291   2.350 -0.0686 -0.0327  0.8852
   21MOL    O53 6493   4.241   2.390   2.277 -0.4295 -0.0921 -0.1725
   21MOL    N54 6494   4.298   2.175   2.345 -0.2260 -0.3583  0.4349
   21MOL    C55 6495   4.297   2.075   2.453  0.6056 -0.0080  0.3842
   21MOL    C56 6496   4.426   2.179   2.260 -0.1966 -0.5037  0.0702
   21MOL    H57 6497   4.112   2.514   2.491 -0.3783  0.8870  1.4097
   21MOL    H58 6498   4.224   2.412   2.578  0.8875 -0.9492 -0.6429
   21MOL    H59 6499   4.081   2.208   2.495  2.3000  2.0280  1.4728
   21MOL    H60 6500   4.327   2.127   2.544  1.4173 -2.7782  1.7270
   21MOL    H61 6501   4.200   2.029   2.470  0.8564 -1.1881 -1.2314
   21MOL    H62 6502   4.379   2.003   2.448  1.0220  0.5051 -0.5240
   21MOL    H63 6503   4.503   2.159   2.335 -0.4041  1.9613  0.9658
   21MOL    H64 6504   4.454   2.266   2.201 -0.7873  0.6316  1.4506
   21MOL    H65 6505   4.428   2.088   2.200  3.0411 -0.0728 -0.5578
   21MOL    C66 6506   3.967   2.323   2.355 -0.5571 -0.1148  0.7625
   21MOL    C67 6507   3.918   2.195   2.283 -0.3047  0.2663 -0.2309
   21MOL    C68 6508   3.885   2.232   2.132  0.5845  0.3803 -0.8153
   21MOL    O69 6509   3.801   2.319   2.113 -0.2635  0.0149 -0.7113
   21MOL    N70 6510   3.949   2.174   2.035 -0.6289 -0.4248 -0.6873
   21MOL    C71 6511   4.074   2.099   2.053 -0.1865  0.2266 -0.2897
   21MOL    C72 6512   3.929   2.212   1.894  0.1278  0.4581  0.1016
   21MOL    H73 6513   3.889   2.367   2.416 -1.6232  1.5940 -1.7285
   21MOL    H74 6514   3.987   2.408   2.290  0.9134 -0.5296  0.6349
   21MOL    H75 6515   4.001   2.125   2.289  0.7234  1.4742 -0.3120
   21MOL    H76 6516   4.144   2.149   2.120  0.2560 -2.2826  1.1634
   21MOL    H77 6517   4.035   2.011   2.103 -1.4981  2.0238  1.9888
   21MOL    H78 6518   4.113   2.048   1.965 -0.0709 -2.2183  1.1405
   21MOL    H79 6519   3.832   2.260   1.884 -0.3051 -0.3994  0.1174
   21MOL    H80 6520   3.924   2.121   1.834 -1.3689 -0.7554  2.0053
   21MOL    H81 6521   4.011   2.269   1.851 -0.1674  0.6367 -0.2288
   21MOL    C82 6522   3.792   2.137   2.360 -0.7603 -0.8457  0.3956
   21MOL    C83 6523   3.749   1.990   2.337 -0.0665 -0.4262 -0.1798
   21MOL    C84 6524   3.615   1.965   2.397 -0.3455  0.2047 -1.1715
   21MOL    O85 6525   3.599   1.937   2.516 -0.1328 -0.4767 -0.0438
   21MOL    N86 6526   3.512   1.963   2.316  0.0106 -0.1854 -0.1889
   21MOL    C87 6527   3.521   2.010   2.174 -0.2858 -0.0583 -0.0701
   21MOL    C88 6528   3.385   1.912   2.368  0.2485  0.1033  0.2495
   21MOL    H89 6529   3.801   2.143   2.468 -3.6623 -1.1041  0.6771
   21MOL    H90 6530   3.707   2.202   2.338  0.2823  0.9733  1.5833
   21MOL    H91 6531   3.748   1.979   2.229 -0.4910  1.1043 -0.3444
   21MOL    H92 6532   3.577   2.101   2.151 -2.3812  1.3951  0.3075
   21MOL    H93 6533   3.566   1.923   2.128 -2.2269 -1.5705  0.8201
   21MOL    H94 6534   3.423   2.021   2.128  0.4987  2.8654 -1.1498
   21MOL    H95 6535   3.317   1.887   2.286  0.8778  1.5316 -0.7238
   21MOL    H96 6536   3.342   1.978   2.443 -2.6481  0.2499 -1.4548
   21MOL    H97 6537   3.397   1.816   2.417  1.0927  1.1092  2.0659
   21MOL    C98 6538   3.858   1.892   2.406  0.5797  0.4474  0.7336
   21MOL    C99 6539   3.857   1.742   2.356 -0.6240  0.5783 -0.0977
   21MOL   C100 6540   3.940   1.742   2.228 -0.1485  0.0817 -0.3788
   21MOL   O101 6541   3.897   1.805   2.133 -0.0604 -0.3996  0.6496
   21MOL   N102 6542   4.055   1.671   2.223  0.0014  0.2036  0.0883
   21MOL   C103 6543   4.128   1.669   2.097  0.1805 -0.8309 -0.2590
   21MOL   C104 6544   4.121   1.613   2.339 -0.9587 -0.2394 -0.3989
   21MOL   H105 6545   3.957   1.936   2.388  1.1005 -1.4583 -1.2000
   21MOL   H106 6546   3.848   1.906   2.514  0.2078  1.2459  0.5982
   21MOL   H107 6547   3.910   1.681   2.429  1.1791  0.6549 -1.3174
   21MOL   H108 6548   4.063   1.626   2.021 -1.2814  0.3207  0.3054
   21MOL   H109 6549   4.148   1.771   2.063 -0.1002 -0.8147 -0.3774
   21MOL   H110 6550   4.210   1.598   2.094  1.9115  1.1218 -0.2421
   21MOL   H111 6551   4.066   1.529   2.380 -4.9141  1.1744 -2.5498
   21MOL   H112 6552   4.121   1.684   2.423 -0.1289  0.5646 -1.0662
   21MOL   H113 6553   4.225   1.589   2.319 -0.8395  0.3970 -0.5559
   21MOL   C114 6554   3.720   1.669   2.340  0.0089 -0.1470 -0.9751
   21MOL   C115 6555   3.710   1.519   2.309 -0.2852  0.4495  0.1273
   21MOL   C116 6556   3.736   1.429   2.422  0.4439 -0.3148 -0.6877
   21MOL   O117 6557   3.849   1.380   2.438  0.0203 -0.7534 -0.0202
   21MOL   N118 6558   3.630   1.375   2.489  0.5194  0.1105 -0.5557
   21MOL   C119 6559   3.627   1.244   2.548 -0.0225 -0.1658  0.1384
   21MOL   C120 6560   3.497   1.430   2.490  0.0477 -0.5382  0.3590
   21MOL   H121 6561   3.672   1.686   2.436  2.2559 -0.8917  0.3093
   21MOL   H122 6562   3.662   1.730   2.271  1.4132  1.4481 -0.7870
   21MOL   H123 6563   3.604   1.515   2.284 -0.9284  0.3713  2.7772
   21MOL   H124 6564   3.722   1.192   2.553 -0.2018 -0.6964 -1.5178
   21MOL   H125 6565   3.593   1.245   2.651  0.8031  1.0908  0.4068
   21MOL   H126 6566   3.555   1.187   2.488 -0.7697  0.4350  0.4486
   21MOL   H127 6567   3.508   1.538   2.498  2.7213 -0.8269  1.0061
   21MOL   H128 6568   3.444   1.391   2.577 -0.6556 -0.4130 -0.0054
   21MOL   H129 6569   3.421   1.414   2.413 -1.8973  1.0896  1.8489
   21MOL   C130 6570   3.778   1.486   2.173 -0.7320 -0.0931  0.1301
   21MOL   C131 6571   3.735   1.357   2.099  0.6264 -0.4337 -0.1404
   21MOL   C132 6572   3.851   1.315   1.995 -0.4035  0.0423  0.7643
   21MOL   O133 6573   3.925   1.400   1.938 -0.4210 -0.0141  0.7024
   21MOL   N134 6574   3.862   1.185   1.951 -0.2755  0.3909 -0.9676
   21MOL   C135 6575   3.764   1.080   1.980 -0.1589 -0.0995  0.3061
   21MOL   C136 6576   3.969   1.140   1.855 -0.1676 -0.1102 -0.9176
   21MOL   H137 6577   3.760   1.573   2.109  0.2170  1.7635  2.3290
   21MOL   H138 6578   3.886   1.482   2.189 -0.6287  0.5727 -0.3487
   21MOL   H139 6579   3.734   1.283   2.179 -1.1390  0.2437  0.4829
   21MOL   H140 6580   3.809   0.981   1.986  1.6207  0.6480 -0.5233
   21MOL   H141 6581   3.725   1.086   2.081 -0.7734 -1.5698  0.1727
   21MOL   H142 6582   3.684   1.075   1.906  0.7066 -1.2123 -0.5823
   21MOL   H143 6583   4.065   1.157   1.903  1.4204 -3.4892 -2.7214
   21MOL   H144 6584   3.960   1.195   1.761  0.0430  3.2349  0.9371
   21MOL   H145 6585   3.950   1.037   1.828 -0.6846 -0.3616  0.3493
   21MOL   C146 6586   3.590   1.375   2.042  0.2977  0.0253 -0.3110
   21MOL   C147 6587   3.567   1.456   1.914 -0.4363  0.2639  0.8171
   21MOL   C148 6588   3.574   1.615   1.932 -0.3710 -0.7741  0.5031
   21MOL   O149 6589   3.520   1.666   2.026 -0.5366  0.0559 -0.1918
   21MOL   N150 6590   3.641   1.693   1.839  0.0087  0.0887 -0.1378
   21MOL   C151 6591   3.734   1.643   1.736 -0.2316 -0.4335  0.0396
   21MOL   C152 6592   3.624   1.837   1.836 -0.0089  0.0779  0.3548
   21MOL   H153 6593   3.553   1.275   2.019 -0.7673  0.0073  1.3743
   21MOL   H154 6594   3.525   1.405   2.124  1.4479 -1.5426  1.2162
   21MOL   H155 6595   3.654   1.433   1.853  1.0150  3.9511  1.4067
   21MOL   H156 6596   3.832   1.609   1.771  0.0607 -0.7786 -1.0982
   21MOL   H157 6597   3.688   1.555   1.691 -3.5572  1.4272 -0.3172
   21MOL   H158 6598   3.758   1.719   1.661  0.5928 -1.3011 -0.5932
   21MOL   H159 6599   3.702   1.877   1.900  0.1937  0.1441  0.0675
   21MOL   H160 6600   3.526   1.868   1.871 -0.9137 -1.6213 -0.6310
   21MOL   H161 6601   3.636   1.887   1.740 -0.7547 -2.1108 -0.9329
   21MOL   C162 6602   3.426   1.415   1.835 -0.0692 -0.1587  0.4144
   21MOL   C163 6603   3.284   1.465   1.883  0.2877  0.7293  0.1176
   21MOL   C164 6604   3.237   1.404   2.017 -0.1724  0.4977 -0.1132
   21MOL   O165 6605   3.218   1.285   2.019 -0.0528 -0.1431  0.0025
   21MOL   N166 6606   3.202   1.485   2.121  0.6444  0.3764  0.2886
   21MOL   C167 6607   3.242   1.626   2.146 -0.4836  0.7140  0.0473
   21MOL   C168 6608   3.114   1.426   2.221  0.1462  0.1362 -0.4124
   21MOL   H169 6609   3.452   1.439   1.732 -1.0237  0.5236  0.3388
   21MOL   H170 6610   3.394   1.311   1.828  1.3004 -0.5180 -0.8271
   21MOL   H171 6611   3.276   1.573   1.893  0.9982  0.5741  2.4906
   21MOL   H172 6612   3.192   1.677   2.228 -1.3611 -0.1572  0.0754
   21MOL   H173 6613   3.342   1.617   2.187 -0.3731  0.3807 -0.2954
   21MOL   H174 6614   3.246   1.697   2.064  0.1405 -0.5180 -0.9941
   21MOL   H175 6615   3.052   1.349   2.176 -0.0304  0.0465 -0.0217
   21MOL   H176 6616   3.053   1.493   2.282  0.2277  2.9159 -3.2967
   21MOL   H177 6617   3.182   1.377   2.290 -0.2570 -0.8989 -0.7396
   21MOL   C178 6618   3.188   1.428   1.763 -0.3340 -0.2779  0.8155
   21MOL   C179 6619   3.041   1.490   1.767 -0.4227  0.1803 -0.2246
   21MOL   C180 6620   2.949   1.407   1.672  0.7487  0.3729 -0.0152
   21MOL   O181 6621   2.960   1.420   1.553  0.3010 -0.0829 -0.7695
   21MOL   N182 6622   2.849   1.332   1.722 -0.2569 -0.4131  0.5831
   21MOL   C183 6623   2.865   1.267   1.852 -0.7572  0.0786  0.1477
   21MOL   C184 6624   2.726   1.312   1.645 -0.6112  0.2215 -0.0500
   21MOL   H185 6625   3.225   1.465   1.667  0.3085 -1.7866  0.4611
   21MOL   H186 6626   3.191   1.324   1.731  0.0598  0.7713 -2.8300
   21MOL   H187 6627   3.023   1.481   1.874 -0.2239  3.9500  0.1949
   21MOL   H188 6628   2.955   1.206   1.854 -2.0353 -1.8136  0.7965
   21MOL   H189 6629   2.874   1.343   1.930 -0.2489  0.9110 -0.7152
   21MOL   H190 6630   2.776   1.207   1.874 -3.7358  3.5167 -1.9445
   21MOL   H191 6631   2.668   1.404   1.634  0.9147  0.9341 -2.4911
   21MOL   H192 6632   2.661   1.245   1.700  1.3599  0.8548  3.1599
   21MOL   H193 6633   2.745   1.269   1.546 -1.7236 -0.9190  0.2166
   21MOL   C194 6634   3.037   1.638   1.723  0.0066  0.2459  0.3495
   21MOL   C195 6635   2.945   1.741   1.796 -0.2148 -0.5002  0.5433
   21MOL   C196 6636   2.989   1.745   1.946  0.9047 -0.0863 -0.0880
   21MOL   O197 6637   2.934   1.662   2.019  0.4507  0.1320  0.1727
   21MOL   N198 6638   3.053   1.853   2.002 -0.3033 -0.0773  0.3972
   21MOL   C199 6639   3.135   1.947   1.921  0.1771 -0.4817 -0.3459
   21MOL   C200 6640   3.041   1.894   2.140  0.5698  0.2767  0.7560
   21MOL   H201 6641   3.138   1.679   1.726 -0.4415  2.0361 -4.3734
   21MOL   H202 6642   3.016   1.645   1.616  0.3106 -2.4446  0.0847
   21MOL   H203 6643   2.951   1.837   1.745 -0.5853 -1.9515 -2.3421
   21MOL   H204 6644   3.204   2.009   1.979 -0.3246  1.7229 -2.0415
   21MOL   H205 6645   3.209   1.891   1.864 -1.1753 -1.6334 -0.9815
   21MOL   H206 6646   3.095   2.032   1.867  3.7329 -0.4003 -3.0284
   21MOL   H207 6647   2.997   1.816   2.202 -0.9616  1.2390  0.9015
   21MOL   H208 6648   2.970   1.977   2.133  0.5948  0.3100  0.8812
   21MOL   H209 6649   3.137   1.929   2.179  0.6267  0.0311  0.8322
   21MOL   C210 6650   2.792   1.705   1.775  0.5157 -0.4229 -0.0336
   21MOL   C211 6651   2.700   1.831   1.785 -0.2214  0.1496 -0.0160
   21MOL   C212 6652   2.701   1.936   1.671 -0.0237 -0.7973 -0.0701
   21MOL   O213 6653   2.786   2.026   1.675  0.9563 -0.1106  0.3041
   21MOL   N214 6654   2.609   1.932   1.567 -0.4224  0.0564  0.5013
   21MOL   C215 6655   2.507   1.828   1.554 -0.1042  0.4798  0.7696
   21MOL   C216 6656   2.620   2.039   1.470  0.0641 -0.9694 -0.4144
   21MOL   H217 6657   2.766   1.664   1.678  0.8159  1.3340 -0.8796
   21MOL   H218 6658   2.766   1.627   1.847 -0.0307 -0.4618 -0.2737
   21MOL   H219 6659   2.603   1.783   1.794  0.4637 -1.2635  0.1216
   21MOL   H220 6660   2.551   1.729   1.542 -0.1111  0.7238 -1.6102
   21MOL   H221 6661   2.445   1.829   1.643  0.5877 -0.3102  1.2652
   21MOL   H222 6662   2.447   1.855   1.467 -2.4084  0.6344  2.3815
   21MOL   H223 6663   2.536   2.041   1.400 -0.9146  0.5141  0.7570
   21MOL   H224 6664   2.715   2.033   1.417 -0.5677  3.6040 -2.2977
   21MOL   H225 6665   2.616   2.143   1.504  0.8569 -0.8167 -0.7672
   21MOL   C226 6666   2.716   1.897   1.920 -0.0544  0.1663  0.1344
   21MOL   C227 6667   2.611   1.995   1.966 -0.3419 -0.8008 -0.3747
   21MOL   C228 6668   2.674   2.076   2.078 -0.1081 -0.5274  1.2328
   21MOL   O229 6669   2.694   2.025   2.190  0.4471 -0.0236  0.2883
   21MOL   N230 6670   2.703   2.211   2.060 -0.9734 -0.2931  0.3243
   21MOL   C231 6671   2.692   2.280   1.933  0.1905 -0.4101 -0.6126
   21MOL   C232 6672   2.760   2.299   2.162 -0.3897 -0.5340  0.1286
   21MOL   H233 6673   2.743   1.820   1.992 -2.3654  0.1523  1.0016
   21MOL   H234 6674   2.814   1.945   1.914  0.0003 -0.0906 -1.2946
   21MOL   H235 6675   2.586   2.063   1.885 -0.8183  1.1585  1.3725
   21MOL   H236 6676   2.759   2.229   1.864  0.6047  2.9189 -2.7810
   21MOL   H237 6677   2.590   2.282   1.895  0.6654  1.9188 -1.8459
   21MOL   H238 6678   2.718   2.386   1.935  0.6406 -0.5012 -1.6673
   21MOL   H239 6679   2.705   2.291   2.256 -2.4760 -1.0685 -1.1069
   21MOL   H240 6680   2.760   2.403   2.131  1.0221 -1.1072 -1.8458
   21MOL   H241 6681   2.852   2.254   2.202 -0.7090 -0.0326  1.4711
   21MOL   C242 6682   2.477   1.929   2.011  0.4490  0.0389 -0.4452
   21MOL   C243 6683   2.378   2.027   2.074 -0.2539  0.2007 -0.1268
   21MOL   C244 6684   2.294   1.943   2.174 -0.0228 -0.3566  0.2388
   21MOL   O245 6685   2.199   1.875   2.123 -0.1111  0.7192  0.3084
   21MOL   N246 6686   2.322   1.943   2.305  0.6119 -0.3573  0.2217
   21MOL   C247 6687   2.236   1.862   2.397 -0.6198  0.1753 -0.1099
   21MOL   C248 6688   2.446   1.994   2.363 -0.2296 -0.0879 -0.5745
   21MOL   H249 6689   2.433   1.879   1.925  0.3962 -0.5149 -0.0974
   21MOL   H250 6690   2.499   1.849   2.082  2.5778  1.5253  0.6353
   21MOL   H251 6691   2.431   2.100   2.135 -1.0867 -2.1089  3.5028
   21MOL   H252 6692   2.189   1.780   2.342 -1.1391  1.3020 -1.3671
   21MOL   H253 6693   2.281   1.806   2.479  2.3600  0.5109 -1.4600
   21MOL   H254 6694   2.158   1.930   2.430  0.9089  1.9011  0.0112
   21MOL   H255 6695   2.430   1.987   2.470 -1.3709 -1.7003 -0.8280
   21MOL   H256 6696   2.471   2.098   2.343 -0.1675 -0.2123 -1.1599
   21MOL   H257 6697   2.538   1.941   2.336 -0.0926  0.4846 -1.2521
   21MOL   C258 6698   2.288   2.109   1.974 -0.1202 -0.2044 -0.8704
   21MOL   C259 6699   2.240   2.244   2.029 -0.8942 -0.1820 -0.1620
   21MOL   C260 6700   2.114   2.303   1.961  0.3255 -0.7857 -0.3207
   21MOL   O261 6701   2.119   2.389   1.873 -0.8488  0.0651  0.0325
   21MOL   N262 6702   1.994   2.256   2.012  0.0470  0.1841 -0.2681
   21MOL   C263 6703   1.969   2.170   2.132 -0.2114  0.4457 -0.3878
   21MOL   C264 6704   1.873   2.315   1.949  0.7049  0.2548 -0.6397
   21MOL   H265 6705   2.339   2.123   1.879  1.0699 -0.9902 -0.3523
   21MOL   H266 6706   2.202   2.051   1.941 -0.4015  0.3324 -1.0989
   21MOL   H267 6707   2.214   2.232   2.135  0.1795  0.6973  0.2112
   21MOL   H268 6708   2.002   2.067   2.122  1.6253  0.8672  0.9696
   21MOL   H269 6709   2.017   2.215   2.219 -0.0180  1.4424 -1.0125
   21MOL   H270 6710   1.866   2.162   2.167 -0.3017  2.7118 -0.0445
   21MOL   H271 6711   1.796   2.342   2.022 -0.3737 -3.2862 -0.3977
   21MOL   H272 6712   1.836   2.228   1.895 -1.2032  0.4080  0.3554
   21MOL   H273 6713   1.883   2.385   1.867  0.3476 -1.0616 -1.8256
   21MOL   C274 6714   2.357   2.344   2.028  0.2525 -0.3449 -0.1648
   21MOL   C275 6715   2.343   2.485   2.104 -0.0929  0.1728  0.7160
   21MOL   C276 6716   2.448   2.595   2.054  0.0342 -0.1823  0.0370
   21MOL   O277 6717   2.566   2.584   2.086  0.0737 -0.3565  0.2724
   21MOL   N278 6718   2.410   2.699   1.973 -0.0627  0.8276 -0.0390
   21MOL   C279 6719   2.271   2.725   1.923  0.4626 -0.3625  0.2720
   21MOL   C280 6720   2.510   2.798   1.923  0.3895  0.7920  0.1709
   21MOL   H281 6721   2.443   2.301   2.080  0.8252  0.0752 -0.7391
   21MOL   H282 6722   2.385   2.364   1.924  3.9333 -1.3887  0.5311
   21MOL   H283 6723   2.244   2.528   2.086  0.5129  1.3784  0.2233
   21MOL   H284 6724   2.224   2.639   1.875 -0.0241 -0.0461  0.1794
   21MOL   H285 6725   2.202   2.748   2.004 -0.3518  0.8733 -0.7594
   21MOL   H286 6726   2.257   2.815   1.863 -2.2483  0.6568  2.3138
   21MOL   H287 6727   2.611   2.760   1.932  0.3049  0.7621  1.0926
   21MOL   H288 6728   2.506   2.893   1.977  1.8631 -0.6756  2.9414
   21MOL   H289 6729   2.480   2.825   1.822 -1.2318 -1.6045 -0.0323
   21MOL   C290 6730   2.366   2.462   2.259  0.6645 -0.6879 -0.7297
   21MOL   C291 6731   2.311   2.564   2.356  0.2284 -0.1411  0.0448
   21MOL   C292 6732   2.157   2.559   2.350  0.4304  0.3057  0.3326
   21MOL   O293 6733   2.096   2.637   2.272  0.5739  1.1149 -0.0821
   21MOL   N294 6734   2.082   2.478   2.425  0.5160  0.4807 -0.2989
   21MOL   C295 6735   1.933   2.483   2.414 -0.0993 -0.1983  0.1771
   21MOL   C296 6736   2.140   2.382   2.522  0.1894 -0.4843 -0.8472
   21MOL   H297 6737   2.325   2.365   2.289  2.0777 -0.3968  2.3101
   21MOL   H298 6738   2.472   2.444   2.281  0.8241  0.3948 -0.6258
   21MOL   H299 6739   2.336   2.524   2.454 -0.9021  1.0239  0.8319
   21MOL   H300 6740   1.898   2.558   2.486 -1.0684  1.7290 -2.2422
   21MOL   H301 6741   1.888   2.517   2.321  1.4170 -0.1892 -0.5769
   21MOL   H302 6742   1.887   2.390   2.447  0.6772 -0.1369  1.4846
   21MOL   H303 6743   2.202   2.307   2.474  0.7109 -1.6647  1.6010
   21MOL   H304 6744   2.061   2.334   2.580 -0.3227 -0.4681 -1.5117
   21MOL   H305 6745   2.201   2.425   2.601 -1.6015 -0.4005  0.5317
   21MOL   C306 6746   2.368   2.703   2.341 -0.5475 -0.1733  0.6411
   21MOL   C307 6747   2.321   2.808   2.443  0.3080  0.4564  0.5329
   21MOL   C308 6748   2.353   2.774   2.595  0.2281 -0.9557 -0.7762
   21MOL   O309 6749   2.433   2.691   2.626  0.5292  0.1148  0.4067
   21MOL   N310 6750   2.296   2.851   2.692 -0.5810 -0.2155 -0.7153
   21MOL   C311 6751   2.224   2.982   2.663 -0.3215 -0.0777  0.3704
   21MOL   C312 6752   2.327   2.835   2.831  0.4592 -0.4235 -0.1560
   21MOL   H313 6753   2.477   2.696   2.341 -0.5862 -0.7728  0.5553
   21MOL   H314 6754   2.339   2.743   2.244 -0.1088 -3.7591 -1.0498
   21MOL   H315 6755   2.361   2.909   2.429  0.8767  1.0458  5.4776
   21MOL   H316 6756   2.142   3.007   2.731  0.1274 -0.3336  1.0140
   21MOL   H317 6757   2.292   3.067   2.665  1.6436 -1.5949 -0.0310
   21MOL   H318 6758   2.167   2.987   2.570 -1.6418  1.4309  1.2412
   21MOL   H319 6759   2.376   2.923   2.875 -0.8084  0.0087  0.4195
   21MOL   H320 6760   2.384   2.744   2.854 -0.8592 -1.6453 -1.6698
   21MOL   H321 6761   2.239   2.824   2.894  0.7875  0.4165  0.4686
   21MOL   H322 6762   2.213   2.826   2.441  0.2033 -0.2512 -0.8757
   22MOL     C1 6763   0.047   3.519   2.759  0.5914  0.3788  0.2305
   22MOL     C2 6764   7.758   3.466   2.775  0.0821 -0.1066 -0.1826
   22MOL     C3 6765   7.656   3.579   2.783 -0.1629 -0.0661 -0.6362
   22MOL     O4 6766   7.668   3.656   2.878  0.2415 -0.4161 -0.0133
   22MOL     N5 6767   7.565   3.599   2.687  0.5093  0.1146  1.0913
   22MOL     C6 6768   7.478   3.712   2.679  0.0147 -0.2240  0.7413
   22MOL     C7 6769   7.548   3.506   2.574 -0.2294  0.1842  0.9380
   22MOL     H8 6770   0.118   3.439   2.779 -0.0719 -0.2215  0.2293
   22MOL     H9 6771   0.062   3.595   2.836  0.4483  2.9713 -2.2444
   22MOL    H10 6772   7.744   3.413   2.681 -0.7298 -0.1486 -0.0499
   22MOL    H11 6773   7.381   3.676   2.646  0.8277 -1.9751  0.2402
   22MOL    H12 6774   7.462   3.759   2.776  1.5142 -0.7388  1.2437
   22MOL    H13 6775   7.515   3.782   2.604 -0.6336  0.4304  1.0220
   22MOL    H14 6776   7.450   3.517   2.528  0.7743 -0.2236 -1.3883
   22MOL    H15 6777   7.549   3.398   2.591  0.1756  0.0566  0.1403
   22MOL    H16 6778   7.627   3.532   2.503 -1.1127  0.8444  0.1919
   22MOL    H17 6779   0.064   3.566   2.663 -2.1568 -0.1295 -0.5640
   22MOL    C18 6780   7.754   3.372   2.894 -1.0904  0.3453 -0.4996
   22MOL    C19 6781   7.627   3.289   2.914 -0.4144  0.4665 -1.0524
   22MOL    C20 6782   7.593   3.258   3.058 -0.1233  0.2783  0.4191
   22MOL    O21 6783   7.676   3.195   3.123 -0.8137 -0.0016  0.7130
   22MOL    N22 6784   7.467   3.289   3.106 -0.0114  0.2015  0.2965
   22MOL    C23 6785   7.359   3.357   3.032 -0.2323 -0.0755  0.4019
   22MOL    C24 6786   7.421   3.236   3.235  0.0666 -0.0814 -0.3241
   22MOL    H25 6787   7.834   3.299   2.884 -2.7125 -1.2668 -2.2999
   22MOL    H26 6788   7.787   3.426   2.983 -0.0257  0.3557 -0.8872
   22MOL    H27 6789   7.541   3.339   2.870 -1.8094 -0.0482  1.0433
   22MOL    H28 6790   7.322   3.295   2.951  0.8418 -2.4262  1.6655
   22MOL    H29 6791   7.274   3.386   3.093  0.6385  3.1232  0.1957
   22MOL    H30 6792   7.391   3.454   2.993  0.8271 -1.5383 -2.5518
   22MOL    H31 6793   7.496   3.196   3.304 -0.0124 -0.8557 -0.6751
   22MOL    H32 6794   7.348   3.155   3.226 -0.4079  0.1029  1.5667
   22MOL    H33 6795   7.386   3.328   3.282 -2.3972 -1.7023  1.1875
   22MOL    C34 6796   7.642   3.153   2.829  0.0975  0.3801  0.7663
   22MOL    C35 6797   7.506   3.080   2.802  0.5348 -0.5089 -0.0729
   22MOL    C36 6798   7.530   2.928   2.773 -0.0098  0.2730 -0.7164
   22MOL    O37 6799   7.581   2.907   2.658  0.0053 -0.0382 -0.6156
   22MOL    N38 6800   7.506   2.835   2.868  0.7587  0.0181 -0.3325
   22MOL    C39 6801   7.523   2.865   3.012  0.3398  0.3684 -0.3295
   22MOL    C40 6802   7.511   2.697   2.830 -0.1268  0.7750  0.2341
   22MOL    H41 6803   7.696   3.171   2.736 -2.1263  2.3380 -0.1865
   22MOL    H42 6804   7.705   3.078   2.876  1.7633  0.6152 -1.0005
   22MOL    H43 6805   7.436   3.098   2.883 -0.5760  0.2998 -1.1905
   22MOL    H44 6806   7.630   2.880   3.026  0.4077  0.6360 -1.0986
   22MOL    H45 6807   7.473   2.955   3.045 -2.0372 -1.2140  0.4817
   22MOL    H46 6808   7.478   2.783   3.068 -1.2622  0.9192 -0.7826
   22MOL    H47 6809   7.602   2.669   2.776 -0.6223  0.7748 -0.6058
   22MOL    H48 6810   7.431   2.681   2.757 -0.8551 -0.3868  1.2643
   22MOL    H49 6811   7.505   2.622   2.909 -3.3754 -0.4705 -1.1250
   22MOL    C50 6812   7.440   3.143   2.681  0.4270  0.3277  0.2374
   22MOL    C51 6813   7.306   3.077   2.630 -0.4107  0.5986  0.1098
   22MOL    C52 6814   7.272   3.138   2.489  0.0956  0.6925 -0.4157
   22MOL    O53 6815   7.213   3.248   2.492 -0.0655 -0.3065  0.1729
   22MOL    N54 6816   7.311   3.081   2.374  0.2832  0.2947 -0.1485
   22MOL    C55 6817   7.294   3.152   2.248  0.1887 -0.5107 -0.3184
   22MOL    C56 6818   7.378   2.952   2.362 -0.6221 -0.1525 -0.2746
   22MOL    H57 6819   7.426   3.248   2.707 -1.0959  0.0522  0.5724
   22MOL    H58 6820   7.512   3.143   2.598 -2.2916 -0.5827 -2.2176
   22MOL    H59 6821   7.322   2.969   2.620  1.7997  0.5978  2.9047
   22MOL    H60 6822   7.215   3.107   2.188 -0.4900  0.5758 -0.2613
   22MOL    H61 6823   7.270   3.257   2.262 -0.2605 -0.7274  0.6375
   22MOL    H62 6824   7.386   3.153   2.190 -0.7243  2.4260 -1.8245
   22MOL    H63 6825   7.365   2.923   2.257  0.6855 -1.4612 -0.0944
   22MOL    H64 6826   7.338   2.868   2.418  2.7298 -1.3591  0.4239
   22MOL    H65 6827   7.485   2.957   2.383 -0.4526 -2.2844 -0.5402
   22MOL    C66 6828   7.196   3.096   2.735 -0.2111  0.2229 -0.0731
   22MOL    C67 6829   7.052   3.048   2.711  0.4559  0.3986  0.5562
   22MOL    C68 6830   6.960   3.119   2.812  0.6580 -0.5793  0.7746
   22MOL    O69 6831   6.944   3.069   2.925 -0.4552 -0.3070 -0.6268
   22MOL    N70 6832   6.892   3.232   2.772 -1.0149 -0.9260 -0.1386
   22MOL    C71 6833   6.923   3.313   2.649  0.4209 -0.2832  0.7424
   22MOL    C72 6834   6.795   3.289   2.868  0.6853 -0.8667 -0.1035
   22MOL    H73 6835   7.217   3.047   2.830 -2.7471  0.1570  0.5016
   22MOL    H74 6836   7.202   3.202   2.760  1.1458 -0.1908  1.4592
   22MOL    H75 6837   7.037   3.084   2.609 -0.6664  2.6240  1.4849
   22MOL    H76 6838   6.907   3.267   2.551 -1.0105  0.6385  0.5182
   22MOL    H77 6839   6.872   3.409   2.653  2.0827  0.7070 -1.0235
   22MOL    H78 6840   7.027   3.341   2.638  0.6248 -1.2738  0.1016
   22MOL    H79 6841   6.836   3.315   2.965 -1.4322 -2.8689  1.4082
   22MOL    H80 6842   6.710   3.221   2.879 -1.1555  1.2109 -1.0901
   22MOL    H81 6843   6.744   3.372   2.820 -0.6924 -1.2624  0.6458
   22MOL    C82 6844   7.036   2.901   2.717 -1.1976  0.3780  0.1429
   22MOL    C83 6845   6.893   2.838   2.696 -0.4670 -0.7674 -0.4233
   22MOL    C84 6846   6.898   2.683   2.728 -0.3943 -0.0124  0.2517
   22MOL    O85 6847   6.978   2.615   2.670 -0.0187 -0.3439 -0.0830
   22MOL    N86 6848   6.817   2.628   2.820  0.4926 -0.2043 -0.4677
   22MOL    C87 6849   6.728   2.702   2.908 -0.0671  0.1438  0.0858
   22MOL    C88 6850   6.798   2.483   2.814  0.2065  0.2058  0.0943
   22MOL    H89 6851   7.107   2.851   2.651 -2.9192 -1.5579 -0.2697
   22MOL    H90 6852   7.074   2.862   2.811 -1.5487 -1.6604 -0.5414
   22MOL    H91 6853   6.835   2.896   2.768 -1.3668 -1.7494 -0.3430
   22MOL    H92 6854   6.656   2.763   2.853  0.4788  0.2060 -0.5692
   22MOL    H93 6855   6.660   2.640   2.966 -0.4925 -0.3625 -0.9309
   22MOL    H94 6856   6.796   2.761   2.969 -1.5249  0.5928  1.3125
   22MOL    H95 6857   6.800   2.442   2.713  0.4473  2.7425 -0.9573
   22MOL    H96 6858   6.697   2.455   2.845  0.3293 -1.0246 -0.5576
   22MOL    H97 6859   6.863   2.427   2.882 -1.2995 -0.3003  1.1440
   22MOL    C98 6860   6.824   2.864   2.557 -0.1304 -0.2614  0.3246
   22MOL    C99 6861   6.831   2.757   2.441 -0.2424 -0.4306  0.0005
   22MOL   C100 6862   6.977   2.744   2.389 -0.3157  0.4783  0.3661
   22MOL   O101 6863   7.047   2.846   2.375 -0.0998  0.5512 -0.2644
   22MOL   N102 6864   7.029   2.624   2.360  0.0948 -0.2431  0.2101
   22MOL   C103 6865   7.172   2.615   2.342  0.5401 -0.7661  0.4465
   22MOL   C104 6866   6.944   2.505   2.338 -1.1071  0.1858 -0.1386
   22MOL   H105 6867   6.718   2.864   2.583  0.1240 -1.0465  1.4075
   22MOL   H106 6868   6.833   2.970   2.532  0.7391 -0.1730  0.9750
   22MOL   H107 6869   6.791   2.663   2.479  0.2175 -0.4671  0.4047
   22MOL   H108 6870   7.208   2.515   2.314 -0.5891 -0.9398 -0.4420
   22MOL   H109 6871   7.197   2.685   2.262  0.5241  0.3522  1.4133
   22MOL   H110 6872   7.223   2.655   2.429  0.1317  0.2746  0.2184
   22MOL   H111 6873   6.868   2.525   2.262  0.2699  0.3570 -1.4755
   22MOL   H112 6874   6.892   2.467   2.426  0.1215 -1.6864 -0.1976
   22MOL   H113 6875   7.010   2.431   2.294 -3.3440 -2.1061  0.2369
   22MOL   C114 6876   6.749   2.802   2.320  0.5517  1.1899 -1.2065
   22MOL   C115 6877   6.591   2.799   2.346  0.3594 -0.3290  0.1166
   22MOL   C116 6878   6.532   2.668   2.412  0.3281  0.5296 -1.1652
   22MOL   O117 6879   6.564   2.556   2.360 -0.1037  0.2586  0.6014
   22MOL   N118 6880   6.446   2.676   2.526 -0.3922  0.3150  0.5874
   22MOL   C119 6881   6.444   2.554   2.597  0.2470 -0.0456 -0.7505
   22MOL   C120 6882   6.372   2.790   2.571 -0.4182  1.2746  0.2417
   22MOL   H121 6883   6.768   2.907   2.295  2.1914  1.4251  0.9977
   22MOL   H122 6884   6.770   2.750   2.226 -2.1874 -0.8831 -0.7447
   22MOL   H123 6885   6.564   2.873   2.422  1.9268  1.1356 -0.7175
   22MOL   H124 6886   6.378   2.557   2.684  0.6058  0.8795 -0.5150
   22MOL   H125 6887   6.418   2.467   2.536  0.0888  0.0927 -0.8806
   22MOL   H126 6888   6.543   2.531   2.636 -0.3314 -0.1575  0.6845
   22MOL   H127 6889   6.353   2.858   2.488 -0.9741  3.1008  1.7915
   22MOL   H128 6890   6.413   2.840   2.659 -0.1557 -0.7927  1.3271
   22MOL   H129 6891   6.276   2.745   2.598  0.7249 -0.6131  1.2301
   22MOL   C130 6892   6.515   2.835   2.216  0.6098  0.1573  0.1611
   22MOL   C131 6893   6.512   2.729   2.100 -0.4384 -0.1643 -1.4231
   22MOL   C132 6894   6.538   2.795   1.960 -0.2674  0.8953 -1.1767
   22MOL   O133 6895   6.448   2.869   1.917  0.4157  0.3369 -0.6464
   22MOL   N134 6896   6.655   2.778   1.892  0.5491 -0.1600 -0.0574
   22MOL   C135 6897   6.773   2.699   1.935 -0.1276  0.0524 -0.0673
   22MOL   C136 6898   6.668   2.849   1.767  0.1413  0.4081 -0.1322
   22MOL   H137 6899   6.413   2.867   2.239  0.0949 -0.6488 -0.9482
   22MOL   H138 6900   6.552   2.927   2.171  0.9943 -0.2257 -0.3086
   22MOL   H139 6901   6.592   2.657   2.119  1.1764  1.6566 -1.1489
   22MOL   H140 6902   6.852   2.686   1.862 -0.6420 -1.9193 -0.3006
   22MOL   H141 6903   6.823   2.749   2.018  1.8417 -1.9672 -0.0140
   22MOL   H142 6904   6.748   2.602   1.977  1.8401 -0.8710 -0.9670
   22MOL   H143 6905   6.620   2.946   1.780  2.5588  2.2337 -3.8364
   22MOL   H144 6906   6.611   2.798   1.690 -2.3896  1.8994  0.7109
   22MOL   H145 6907   6.770   2.861   1.729  0.6637 -0.2024  1.0512
   22MOL   C146 6908   6.381   2.644   2.106 -0.0507 -0.1151 -0.5354
   22MOL   C147 6909   6.405   2.489   2.063 -0.3807 -0.5879 -0.0417
   22MOL   C148 6910   6.469   2.465   1.924  0.0080 -0.1680 -0.7120
   22MOL   O149 6911   6.420   2.514   1.827 -0.0170  0.7009 -0.0251
   22MOL   N150 6912   6.585   2.392   1.917 -0.2189 -0.1476  0.0455
   22MOL   C151 6913   6.663   2.357   2.035  0.2058 -0.3192 -0.9431
   22MOL   C152 6914   6.643   2.347   1.796 -0.3371 -0.1540  0.6774
   22MOL   H153 6915   6.324   2.642   2.199  0.4862 -0.2541 -0.2043
   22MOL   H154 6916   6.313   2.695   2.039  1.8026  3.3325  0.0920
   22MOL   H155 6917   6.454   2.446   2.151 -3.3784  0.0044  1.9980
   22MOL   H156 6918   6.620   2.262   2.069 -0.5784  0.3491 -0.0258
   22MOL   H157 6919   6.765   2.324   2.016  0.2677  0.0349 -1.2291
   22MOL   H158 6920   6.657   2.422   2.123 -2.2407 -1.9111  0.1413
   22MOL   H159 6921   6.706   2.259   1.813 -0.0935 -0.0485  0.3383
   22MOL   H160 6922   6.707   2.424   1.754 -0.9670 -0.6544 -1.2539
   22MOL   H161 6923   6.570   2.324   1.719 -1.0954  1.2673  0.9667
   22MOL   C162 6924   6.273   2.410   2.063 -0.2869 -0.1072 -0.2508
   22MOL   C163 6925   6.270   2.267   2.131 -0.5843 -0.4911 -0.1863
   22MOL   C164 6926   6.178   2.159   2.070  0.3050 -0.3071 -0.6539
   22MOL   O165 6927   6.072   2.139   2.122  0.3406 -0.0859 -0.3779
   22MOL   N166 6928   6.214   2.098   1.956  0.2700 -1.0009 -0.3573
   22MOL   C167 6929   6.134   1.992   1.904 -0.0063  0.5770 -0.3714
   22MOL   C168 6930   6.333   2.121   1.880  0.2915  0.2053  0.0271
   22MOL   H169 6931   6.197   2.466   2.117  0.6190  0.0809  0.8635
   22MOL   H170 6932   6.234   2.396   1.962 -0.1877 -0.3875 -0.2499
   22MOL   H171 6933   6.365   2.213   2.129  0.1459  0.7595  0.0725
   22MOL   H172 6934   6.085   2.026   1.812 -0.1772  0.9815 -0.1295
   22MOL   H173 6935   6.187   1.901   1.875  1.0448  1.3370 -0.8712
   22MOL   H174 6936   6.054   1.950   1.965 -1.2673  1.6025 -1.2942
   22MOL   H175 6937   6.370   2.027   1.840  0.1617  1.2636 -2.6541
   22MOL   H176 6938   6.415   2.173   1.930 -0.4289  0.4504  0.9584
   22MOL   H177 6939   6.303   2.173   1.790 -0.8347 -1.3035 -0.4838
   22MOL   C178 6940   6.249   2.283   2.279  0.0357  0.2058 -0.1936
   22MOL   C179 6941   6.298   2.167   2.374  0.5941  0.5383 -0.0969
   22MOL   C180 6942   6.216   2.188   2.506  0.5296  0.1853 -0.1816
   22MOL   O181 6943   6.243   2.294   2.564  0.4932 -0.6910 -0.2676
   22MOL   N182 6944   6.140   2.090   2.561 -0.3290 -0.0785  0.3364
   22MOL   C183 6945   6.115   1.960   2.499  0.3090  0.1313  0.8515
   22MOL   C184 6946   6.082   2.104   2.694  0.2413  0.0429 -0.6378
   22MOL   H185 6947   6.301   2.369   2.320  1.2451 -0.5640 -0.1033
   22MOL   H186 6948   6.142   2.305   2.283 -0.0613 -0.3011 -0.0501
   22MOL   H187 6949   6.272   2.069   2.335 -0.0956 -0.0313  1.7201
   22MOL   H188 6950   6.203   1.898   2.515 -0.1940 -0.8989 -0.3127
   22MOL   H189 6951   6.031   1.906   2.542  2.7551 -3.7272  0.9804
   22MOL   H190 6952   6.085   1.963   2.394  0.0450 -3.4061  0.7630
   22MOL   H191 6953   6.129   2.029   2.757 -0.4836  1.2096  1.3437
   22MOL   H192 6954   5.976   2.077   2.694  0.8965 -2.6745 -0.0949
   22MOL   H193 6955   6.087   2.202   2.742 -2.9340 -0.2044  0.3536
   22MOL   C194 6956   6.458   2.177   2.387  0.0184  0.6477 -0.5514
   22MOL   C195 6957   6.527   2.075   2.487 -0.1163  0.4162  0.5221
   22MOL   C196 6958   6.605   2.147   2.599  0.1340  0.7697  0.6405
   22MOL   O197 6959   6.679   2.237   2.564  0.2453 -0.5827  0.2020
   22MOL   N198 6960   6.607   2.098   2.724 -0.3744 -0.3774 -0.8439
   22MOL   C199 6961   6.506   2.008   2.767  0.3285  0.4670  0.5652
   22MOL   C200 6962   6.697   2.128   2.833  0.4324 -0.4649  0.4988
   22MOL   H201 6963   6.500   2.151   2.289 -0.3575 -2.4195  0.0498
   22MOL   H202 6964   6.486   2.280   2.407  0.9191  0.3356 -0.1533
   22MOL   H203 6965   6.450   2.010   2.527 -1.3100  1.3763 -0.1900
   22MOL   H204 6966   6.503   1.980   2.872  1.5729 -1.6904  0.0635
   22MOL   H205 6967   6.407   2.040   2.737  0.1065 -0.6962  0.0429
   22MOL   H206 6968   6.523   1.914   2.714  1.6507  1.5486 -0.9664
   22MOL   H207 6969   6.767   2.210   2.813  0.3366 -0.4291  0.3045
   22MOL   H208 6970   6.771   2.050   2.848 -0.5631 -2.7391 -5.0343
   22MOL   H209 6971   6.648   2.162   2.925 -0.5794 -0.1978 -0.1187
   22MOL   C210 6972   6.635   1.986   2.419  0.3089  0.1410  0.0584
   22MOL   C211 6973   6.582   1.892   2.298 -0.7883  0.1159 -0.2562
   22MOL   C212 6974   6.486   1.775   2.352  0.6080  0.7242 -1.0367
   22MOL   O213 6975   6.518   1.716   2.461 -0.1217 -0.3540  0.6841
   22MOL   N214 6976   6.370   1.739   2.290  0.5964 -0.7251 -0.5141
   22MOL   C215 6977   6.320   1.790   2.159 -0.0186  0.5690 -0.1610
   22MOL   C216 6978   6.278   1.646   2.346 -0.5229  0.0354 -0.1471
   22MOL   H217 6979   6.717   2.043   2.375  0.8274  0.7273  1.7611
   22MOL   H218 6980   6.682   1.925   2.495 -1.0557  0.5308  1.2456
   22MOL   H219 6981   6.516   1.955   2.238 -0.5744 -0.7681 -1.4308
   22MOL   H220 6982   6.233   1.854   2.172 -1.1668 -1.0553  0.2153
   22MOL   H221 6983   6.398   1.848   2.110 -1.4520  1.1558 -1.7983
   22MOL   H222 6984   6.291   1.714   2.087  3.3828 -0.1366 -0.8888
   22MOL   H223 6985   6.332   1.552   2.334 -0.9439 -0.4887  1.8666
   22MOL   H224 6986   6.184   1.627   2.294 -0.8949 -2.3768  1.3054
   22MOL   H225 6987   6.250   1.657   2.451 -1.7609 -1.2751 -0.3250
   22MOL   C226 6988   6.686   1.826   2.203 -0.0630 -0.0815 -0.4257
   22MOL   C227 6989   6.831   1.801   2.241 -0.3101  0.3328  0.5877
   22MOL   C228 6990   6.926   1.926   2.231 -0.6946 -0.4897  0.0461
   22MOL   O229 6991   6.922   1.987   2.122 -0.5625  0.2833  0.6218
   22MOL   N230 6992   7.007   1.962   2.334 -0.8516  0.4374 -0.0414
   22MOL   C231 6993   7.013   1.898   2.466  0.5537 -0.2159  0.4567
   22MOL   C232 6994   7.106   2.068   2.321 -0.3903 -0.0470  0.3650
   22MOL   H233 6995   6.649   1.724   2.193  1.1566 -0.8175  2.0532
   22MOL   H234 6996   6.684   1.887   2.113  0.9548 -0.0737 -0.4559
   22MOL   H235 6997   6.827   1.762   2.343 -1.2326  1.2281  0.9092
   22MOL   H236 6998   6.934   1.945   2.524 -1.1287 -1.3512 -0.8475
   22MOL   H237 6999   6.994   1.791   2.468  0.6562 -0.2218  1.1242
   22MOL   H238 7000   7.102   1.920   2.524  0.8168  0.9975 -0.3920
   22MOL   H239 7001   7.197   2.051   2.379  0.7319  0.9926 -1.0608
   22MOL   H240 7002   7.055   2.158   2.357  0.0640  0.4697 -0.2807
   22MOL   H241 7003   7.132   2.111   2.225 -1.3184  0.7477  0.4514
   22MOL   C242 7004   6.897   1.694   2.155 -0.2758  0.3049 -0.7840
   22MOL   C243 7005   6.942   1.722   2.002 -0.4287  0.8424  0.5788
   22MOL   C244 7006   6.836   1.776   1.907 -0.9062  0.5763 -0.3908
   22MOL   O245 7007   6.732   1.709   1.898 -0.0932 -0.2729 -0.2485
   22MOL   N246 7008   6.863   1.886   1.833 -0.0007 -0.0696  0.1904
   22MOL   C247 7009   6.762   1.949   1.747  0.4257 -0.5156 -0.2854
   22MOL   C248 7010   6.989   1.953   1.821  0.1312  0.5135 -0.1139
   22MOL   H249 7011   6.981   1.654   2.212 -0.0501  2.5721  0.5426
   22MOL   H250 7012   6.837   1.604   2.148 -0.6903  0.3996  1.4039
   22MOL   H251 7013   7.025   1.792   2.011  1.6281 -1.2236 -1.6305
   22MOL   H252 7014   6.746   1.881   1.664 -0.1982 -2.2231  1.1973
   22MOL   H253 7015   6.666   1.964   1.797  0.7529  2.3527 -0.4667
   22MOL   H254 7016   6.790   2.048   1.711 -2.1240  0.4339  0.2348
   22MOL   H255 7017   7.081   1.898   1.838 -0.6170 -0.4410  0.9255
   22MOL   H256 7018   6.997   2.036   1.891 -1.7480  0.1325  0.5992
   22MOL   H257 7019   6.997   1.997   1.721 -0.0978 -0.4418 -0.5635
   22MOL   C258 7020   7.005   1.596   1.948 -1.0794 -0.3963  0.0991
   22MOL   C259 7021   7.155   1.569   1.989 -1.4056 -0.1591 -0.8048
   22MOL   C260 7022   7.250   1.675   1.924  0.7770  0.6726  0.0908
   22MOL   O261 7023   7.258   1.659   1.802  0.2561 -0.6053  0.0373
   22MOL   N262 7024   7.319   1.771   1.990 -0.4988  0.0534 -0.2867
   22MOL   C263 7025   7.404   1.861   1.919  0.7435 -0.4944  0.2830
   22MOL   C264 7026   7.325   1.789   2.134 -0.0461 -0.1077 -0.3254
   22MOL   H265 7027   6.935   1.514   1.964 -2.4058  0.4599 -1.2162
   22MOL   H266 7028   7.016   1.596   1.840  1.0742 -0.6339  0.2906
   22MOL   H267 7029   7.164   1.590   2.095 -0.9098 -2.7525 -0.2949
   22MOL   H268 7030   7.352   1.926   1.848  2.2253 -1.6642 -1.9324
   22MOL   H269 7031   7.467   1.922   1.983  1.0521 -1.5462  0.9859
   22MOL   H270 7032   7.475   1.819   1.848  1.6654  1.5429 -0.0564
   22MOL   H271 7033   7.396   1.861   2.175 -1.0069  2.2370 -2.5895
   22MOL   H272 7034   7.333   1.693   2.184  1.2131 -1.0187 -2.2300
   22MOL   H273 7035   7.228   1.818   2.173 -0.2448 -1.3500  0.1295
   22MOL   C274 7036   7.195   1.423   1.954  0.1395  0.2579 -0.1340
   22MOL   C275 7037   7.157   1.296   2.046  0.2770 -0.2432  0.0201
   22MOL   C276 7038   7.046   1.209   1.995  0.1215  0.0278  0.4075
   22MOL   O277 7039   6.934   1.224   2.043 -0.2048 -0.2090 -0.5452
   22MOL   N278 7040   7.063   1.133   1.882  0.4864  0.0922  0.3256
   22MOL   C279 7041   7.194   1.113   1.817  0.2793 -0.2967 -0.1566
   22MOL   C280 7042   6.943   1.077   1.814  0.4372 -0.3615  0.8981
   22MOL   H281 7043   7.165   1.400   1.851 -1.2228 -0.5265  0.4265
   22MOL   H282 7044   7.304   1.421   1.949  0.1152  0.0320 -0.6824
   22MOL   H283 7045   7.236   1.221   2.056 -0.8508 -1.4247  0.1188
   22MOL   H284 7046   7.211   1.009   1.847 -0.6032 -0.1923  0.7691
   22MOL   H285 7047   7.187   1.109   1.709 -2.3816 -2.3177  0.0206
   22MOL   H286 7048   7.281   1.168   1.851 -2.7310  3.8976  1.1634
   22MOL   H287 7049   6.889   1.009   1.880 -0.7214  0.9041  1.2776
   22MOL   H288 7050   6.971   1.019   1.726  2.6380  0.0944  1.2910
   22MOL   H289 7051   6.876   1.155   1.778 -0.3222 -1.2524  0.3394
   22MOL   C290 7052   7.134   1.341   2.189  0.0711 -0.4122  0.2901
   22MOL   C291 7053   7.255   1.393   2.264  1.0334 -0.3950 -0.6467
   22MOL   C292 7054   7.363   1.281   2.296  0.0232  0.3898  0.2822
   22MOL   O293 7055   7.327   1.168   2.342  0.6632 -0.1114  0.2267
   22MOL   N294 7056   7.496   1.307   2.260 -0.8134  0.2045  0.1229
   22MOL   C295 7057   7.539   1.438   2.235 -0.1006 -0.2506 -0.2962
   22MOL   C296 7058   7.600   1.204   2.257 -0.3612  0.7549 -1.2745
   22MOL   H297 7059   7.062   1.423   2.197 -0.8645 -1.0432 -1.6412
   22MOL   H298 7060   7.097   1.257   2.248 -0.1422 -1.7633 -1.7353
   22MOL   H299 7061   7.294   1.465   2.191  0.2251 -0.6033 -1.2944
   22MOL   H300 7062   7.647   1.448   2.220  0.4246 -0.7065  2.9155
   22MOL   H301 7063   7.495   1.485   2.147  0.8562  0.8781 -0.1826
   22MOL   H302 7064   7.527   1.497   2.325  2.4044  1.8829 -1.2831
   22MOL   H303 7065   7.570   1.107   2.219  0.5957  0.1161 -0.4405
   22MOL   H304 7066   7.653   1.196   2.352 -1.5851  0.5945 -0.5947
   22MOL   H305 7067   7.679   1.234   2.187  1.6837  0.9303  1.0281
   22MOL   C306 7068   7.223   1.478   2.392 -0.0299 -1.1355  0.9787
   22MOL   C307 7069   7.163   1.416   2.517  0.0418 -0.1401  0.0132
   22MOL   C308 7070   7.011   1.455   2.529 -0.9838 -0.4367  1.1945
   22MOL   O309 7071   6.931   1.408   2.447  0.5547  0.0575 -0.1431
   22MOL   N310 7072   6.966   1.537   2.630  0.0446 -0.6557 -0.3583
   22MOL   C311 7073   6.827   1.593   2.632 -0.2085  0.0800  0.3685
   22MOL   C312 7074   7.052   1.581   2.735  0.0552  0.3728 -0.2872
   22MOL   H313 7075   7.312   1.534   2.419 -0.6119 -1.1386  3.0333
   22MOL   H314 7076   7.154   1.556   2.360 -0.0514 -1.3272  0.5622
   22MOL   H315 7077   7.153   1.307   2.511 -0.2603 -0.0014 -2.4121
   22MOL   H316 7078   6.820   1.701   2.621 -1.1465  0.1268  1.3864
   22MOL   H317 7079   6.748   1.551   2.570 -0.1781  0.4798  0.0560
   22MOL   H318 7080   6.785   1.577   2.731  1.1597 -1.6034  0.7122
   22MOL   H319 7081   7.124   1.652   2.694 -0.1870  0.5125 -0.4685
   22MOL   H320 7082   7.114   1.503   2.780 -2.2550 -1.6226 -0.4688
   22MOL   H321 7083   6.997   1.630   2.815 -2.1614 -0.7468 -1.0991
   22MOL   H322 7084   7.222   1.440   2.606 -0.7227  2.0434 -0.0450
   23MOL     C1 7085   4.955   4.317   3.489  0.0666 -0.1419  0.7386
   23MOL     C2 7086   5.022   4.203   3.412  0.0238  0.3387  0.1529
   23MOL     C3 7087   4.918   4.088   3.392  0.0751 -0.3057  0.2377
   23MOL     O4 7088   4.903   4.012   3.488 -0.1047  0.0254 -0.1053
   23MOL     N5 7089   4.869   4.058   3.270  0.1400 -0.7054  0.3916
   23MOL     C6 7090   4.870   4.147   3.156 -0.9102  0.1834 -0.2479
   23MOL     C7 7091   4.813   3.924   3.241  0.7583  0.8436  0.0440
   23MOL     H8 7092   4.941   4.294   3.595 -0.9930 -1.6504  0.2855
   23MOL     H9 7093   4.852   4.332   3.460 -0.1456 -2.2585  0.2869
   23MOL    H10 7094   5.055   4.238   3.314 -5.2681 -1.0181 -2.2919
   23MOL    H11 7095   4.777   4.148   3.100 -0.3615 -1.8673 -1.2471
   23MOL    H12 7096   4.908   4.245   3.185 -0.6804 -0.2588  0.9853
   23MOL    H13 7097   4.938   4.103   3.083  1.6979  3.7252 -0.0758
   23MOL    H14 7098   4.803   3.905   3.134 -1.4970 -0.8836  0.5236
   23MOL    H15 7099   4.726   3.905   3.304 -1.0370  1.1617 -2.2345
   23MOL    H16 7100   4.888   3.852   3.274  0.5597  0.2646 -0.7434
   23MOL    H17 7101   5.005   4.414   3.483 -1.8932  0.8350 -0.1370
   23MOL    C18 7102   5.150   4.152   3.494  0.0387 -0.6887  0.9767
   23MOL    C19 7103   5.254   4.055   3.426  0.1158 -0.0047 -0.5426
   23MOL    C20 7104   5.303   4.074   3.284 -0.3929 -0.0638 -0.2778
   23MOL    O21 7105   5.231   4.130   3.203 -0.1264 -0.1955 -0.2465
   23MOL    N22 7106   5.431   4.045   3.242 -0.1102  0.8123  0.3475
   23MOL    C23 7107   5.468   4.074   3.097  0.0762  0.2640 -0.0410
   23MOL    C24 7108   5.539   3.996   3.323  0.0924  0.6002 -0.4980
   23MOL    H25 7109   5.207   4.239   3.526  0.3853  0.6170 -3.0247
   23MOL    H26 7110   5.112   4.104   3.585  1.9791  1.7229  3.1337
   23MOL    H27 7111   5.348   4.082   3.474 -1.4789  3.6366  0.7144
   23MOL    H28 7112   5.477   4.178   3.066 -0.1637 -0.3591 -2.2728
   23MOL    H29 7113   5.557   4.025   3.057 -1.2394 -1.3059 -1.1131
   23MOL    H30 7114   5.381   4.040   3.042 -1.4473  2.4674  0.9361
   23MOL    H31 7115   5.525   3.890   3.343  1.5446  0.6247  0.8460
   23MOL    H32 7116   5.548   4.055   3.415 -1.0003 -0.1043  0.0760
   23MOL    H33 7117   5.634   4.009   3.271  0.8760 -2.0941  0.1845
   23MOL    C34 7118   5.214   3.904   3.437 -0.1339  0.6642 -0.7653
   23MOL    C35 7119   5.220   3.842   3.575 -0.1029 -0.0173  0.2151
   23MOL    C36 7120   5.364   3.837   3.642  0.0765  0.4276 -0.0935
   23MOL    O37 7121   5.435   3.750   3.594 -0.6992  0.0581  0.4939
   23MOL    N38 7122   5.412   3.932   3.727  0.3118  0.4985  0.0139
   23MOL    C39 7123   5.552   3.920   3.769 -0.0839  0.6252 -0.1340
   23MOL    C40 7124   5.338   4.049   3.778 -0.7998  0.0867  0.5285
   23MOL    H41 7125   5.115   3.887   3.394 -0.6918  0.4019  0.5833
   23MOL    H42 7126   5.284   3.845   3.378  0.1118 -0.0805  0.2510
   23MOL    H43 7127   5.157   3.884   3.654 -1.6266 -1.8684  0.0128
   23MOL    H44 7128   5.596   3.821   3.757  0.5825  0.5207  2.7110
   23MOL    H45 7129   5.606   3.985   3.700 -1.3914  1.5193 -0.3145
   23MOL    H46 7130   5.556   3.941   3.876 -0.3444  0.3993 -0.0805
   23MOL    H47 7131   5.367   4.070   3.881  0.8379  1.2401 -0.1444
   23MOL    H48 7132   5.230   4.040   3.765 -0.7764 -0.0379  0.4191
   23MOL    H49 7133   5.374   4.138   3.726 -2.1888  0.4564  0.1887
   23MOL    C50 7134   5.147   3.703   3.559  0.6109 -0.0653  0.0322
   23MOL    C51 7135   5.097   3.638   3.689 -0.1487 -0.0150  0.0107
   23MOL    C52 7136   5.097   3.483   3.671 -0.6568 -0.1443  0.2841
   23MOL    O53 7137   4.992   3.434   3.620  0.4434 -0.7045 -0.0873
   23MOL    N54 7138   5.198   3.407   3.719 -0.0294 -0.1557 -0.0790
   23MOL    C55 7139   5.329   3.453   3.766 -0.7532  0.4008 -0.0635
   23MOL    C56 7140   5.192   3.261   3.727  0.6421  0.3430 -0.4172
   23MOL    H57 7141   5.063   3.707   3.490 -1.4656 -1.8670  2.3744
   23MOL    H58 7142   5.220   3.634   3.515 -1.1250 -1.4798 -0.6940
   23MOL    H59 7143   5.166   3.663   3.769 -1.8052 -1.2538  1.8744
   23MOL    H60 7144   5.386   3.370   3.809 -3.1953 -0.8580  0.8132
   23MOL    H61 7145   5.395   3.496   3.691 -0.6363 -0.8399 -0.6944
   23MOL    H62 7146   5.315   3.529   3.842 -2.7249  0.9112 -0.9183
   23MOL    H63 7147   5.154   3.225   3.631 -3.7861  2.6019  0.3483
   23MOL    H64 7148   5.119   3.236   3.804 -0.7418  0.4278 -1.6613
   23MOL    H65 7149   5.283   3.205   3.747 -0.4410 -1.3458 -0.0537
   23MOL    C66 7150   4.960   3.688   3.743 -0.2963 -0.2310  0.2381
   23MOL    C67 7151   4.941   3.666   3.899  0.3933  0.2738  0.2070
   23MOL    C68 7152   4.792   3.669   3.945 -0.4655  0.0665 -0.5859
   23MOL    O69 7153   4.729   3.771   3.944 -0.0254 -0.8868  0.4667
   23MOL    N70 7154   4.728   3.556   3.982  0.9466 -0.3169  0.3450
   23MOL    C71 7155   4.789   3.422   3.954 -0.0140 -0.6345 -0.1479
   23MOL    C72 7156   4.582   3.555   4.019 -0.1153 -0.0897 -0.4327
   23MOL    H73 7157   4.952   3.794   3.718  0.1615  0.1992  1.8565
   23MOL    H74 7158   4.871   3.640   3.703 -0.2272  0.9903 -1.4094
   23MOL    H75 7159   4.979   3.569   3.930 -2.2370 -0.9299 -0.2184
   23MOL    H76 7160   4.868   3.397   4.025 -0.2742  1.8377  1.0643
   23MOL    H77 7161   4.708   3.349   3.953  0.2466 -0.9545  1.0043
   23MOL    H78 7162   4.849   3.424   3.863  1.3035 -0.2572  0.7247
   23MOL    H79 7163   4.545   3.640   4.076 -0.5452  0.5147 -1.6197
   23MOL    H80 7164   4.577   3.476   4.094  0.9946  1.2515  1.0840
   23MOL    H81 7165   4.511   3.542   3.938 -0.7946 -1.3442  0.3306
   23MOL    C82 7166   5.020   3.767   3.988 -0.1212  0.0722  0.2029
   23MOL    C83 7167   5.117   3.715   4.099 -0.1732 -0.1106 -0.1518
   23MOL    C84 7168   5.037   3.635   4.196 -0.8763  0.7624 -0.1360
   23MOL    O85 7169   4.945   3.693   4.249  0.5070  0.1831  0.1507
   23MOL    N86 7170   5.068   3.505   4.218 -0.5928  0.8828  0.5265
   23MOL    C87 7171   5.179   3.432   4.159  0.0450  0.2305 -0.1189
   23MOL    C88 7172   4.973   3.432   4.295 -0.5070 -0.8477  0.1540
   23MOL    H89 7173   5.083   3.829   3.924  0.8043 -0.0445  0.9891
   23MOL    H90 7174   4.950   3.835   4.036 -0.9668 -1.7341  1.5746
   23MOL    H91 7175   5.198   3.661   4.049  0.6866  0.0667  1.0206
   23MOL    H92 7176   5.158   3.327   4.142  0.3033  0.1124  0.3004
   23MOL    H93 7177   5.212   3.464   4.060 -0.5648 -1.4909 -0.8982
   23MOL    H94 7178   5.265   3.443   4.225 -1.2015 -0.4410  1.6358
   23MOL    H95 7179   4.991   3.324   4.292  3.1349 -0.3453  1.2027
   23MOL    H96 7180   4.870   3.433   4.258 -0.1399  0.2816 -0.8666
   23MOL    H97 7181   4.972   3.458   4.401  0.8954 -4.1201  1.0293
   23MOL    C98 7182   5.196   3.837   4.161  0.4849  0.0209  0.2435
   23MOL    C99 7183   5.343   3.802   4.195 -0.2319 -0.2517  0.7808
   23MOL   C100 7184   5.387   3.903   4.306 -0.1373  0.9239  0.6057
   23MOL   O101 7185   5.421   4.017   4.273 -0.2994  0.2125  0.1340
   23MOL   N102 7186   5.399   3.853   4.433 -0.2590  0.2170  0.1762
   23MOL   C103 7187   5.302   3.763   4.490 -0.0353  0.2199 -0.0965
   23MOL   C104 7188   5.494   3.912   4.529 -0.4614  0.8391 -0.0514
   23MOL   H105 7189   5.189   3.918   4.088  2.2960 -0.4590 -0.4864
   23MOL   H106 7190   5.145   3.865   4.254 -0.4678 -1.3022  0.1286
   23MOL   H107 7191   5.340   3.702   4.240  1.1316 -0.6251  0.0458
   23MOL   H108 7192   5.220   3.753   4.419 -0.3008 -0.0334  0.2455
   23MOL   H109 7193   5.344   3.667   4.520  0.0440 -0.8637 -3.4728
   23MOL   H110 7194   5.252   3.817   4.571  0.8223  1.2287 -0.2165
   23MOL   H111 7195   5.505   3.870   4.629 -3.3192 -1.6077 -0.7166
   23MOL   H112 7196   5.485   4.020   4.541 -0.6676  0.9074 -0.8042
   23MOL   H113 7197   5.591   3.919   4.479 -0.0137 -1.3042  0.5044
   23MOL   C114 7198   5.435   3.801   4.074  0.0820  0.3977  0.1036
   23MOL   C115 7199   5.577   3.733   4.084  0.1892 -0.2914  0.4110
   23MOL   C116 7200   5.566   3.577   4.095  0.2683  0.4054  0.5671
   23MOL   O117 7201   5.501   3.533   4.184 -0.1687 -0.2261 -0.2217
   23MOL   N118 7202   5.619   3.502   3.997 -0.2148 -0.0147 -0.5962
   23MOL   C119 7203   5.626   3.354   4.018  0.6093  0.3096 -0.0148
   23MOL   C120 7204   5.663   3.550   3.867 -0.4724  0.7727 -0.5894
   23MOL   H121 7205   5.389   3.768   3.981  0.5719  0.4372 -0.1545
   23MOL   H122 7206   5.452   3.906   4.049 -1.2463  0.7764  0.7093
   23MOL   H123 7207   5.628   3.757   3.990  0.3723 -1.3228  0.2466
   23MOL   H124 7208   5.539   3.297   3.987  0.8457 -1.0332  1.7247
   23MOL   H125 7209   5.705   3.325   3.949  1.6974 -1.1269  1.7836
   23MOL   H126 7210   5.650   3.334   4.122 -2.0609  0.7245  0.7043
   23MOL   H127 7211   5.691   3.475   3.793 -1.6477  0.2493 -0.5196
   23MOL   H128 7212   5.761   3.591   3.891 -0.5266  2.2198 -2.7179
   23MOL   H129 7213   5.611   3.625   3.808  1.5874  2.9280  0.2494
   23MOL   C130 7214   5.670   3.807   4.191 -0.8654 -0.1220  0.1176
   23MOL   C131 7215   5.821   3.832   4.148 -0.5430  0.2146 -0.3524
   23MOL   C132 7216   5.905   3.704   4.142 -0.1915  0.0187 -0.2406
   23MOL   O133 7217   5.877   3.611   4.219  0.1415  0.1628 -0.0146
   23MOL   N134 7218   6.019   3.691   4.064  0.1161  0.3084  0.1148
   23MOL   C135 7219   6.064   3.797   3.977  0.0149 -0.2454  0.2037
   23MOL   C136 7220   6.103   3.575   4.058 -0.2658 -0.1372  0.2985
   23MOL   H137 7221   5.620   3.902   4.210 -1.7315 -0.7687  1.0519
   23MOL   H138 7222   5.679   3.750   4.283  1.3827 -2.8062 -1.6527
   23MOL   H139 7223   5.808   3.858   4.043 -1.5682 -2.1091 -0.8451
   23MOL   H140 7224   6.055   3.899   4.016 -0.5120 -0.1399 -0.1743
   23MOL   H141 7225   6.164   3.776   3.940 -0.2146  0.4236 -0.8416
   23MOL   H142 7226   5.997   3.799   3.891 -1.1318  0.4063  1.0864
   23MOL   H143 7227   6.095   3.518   4.151  1.9782  0.1881  0.7100
   23MOL   H144 7228   6.203   3.579   4.017 -1.3580 -2.8992 -2.8339
   23MOL   H145 7229   6.060   3.499   3.993  0.8761  1.1459 -1.9997
   23MOL   C146 7230   5.895   3.940   4.232  0.4928 -0.0357  0.4670
   23MOL   C147 7231   5.858   4.084   4.227 -0.0632 -1.2663  0.2560
   23MOL   C148 7232   5.869   4.136   4.077  0.7350 -0.6485  0.0023
   23MOL   O149 7233   5.980   4.135   4.032  0.4346 -0.1399  0.3353
   23MOL   N150 7234   5.759   4.177   4.012  0.4664 -0.4896 -0.0012
   23MOL   C151 7235   5.771   4.234   3.873 -0.0832 -0.3222 -0.3969
   23MOL   C152 7236   5.622   4.160   4.058 -0.0585 -0.5433 -0.0456
   23MOL   H153 7237   5.896   3.902   4.334 -1.9808 -0.0820  0.5070
   23MOL   H154 7238   6.000   3.941   4.204  0.5039 -1.4579  0.4318
   23MOL   H155 7239   5.758   4.099   4.269  0.8191 -1.7008  2.5818
   23MOL   H156 7240   5.854   4.305   3.876 -0.7407  0.3868  3.1067
   23MOL   H157 7241   5.781   4.146   3.810  1.2626 -0.8459  0.5217
   23MOL   H158 7242   5.683   4.297   3.862  0.0020 -0.2102 -0.4375
   23MOL   H159 7243   5.546   4.207   3.996 -0.8066 -0.3612  1.0107
   23MOL   H160 7244   5.610   4.206   4.156  1.7937  0.2766 -0.1842
   23MOL   H161 7245   5.591   4.055   4.063 -2.9287  0.2546 -0.3669
   23MOL   C162 7246   5.949   4.161   4.321 -1.1450  0.5836 -1.1864
   23MOL   C163 7247   5.948   4.313   4.321  0.7919 -0.3402  0.1307
   23MOL   C164 7248   6.059   4.364   4.414  0.0158 -0.0778  0.0053
   23MOL   O165 7249   6.036   4.354   4.532 -0.0717  0.1494 -0.2952
   23MOL   N166 7250   6.174   4.414   4.360  0.0180 -0.7313  0.5270
   23MOL   C167 7251   6.294   4.460   4.449 -0.6555 -0.1679 -0.4658
   23MOL   C168 7252   6.222   4.390   4.227 -0.2459 -0.2591 -0.4199
   23MOL   H169 7253   5.920   4.130   4.421  0.4805  0.7726 -0.6360
   23MOL   H170 7254   6.051   4.128   4.303 -1.9873 -2.1459 -1.2117
   23MOL   H171 7255   5.949   4.360   4.223 -2.4640  1.1050  0.7340
   23MOL   H172 7256   6.329   4.552   4.402  1.8760 -1.3573 -0.9819
   23MOL   H173 7257   6.275   4.482   4.554  0.8116 -0.9052 -0.0228
   23MOL   H174 7258   6.379   4.392   4.442 -0.6555 -0.1466 -0.6854
   23MOL   H175 7259   6.274   4.296   4.213  0.3924  0.0803 -0.3638
   23MOL   H176 7260   6.297   4.462   4.196 -0.3321  0.3835  0.8425
   23MOL   H177 7261   6.147   4.397   4.147  0.3676  2.5174 -0.8070
   23MOL   C178 7262   5.807   4.359   4.381 -0.1902  1.1229  0.3160
   23MOL   C179 7263   5.746   4.491   4.350 -0.2557 -0.3093  0.3898
   23MOL   C180 7264   5.684   4.490   4.211  0.2644 -0.2371  0.3002
   23MOL   O181 7265   5.754   4.499   4.111  0.3232  0.0216  0.4200
   23MOL   N182 7266   5.548   4.483   4.199  0.2141 -1.1312  0.4778
   23MOL   C183 7267   5.460   4.441   4.308 -0.3342  0.3985 -0.4248
   23MOL   C184 7268   5.490   4.514   4.066  0.0971 -0.3371 -0.1464
   23MOL   H185 7269   5.727   4.291   4.351  0.8704 -0.1230  0.2765
   23MOL   H186 7270   5.803   4.342   4.489 -0.2508  0.1703  0.1727
   23MOL   H187 7271   5.668   4.504   4.425 -0.1904 -0.7540  0.5371
   23MOL   H188 7272   5.492   4.343   4.344 -0.0704 -0.0022 -1.7082
   23MOL   H189 7273   5.452   4.516   4.387 -3.1523 -1.7683  1.4229
   23MOL   H190 7274   5.358   4.427   4.274 -0.7035  0.7163  0.5494
   23MOL   H191 7275   5.539   4.595   4.011 -0.6061  0.3017  0.1589
   23MOL   H192 7276   5.386   4.543   4.078  0.1773 -0.0018 -0.2541
   23MOL   H193 7277   5.498   4.425   4.004  2.0717  1.6508 -2.9075
   23MOL   C194 7278   5.845   4.608   4.372  1.0195 -0.5665 -0.0888
   23MOL   C195 7279   5.854   4.662   4.516  0.3190  0.4429  0.1144
   23MOL   C196 7280   5.730   4.749   4.559 -0.3853 -0.7266 -0.7382
   23MOL   O197 7281   5.644   4.768   4.474 -0.1292  0.3656  0.5624
   23MOL   N198 7282   5.716   4.803   4.686  0.1249 -0.4709 -0.1659
   23MOL   C199 7283   5.603   4.893   4.725  0.2089 -0.0791 -0.2712
   23MOL   C200 7284   5.822   4.788   4.794  0.4807 -1.0279  0.4127
   23MOL   H201 7285   5.947   4.581   4.343  0.4967  0.0501 -2.5775
   23MOL   H202 7286   5.809   4.689   4.309 -0.4154 -1.0969  0.0252
   23MOL   H203 7287   5.848   4.576   4.583 -0.6231  0.6227  0.2799
   23MOL   H204 7288   5.645   4.993   4.730 -1.8209  0.7156  1.9481
   23MOL   H205 7289   5.518   4.883   4.658 -0.2213 -1.0177  0.3989
   23MOL   H206 7290   5.564   4.864   4.823 -1.7307 -0.7949 -1.2285
   23MOL   H207 7291   5.881   4.696   4.788 -0.1319 -1.4843  1.2602
   23MOL   H208 7292   5.769   4.796   4.889 -0.0067  2.5179 -0.0723
   23MOL   H209 7293   5.897   4.867   4.802  0.0723 -0.4129 -1.5203
   23MOL   C210 7294   5.996   4.738   4.521  0.1248 -0.5152 -1.2071
   23MOL   C211 7295   6.029   4.843   4.416  0.2472  0.4226 -0.1086
   23MOL   C212 7296   6.180   4.859   4.409 -1.2428 -0.1248 -0.6180
   23MOL   O213 7297   6.242   4.906   4.505  0.2612  0.0386 -0.3456
   23MOL   N214 7298   6.249   4.809   4.303  0.2241  0.0968 -0.3231
   23MOL   C215 7299   6.397   4.816   4.283  1.1606  0.4935 -0.5772
   23MOL   C216 7300   6.182   4.753   4.185 -0.3755 -0.9659 -0.4560
   23MOL   H217 7301   6.018   4.776   4.621  1.1806  0.8058 -1.9187
   23MOL   H218 7302   6.073   4.662   4.507  1.4214  0.4711  0.4144
   23MOL   H219 7303   5.987   4.814   4.319  0.0069 -1.2950  0.5048
   23MOL   H220 7304   6.435   4.749   4.206 -1.8170 -0.8174 -0.9923
   23MOL   H221 7305   6.417   4.919   4.254  0.9840  0.8384  0.4971
   23MOL   H222 7306   6.442   4.797   4.381  0.3734  0.5145 -0.2063
   23MOL   H223 7307   6.246   4.709   4.109 -1.0163 -2.1394 -0.3177
   23MOL   H224 7308   6.130   4.840   4.144 -0.3847 -0.5943  0.3308
   23MOL   H225 7309   6.117   4.669   4.209 -1.1073 -0.3192 -0.1387
   23MOL   C226 7310   5.972   4.986   4.470  0.1147 -0.6797  0.1602
   23MOL   C227 7311   5.859   5.048   4.388  0.2499 -0.3308 -0.2709
   23MOL   C228 7312   5.923   5.101   4.253  0.7546 -0.6449  0.8666
   23MOL   O229 7313   6.033   5.159   4.259  0.3626  0.1006 -0.9561
   23MOL   N230 7314   5.871   5.068   4.132 -0.3754  0.2215  1.0426
   23MOL   C231 7315   5.918   5.142   4.014 -0.1802 -0.3418  0.2346
   23MOL   C232 7316   5.748   4.994   4.110 -0.7984 -0.1575 -0.0997
   23MOL   H233 7317   5.931   4.964   4.568  2.9087 -1.4588  1.2086
   23MOL   H234 7318   6.053   5.050   4.504  0.1083 -0.3899 -0.3546
   23MOL   H235 7319   5.787   4.970   4.365 -1.3420  0.6814  1.1282
   23MOL   H236 7320   5.915   5.250   4.028 -1.7946  0.0089 -2.3515
   23MOL   H237 7321   6.009   5.088   3.990  0.0137 -0.2522  0.7671
   23MOL   H238 7322   5.848   5.135   3.930  1.5679  0.3629 -1.3130
   23MOL   H239 7323   5.747   4.960   4.007 -1.4373  2.9551 -1.1895
   23MOL   H240 7324   5.662   5.056   4.137 -0.8445  0.0170 -0.6431
   23MOL   H241 7325   5.743   4.901   4.166 -0.4678 -1.0740 -1.5705
   23MOL   C242 7326   5.804   5.172   4.470 -0.9605  0.0822  0.1071
   23MOL   C243 7327   5.666   5.217   4.417  0.0660 -0.5618  0.1143
   23MOL   C244 7328   5.672   5.343   4.327 -0.3770 -0.2701 -0.5382
   23MOL   O245 7329   5.634   5.328   4.210  0.5523 -0.6636 -0.3435
   23MOL   N246 7330   5.720   5.464   4.366 -0.4561  0.1181 -0.6576
   23MOL   C247 7331   5.717   5.579   4.273  0.3260  0.5964  1.1554
   23MOL   C248 7332   5.754   5.507   4.504  0.1127 -0.3456  0.0048
   23MOL   H249 7333   5.790   5.141   4.574  0.3466  0.8195  0.5146
   23MOL   H250 7334   5.877   5.254   4.468 -0.2142 -0.4849  2.1697
   23MOL   H251 7335   5.633   5.131   4.359 -0.3674  0.0326 -0.5203
   23MOL   H252 7336   5.612   5.604   4.258  0.2160 -0.8606 -0.5774
   23MOL   H253 7337   5.770   5.665   4.313 -0.6044  1.8563 -0.2406
   23MOL   H254 7338   5.765   5.547   4.181  1.4727 -1.2858  2.3803
   23MOL   H255 7339   5.757   5.433   4.584 -2.8602  0.0152  0.5136
   23MOL   H256 7340   5.687   5.590   4.526  0.4670 -0.4263  1.4207
   23MOL   H257 7341   5.844   5.568   4.509 -0.7795  0.9056  0.8359
   23MOL   C258 7342   5.558   5.228   4.529  0.0022 -0.1230 -0.1275
   23MOL   C259 7343   5.415   5.224   4.477 -0.5830  0.5056 -0.2269
   23MOL   C260 7344   5.337   5.333   4.559  0.4514  1.0502 -0.1097
   23MOL   O261 7345   5.331   5.316   4.677 -0.3535 -0.3091  0.0769
   23MOL   N262 7346   5.307   5.447   4.500  0.1238 -0.2862  0.3541
   23MOL   C263 7347   5.286   5.454   4.353  0.1850 -0.8001 -0.0916
   23MOL   C264 7348   5.278   5.575   4.570  0.1285  0.2270 -0.7503
   23MOL   H265 7349   5.579   5.151   4.603 -4.3887 -1.4945 -0.1704
   23MOL   H266 7350   5.575   5.321   4.583  2.0084  0.0206 -0.9410
   23MOL   H267 7351   5.427   5.240   4.369  0.0478  2.1410  0.0666
   23MOL   H268 7352   5.194   5.411   4.314 -0.4147  0.5626 -0.2018
   23MOL   H269 7353   5.281   5.558   4.322 -0.6325 -1.1447 -1.1392
   23MOL   H270 7354   5.366   5.417   4.289  1.9792 -0.7985  2.0420
   23MOL   H271 7355   5.169   5.574   4.583  0.3752  2.6215  2.2264
   23MOL   H272 7356   5.311   5.659   4.509  1.4924  0.7458  0.6767
   23MOL   H273 7357   5.316   5.565   4.672  2.2426 -0.0503 -1.5487
   23MOL   C274 7358   5.360   5.081   4.504  0.0547 -0.1233 -0.2626
   23MOL   C275 7359   5.230   5.039   4.427  0.5028  0.3301  0.6390
   23MOL   C276 7360   5.264   5.012   4.275 -0.0999  0.1063 -0.2420
   23MOL   O277 7361   5.267   5.105   4.198 -0.8064 -0.4071  0.0807
   23MOL   N278 7362   5.284   4.884   4.226  0.7143 -0.3315 -0.1765
   23MOL   C279 7363   5.288   4.774   4.321 -0.9631  0.1048  0.2174
   23MOL   C280 7364   5.299   4.849   4.084 -0.3746 -0.3869  0.1561
   23MOL   H281 7365   5.438   5.012   4.474  0.4245  1.0561 -2.1425
   23MOL   H282 7366   5.345   5.071   4.611 -1.7349 -1.4748 -0.6112
   23MOL   H283 7367   5.202   4.940   4.463  1.8533  0.6411  2.6213
   23MOL   H284 7368   5.330   4.684   4.278  1.1666  2.0123 -1.8657
   23MOL   H285 7369   5.350   4.794   4.409  0.6693 -3.1354 -0.1250
   23MOL   H286 7370   5.189   4.754   4.362 -1.2422  0.3565 -0.3257
   23MOL   H287 7371   5.278   4.751   4.040  0.3723  1.2882 -4.1538
   23MOL   H288 7372   5.405   4.860   4.063 -0.4603 -0.7708 -0.4940
   23MOL   H289 7373   5.240   4.917   4.022 -2.6246 -1.2051  1.3360
   23MOL   C290 7374   5.102   5.134   4.448 -0.2694  0.6385  0.0427
   23MOL   C291 7375   4.972   5.080   4.389  0.1702 -0.3102  0.6259
   23MOL   C292 7376   4.898   5.171   4.280 -0.4949 -0.4828  0.4156
   23MOL   O293 7377   4.871   5.289   4.303  0.1618 -0.1901  0.1982
   23MOL   N294 7378   4.867   5.121   4.161 -0.0316 -0.3126 -0.1008
   23MOL   C295 7379   4.891   4.985   4.122 -0.6272 -0.0815  0.0583
   23MOL   C296 7380   4.806   5.204   4.062 -0.0911 -0.4161  0.6798
   23MOL   H297 7381   5.089   5.151   4.555 -0.2070  0.1986  0.1187
   23MOL   H298 7382   5.125   5.237   4.421 -0.8156  1.1326  1.3924
   23MOL   H299 7383   5.003   4.991   4.333 -1.2848  0.3788 -1.3358
   23MOL   H300 7384   4.992   4.960   4.090  0.3239  2.1250  1.1765
   23MOL   H301 7385   4.873   4.924   4.211  1.2375 -1.8292 -0.7400
   23MOL   H302 7386   4.818   4.950   4.049 -1.1335 -1.2103  1.0807
   23MOL   H303 7387   4.864   5.293   4.037 -1.4811  0.3628  0.1401
   23MOL   H304 7388   4.707   5.236   4.095 -1.0477  0.3665 -2.7173
   23MOL   H305 7389   4.778   5.155   3.969 -0.2130  1.1355 -0.1211
   23MOL   C306 7390   4.862   5.021   4.484 -0.6983  0.2479 -0.3387
   23MOL   C307 7391   4.891   4.879   4.524 -0.2522  0.3084 -0.1343
   23MOL   C308 7392   4.778   4.827   4.616 -0.4816  0.7065  0.1626
   23MOL   O309 7393   4.685   4.902   4.655 -0.0741 -0.0440  0.1291
   23MOL   N310 7394   4.776   4.699   4.657 -0.2758 -0.1760  0.1578
   23MOL   C311 7395   4.663   4.657   4.747 -0.0023  0.1707  0.1427
   23MOL   C312 7396   4.880   4.599   4.627  0.2732  0.4478 -0.1390
   23MOL   H313 7397   4.854   5.077   4.577 -0.6550  0.2586 -0.3420
   23MOL   H314 7398   4.761   5.024   4.444 -1.4690 -0.9389  1.4621
   23MOL   H315 7399   4.908   4.811   4.440  0.9942  0.4906 -0.0384
   23MOL   H316 7400   4.689   4.654   4.852  0.4700 -1.9284 -0.0000
   23MOL   H317 7401   4.575   4.720   4.731 -0.7475 -0.8653  0.0954
   23MOL   H318 7402   4.635   4.553   4.731 -0.8546  0.6427 -1.6137
   23MOL   H319 7403   4.942   4.593   4.717  0.5852  2.7836 -0.1740
   23MOL   H320 7404   4.940   4.623   4.539 -1.2200 -0.2260 -1.3519
   23MOL   H321 7405   4.839   4.499   4.611  1.3192 -0.0090  0.0116
   23MOL   H322 7406   4.985   4.887   4.579 -0.4279 -0.5796  0.3028
   24MOL     C1 7407   7.564   2.384   7.712 -0.1535 -0.2984  0.5650
   24MOL     C2 7408   7.447   2.431   7.797 -0.1716  0.3473 -0.1097
   24MOL     C3 7409   7.431   2.587   7.795 -0.7204 -0.3907 -0.3690
   24MOL     O4 7410   7.524   2.655   7.848  0.4839 -0.2126  0.2026
   24MOL     N5 7411   7.314   2.633   7.751 -0.2701 -0.6339  0.1543
   24MOL     C6 7412   7.303   2.782   7.739  0.0220  0.8220  0.1141
   24MOL     C7 7413   7.184   2.552   7.734 -0.1284 -0.4462  0.2651
   24MOL     H8 7414   7.662   2.394   7.758  0.2092  1.0447 -0.4568
   24MOL     H9 7415   7.578   2.450   7.626  0.7299  1.6652  2.1765
   24MOL    H10 7416   7.351   2.394   7.763 -0.7434  2.9902 -1.4900
   24MOL    H11 7417   7.355   2.824   7.653  0.3432  0.1193 -0.0411
   24MOL    H12 7418   7.196   2.804   7.743 -0.5568 -2.0812  2.7053
   24MOL    H13 7419   7.340   2.832   7.829  2.6509 -0.0414 -0.4360
   24MOL    H14 7420   7.160   2.503   7.828  1.9461 -2.0809 -0.0348
   24MOL    H15 7421   7.196   2.479   7.654 -0.7492  1.1369 -1.3193
   24MOL    H16 7422   7.095   2.611   7.710  0.2210  0.4693  1.1849
   24MOL    H17 7423   7.551   2.283   7.675 -0.8044 -0.8106  2.1710
   24MOL    C18 7424   7.479   2.377   0.087 -0.5362  0.9427 -0.6945
   24MOL    C19 7425   7.442   2.223   0.099  0.1402  0.0232  0.1411
   24MOL    C20 7426   7.287   2.200   0.093  0.0833  0.3396  0.7476
   24MOL    O21 7427   7.220   2.234   0.196  0.2587  0.0697 -0.1891
   24MOL    N22 7428   7.226   2.137   7.839  0.1585 -0.1392  0.4038
   24MOL    C23 7429   7.305   2.100   7.722 -0.1682 -0.3448 -0.4125
   24MOL    C24 7430   7.080   2.124   7.828  0.5698  0.8203  0.5671
   24MOL    H25 7431   7.585   2.387   0.108 -0.7307  2.4296 -0.3627
   24MOL    H26 7432   7.424   2.438   0.158  0.3266  1.3853 -0.3955
   24MOL    H27 7433   7.494   2.175   0.016 -1.2803  0.3159 -0.9504
   24MOL    H28 7434   7.350   2.179   7.662 -0.4949 -0.7314 -1.1722
   24MOL    H29 7435   7.383   2.031   7.754  0.1466 -0.2893 -1.0443
   24MOL    H30 7436   7.237   2.049   7.653 -1.2012  1.2756 -0.6021
   24MOL    H31 7437   7.026   2.202   0.029 -0.5716 -0.5635  1.4451
   24MOL    H32 7438   7.040   2.030   0.012  0.5552 -0.7389 -3.1384
   24MOL    H33 7439   7.044   2.129   7.726 -1.7080 -0.4976  1.2889
   24MOL    C34 7440   7.499   2.167   0.234 -0.6538  0.2764  0.5627
   24MOL    C35 7441   7.505   2.008   0.255  0.5402 -0.6066  0.3601
   24MOL    C36 7442   7.385   1.947   0.345 -0.3317 -0.1501 -0.6709
   24MOL    O37 7443   7.367   2.010   0.454 -0.2111  0.8565 -0.3323
   24MOL    N38 7444   7.318   1.840   0.295 -0.3060 -0.3364 -0.2875
   24MOL    C39 7445   7.352   1.773   0.173  0.4770 -0.2047  0.0922
   24MOL    C40 7446   7.204   1.790   0.376 -0.8538 -0.4785 -0.3859
   24MOL    H41 7447   7.599   2.205   0.252 -0.1675 -0.2265 -1.0497
   24MOL    H42 7448   7.440   2.205   0.318  1.1164  2.9361  0.6380
   24MOL    H43 7449   7.496   1.965   0.155  0.7957  0.0457  0.0545
   24MOL    H44 7450   7.455   1.737   0.178 -0.1964 -1.9992  1.2281
   24MOL    H45 7451   7.287   1.686   0.169 -1.5637  1.3232 -1.0680
   24MOL    H46 7452   7.324   1.838   0.089  0.0421 -0.2292  0.2159
   24MOL    H47 7453   7.239   1.700   0.427  1.8184  1.1646  0.7704
   24MOL    H48 7454   7.122   1.771   0.306 -3.2143  2.1758  1.5518
   24MOL    H49 7455   7.164   1.858   0.451 -0.4043  0.8171 -1.3032
   24MOL    C50 7456   7.636   1.963   0.317  0.2799 -0.6773  0.8270
   24MOL    C51 7457   7.753   1.952   0.222 -0.1791 -0.1136  0.4160
   24MOL    C52 7458   7.733   1.849   0.109 -0.3141  0.1972  0.0557
   24MOL    O53 7459   7.720   1.730   0.135  0.0242 -0.1527 -0.4913
   24MOL    N54 7460   7.733   1.896   7.838  0.1950  0.0938 -0.2466
   24MOL    C55 7461   7.803   2.016   7.792  0.1186 -0.2067  0.2357
   24MOL    C56 7462   7.686   1.814   7.722 -0.2514 -0.5194  0.0519
   24MOL    H57 7463   7.669   2.029   0.398 -0.1901  0.2747  0.2473
   24MOL    H58 7464   7.628   1.862   0.358  0.6860 -0.6046  1.0946
   24MOL    H59 7465   7.761   2.051   0.178 -3.6518 -0.4177 -1.0898
   24MOL    H60 7466   7.738   2.095   7.831  0.9877  0.4126  0.4201
   24MOL    H61 7467   0.052   2.017   7.828 -0.4617 -1.1029  1.9792
   24MOL    H62 7468   7.809   2.037   7.686 -0.3776 -0.8692  0.0702
   24MOL    H63 7469   7.687   1.708   7.748  0.8530 -0.3975  0.5179
   24MOL    H64 7470   7.752   1.826   7.636  0.0118  0.0634  0.3389
   24MOL    H65 7471   7.587   1.843   7.687 -0.4590 -2.0317 -0.7119
   24MOL    C66 7472   0.037   1.940   0.290 -0.1651  0.2569  0.9646
   24MOL    C67 7473   0.107   2.073   0.329 -0.6444  0.1768 -0.5541
   24MOL    C68 7474   0.186   2.135   0.208 -0.5064 -0.8463  0.0187
   24MOL    O69 7475   0.267   2.065   0.154 -0.2653  0.5354 -0.2528
   24MOL    N70 7476   0.164   2.261   0.162  0.1003 -0.0666  0.3388
   24MOL    C71 7477   0.085   2.364   0.227  0.2265  0.1329 -0.4570
   24MOL    C72 7478   0.229   2.312   0.044 -0.0202 -0.2966  0.4094
   24MOL    H73 7479   0.022   1.875   0.376 -1.0929 -1.5850 -0.5632
   24MOL    H74 7480   0.105   1.887   0.224 -0.4191 -0.0422  0.9459
   24MOL    H75 7481   0.023   2.140   0.345 -0.2194  1.3813 -3.1291
   24MOL    H76 7482   0.055   2.346   0.330 -1.6350  2.6209 -0.5189
   24MOL    H77 7483   0.146   2.453   0.233  1.2498 -0.6354  0.6068
   24MOL    H78 7484   7.840   2.376   0.180  0.3143  0.8107 -0.4720
   24MOL    H79 7485   0.263   2.230   7.834  1.3948  0.6631 -0.1192
   24MOL    H80 7486   0.317   2.364   0.081 -0.4589  0.6788  0.1119
   24MOL    H81 7487   0.177   2.389   7.841  3.1596  1.7340  0.1256
   24MOL    C82 7488   0.192   2.070   0.457 -0.2192  0.2352  0.0171
   24MOL    C83 7489   0.314   1.965   0.465 -0.3195  0.1436  0.2457
   24MOL    C84 7490   0.267   1.835   0.526 -0.3907  0.2081 -0.8372
   24MOL    O85 7491   0.214   1.842   0.637 -0.3119  0.0526  0.3433
   24MOL    N86 7492   0.294   1.712   0.467  0.1532  0.5045 -0.1711
   24MOL    C87 7493   0.363   1.692   0.335  0.6216  0.1097  0.2117
   24MOL    C88 7494   0.256   1.591   0.536 -0.2267  0.1728  0.2836
   24MOL    H89 7495   0.221   2.171   0.485  0.3824 -0.3082  1.4081
   24MOL    H90 7496   0.121   2.052   0.538 -1.2916 -0.1125 -0.9846
   24MOL    H91 7497   0.347   1.945   0.363 -1.2193  0.5835 -0.1368
   24MOL    H92 7498   0.297   1.684   0.248  2.0357 -1.2800 -0.7614
   24MOL    H93 7499   0.439   1.769   0.325  1.7600 -0.9821  0.3314
   24MOL    H94 7500   0.423   1.602   0.327 -0.3760 -0.5890  0.5091
   24MOL    H95 7501   0.223   1.518   0.462 -3.3069  0.3087  1.4677
   24MOL    H96 7502   0.169   1.600   0.601  0.4822  0.4933  1.2063
   24MOL    H97 7503   0.342   1.548   0.587 -0.0114  0.0011 -0.2166
   24MOL    C98 7504   0.428   2.033   0.539 -0.4479 -0.1854 -0.0593
   24MOL    C99 7505   0.526   2.115   0.445 -0.5592 -0.8814 -0.4138
   24MOL   C100 7506   0.612   2.028   0.346  0.2918 -0.5321 -0.2754
   24MOL   O101 7507   0.655   1.922   0.397  0.1462  0.2023  0.3268
   24MOL   N102 7508   0.631   2.054   0.210  0.2338 -0.2929 -0.5972
   24MOL   C103 7509   0.670   1.947   0.120 -0.1184  0.1139  0.3885
   24MOL   C104 7510   0.612   2.189   0.149 -0.1391 -0.1861 -0.4482
   24MOL   H105 7511   0.392   2.104   0.613 -1.4057  1.4257 -2.0358
   24MOL   H106 7512   0.483   1.956   0.593 -0.3675  0.7648  1.2143
   24MOL   H107 7513   0.468   2.187   0.388  1.0182  0.3052 -0.5635
   24MOL   H108 7514   0.769   1.968   0.080  0.0603  1.0791  1.3165
   24MOL   H109 7515   0.674   1.850   0.168  0.4957  0.1639  0.4430
   24MOL   H110 7516   0.611   1.938   0.029 -0.3142  0.8713  0.4341
   24MOL   H111 7517   0.549   2.258   0.206 -0.2440 -0.0271 -0.7571
   24MOL   H112 7518   0.585   2.188   0.044  0.1296  0.2383 -0.5202
   24MOL   H113 7519   0.709   2.238   0.157 -0.2233 -0.2473  1.3539
   24MOL   C114 7520   0.636   2.184   0.542  0.1353 -0.2305  0.2231
   24MOL   C115 7521   0.618   2.326   0.597  0.1882 -0.8288  0.0471
   24MOL   C116 7522   0.588   2.424   0.481 -0.0729  0.3658 -0.4213
   24MOL   O117 7523   0.682   2.450   0.403  0.1859  0.2748 -0.6805
   24MOL   N118 7524   0.460   2.463   0.458 -0.6889  0.3193 -0.0279
   24MOL   C119 7525   0.438   2.546   0.343 -0.0790  0.7233 -0.2131
   24MOL   C120 7526   0.353   2.457   0.553 -0.2360  0.5070  0.7177
   24MOL   H121 7527   0.639   2.121   0.631  0.6666 -0.9120 -0.2646
   24MOL   H122 7528   0.733   2.186   0.493 -0.4549 -1.6537 -1.0598
   24MOL   H123 7529   0.533   2.323   0.665  1.5670 -0.9942  1.8091
   24MOL   H124 7530   0.451   2.653   0.361  1.7940  0.8179 -1.9023
   24MOL   H125 7531   0.491   2.513   0.254  0.4543  0.8538  0.0550
   24MOL   H126 7532   0.330   2.549   0.327 -0.1732  0.4640  0.3611
   24MOL   H127 7533   0.398   2.493   0.645  1.7032  0.4436 -0.1819
   24MOL   H128 7534   0.294   2.365   0.550 -0.8262  0.9225 -1.6967
   24MOL   H129 7535   0.280   2.536   0.531 -0.2669  0.4584  0.6441
   24MOL   C130 7536   0.750   2.381   0.672  0.0423  0.0403  0.4709
   24MOL   C131 7537   0.769   2.330   0.813  0.1813  0.2185 -0.6963
   24MOL   C132 7538   0.689   2.421   0.920 -0.0570  0.5588 -0.5090
   24MOL   O133 7539   0.686   2.538   0.915 -0.3402  0.6880 -0.1674
   24MOL   N134 7540   0.624   2.363   1.027 -0.1863 -0.7173 -0.6329
   24MOL   C135 7541   0.589   2.220   1.046 -0.9709 -0.3969  0.0077
   24MOL   C136 7542   0.568   2.449   1.129  1.0699  0.6208 -0.4979
   24MOL   H137 7543   0.842   2.362   0.616 -0.1580  0.0143  0.1510
   24MOL   H138 7544   0.744   2.489   0.664 -2.3130 -0.0724  0.3429
   24MOL   H139 7545   0.712   2.237   0.807  0.4799  0.0164 -0.4063
   24MOL   H140 7546   0.544   2.200   0.950  0.7210 -0.2855 -0.8305
   24MOL   H141 7547   0.671   2.148   1.049  0.0573  0.7365 -0.2198
   24MOL   H142 7548   0.526   2.198   1.132 -1.5088  0.5631 -0.1318
   24MOL   H143 7549   0.493   2.509   1.078  2.3640  0.7755 -2.2564
   24MOL   H144 7550   0.645   2.510   1.176  0.4275  0.7285  0.4217
   24MOL   H145 7551   0.517   2.392   1.206 -1.0679  0.2923 -2.1212
   24MOL   C146 7552   0.924   2.320   0.862 -0.2670  0.9995  0.0778
   24MOL   C147 7553   0.998   2.189   0.814  0.6221  0.2199  0.7154
   24MOL   C148 7554   0.910   2.061   0.843 -0.0610 -0.0262 -0.1415
   24MOL   O149 7555   0.864   2.045   0.957 -0.2370  0.2201 -0.4148
   24MOL   N150 7556   0.896   1.972   0.746  0.4990 -0.4161  0.2361
   24MOL   C151 7557   0.780   1.883   0.747  0.7099 -0.3280  0.5138
   24MOL   C152 7558   0.977   1.965   0.628 -0.1363  0.2843 -0.3152
   24MOL   H153 7559   0.979   2.407   0.826  1.6857 -0.8641 -1.6011
   24MOL   H154 7560   0.931   2.334   0.969 -0.8604  0.4521  0.1934
   24MOL   H155 7561   1.019   2.197   0.707 -1.1859 -2.8012  0.0871
   24MOL   H156 7562   0.745   1.857   0.647 -0.0813 -1.9469  1.1888
   24MOL   H157 7563   0.808   1.802   0.814 -0.7985 -0.9542  0.4173
   24MOL   H158 7564   0.703   1.937   0.803 -0.3914 -0.8804 -0.4502
   24MOL   H159 7565   1.086   1.970   0.638 -0.2894  2.2193  0.6058
   24MOL   H160 7566   0.941   2.041   0.560 -2.4103  1.5262  2.1583
   24MOL   H161 7567   0.977   1.869   0.576  3.1125 -0.8876  1.6462
   24MOL   C162 7568   1.138   2.178   0.890  0.5604 -0.0969  0.3989
   24MOL   C163 7569   1.246   2.267   0.819  0.7416 -0.8309  0.2142
   24MOL   C164 7570   1.298   2.215   0.683 -0.0399 -0.4369  0.4875
   24MOL   O165 7571   1.370   2.116   0.680 -0.1352  0.4845  0.1679
   24MOL   N166 7572   1.243   2.258   0.567 -0.2249 -0.2592  0.0892
   24MOL   C167 7573   1.285   2.181   0.446  0.3576  0.1331  0.1323
   24MOL   C168 7574   1.174   2.387   0.547 -0.1369 -0.1927 -0.1881
   24MOL   H169 7575   1.117   2.215   0.991 -1.0768  3.0783 -1.0194
   24MOL   H170 7576   1.175   2.076   0.892  3.1713  0.8342  1.3850
   24MOL   H171 7577   1.201   2.365   0.804 -0.5658 -1.6638 -1.5459
   24MOL   H172 7578   1.249   2.078   0.449 -0.2306  0.3153 -0.4981
   24MOL   H173 7579   1.250   2.226   0.353  0.3708 -3.2921 -1.6235
   24MOL   H174 7580   1.392   2.176   0.431  0.3679  0.6676  0.0157
   24MOL   H175 7581   1.166   2.417   0.442  3.4204  1.0664 -0.1254
   24MOL   H176 7582   1.212   2.475   0.598  0.9347 -0.7303 -0.0636
   24MOL   H177 7583   1.071   2.377   0.583  0.1283  1.3656  1.0522
   24MOL   C178 7584   1.370   2.294   0.919  0.5727 -0.3882  0.1147
   24MOL   C179 7585   1.404   2.445   0.933  0.2601  1.0034 -0.2594
   24MOL   C180 7586   1.557   2.477   0.959  0.2371  0.2689  0.2037
   24MOL   O181 7587   1.601   2.462   1.072 -0.7397  0.1316 -0.2032
   24MOL   N182 7588   1.639   2.514   0.857  0.1075 -0.1053 -0.2910
   24MOL   C183 7589   1.589   2.548   0.723 -0.2147 -0.3764 -1.2663
   24MOL   C184 7590   1.773   2.550   0.873  0.5122  0.0700  0.1947
   24MOL   H185 7591   1.349   2.257   1.019  0.5001  0.9254  0.5935
   24MOL   H186 7592   1.456   2.236   0.886  0.2365 -1.0477  0.4013
   24MOL   H187 7593   1.386   2.489   0.835 -1.2316 -0.5061 -0.6895
   24MOL   H188 7594   1.598   2.463   0.655 -2.0864 -3.3768  2.1017
   24MOL   H189 7595   1.497   2.605   0.713 -1.9822 -2.7939  0.6669
   24MOL   H190 7596   1.660   2.626   0.693 -0.4328  1.3314  2.3708
   24MOL   H191 7597   1.826   2.525   0.781  1.5175 -0.0503  0.8035
   24MOL   H192 7598   1.827   2.509   0.958  0.8585 -0.1530 -0.1329
   24MOL   H193 7599   1.776   2.656   0.898 -0.9320 -0.0992  1.1281
   24MOL   C194 7600   1.308   2.526   1.019 -0.4643 -0.3047  0.0741
   24MOL   C195 7601   1.314   2.677   0.982  0.5369  0.9964  0.1795
   24MOL   C196 7602   1.278   2.760   1.113 -0.6701 -0.5115 -0.0217
   24MOL   O197 7603   1.158   2.780   1.146 -0.0652 -0.1804  0.4973
   24MOL   N198 7604   1.382   2.817   1.170 -0.6127  0.4180 -0.1858
   24MOL   C199 7605   1.369   2.953   1.210  0.4324 -0.1173 -0.2170
   24MOL   C200 7606   1.519   2.763   1.174  0.4883  0.8203  0.0544
   24MOL   H201 7607   1.205   2.492   1.001 -0.5066  0.0881 -0.4549
   24MOL   H202 7608   1.327   2.513   1.125  0.9035 -0.0257 -0.1254
   24MOL   H203 7609   1.414   2.699   0.947  0.7401  0.9556  0.7285
   24MOL   H204 7610   1.363   2.949   1.319  0.6617 -0.9240 -0.2287
   24MOL   H205 7611   1.464   2.996   1.179 -0.3530  2.6666  1.1045
   24MOL   H206 7612   1.280   2.997   1.166  0.6467 -0.1644 -0.7092
   24MOL   H207 7613   1.561   2.746   1.075 -1.4791  1.1980 -0.8784
   24MOL   H208 7614   1.523   2.665   1.222  0.6690  0.8440  0.0866
   24MOL   H209 7615   1.584   2.827   1.233  1.2501 -0.6718  0.8616
   24MOL   C210 7616   1.206   2.708   0.875 -0.6926  0.4669 -0.0003
   24MOL   C211 7617   1.200   2.850   0.814 -0.5861  0.5963 -0.3063
   24MOL   C212 7618   1.061   2.871   0.754 -0.1318  0.2866  0.5378
   24MOL   O213 7619   1.035   2.831   0.646  0.0560 -0.5952  0.4403
   24MOL   N214 7620   0.972   2.952   0.826 -0.3783 -0.8545  0.4270
   24MOL   C215 7621   0.841   2.987   0.762  0.8183  0.0509  0.1965
   24MOL   C216 7622   0.969   2.962   0.972  0.6790 -0.3595  0.5873
   24MOL   H217 7623   1.191   2.628   0.803 -0.5619 -1.3613  1.9530
   24MOL   H218 7624   1.111   2.696   0.928 -0.6244  1.3226  0.3237
   24MOL   H219 7625   1.206   2.923   0.895 -0.9680  0.7569 -0.4228
   24MOL   H220 7626   0.772   3.020   0.840  1.6455  0.7871  0.6185
   24MOL   H221 7627   0.848   3.064   0.685 -0.7392 -1.4048 -1.4394
   24MOL   H222 7628   0.795   2.896   0.725 -1.1166  0.9214  0.3819
   24MOL   H223 7629   0.882   3.014   1.013 -0.2579 -2.1299  0.9158
   24MOL   H224 7630   1.058   3.019   0.998 -1.2620  2.1339  2.0169
   24MOL   H225 7631   0.969   2.863   1.019 -0.7889 -0.3825  0.5599
   24MOL   C226 7632   1.317   2.876   0.719  0.3277  0.1388 -0.0701
   24MOL   C227 7633   1.337   3.015   0.660 -0.2423  0.1408  0.6750
   24MOL   C228 7634   1.302   3.136   0.756  0.5738  0.2660  0.1417
   24MOL   O229 7635   1.194   3.194   0.744 -0.6450  0.3401  0.0511
   24MOL   N230 7636   1.398   3.182   0.844 -0.1065 -0.1761  0.2109
   24MOL   C231 7637   1.373   3.307   0.926 -0.1575  0.1970  0.2825
   24MOL   C232 7638   1.515   3.107   0.886  0.1104 -0.1150  0.0360
   24MOL   H233 7639   1.405   2.860   0.781  0.5853  3.9459  0.6647
   24MOL   H234 7640   1.320   2.800   0.640 -2.5223  0.2294 -0.3120
   24MOL   H235 7641   1.446   3.013   0.652 -0.3380 -3.2428 -0.9420
   24MOL   H236 7642   1.299   3.271   0.997  0.7925  2.3904  2.4287
   24MOL   H237 7643   1.458   3.340   0.985  1.2466 -2.3330 -0.2353
   24MOL   H238 7644   1.344   3.393   0.866 -0.9506 -1.0807 -1.2242
   24MOL   H239 7645   1.596   3.129   0.817 -2.1494  0.6569 -2.4449
   24MOL   H240 7646   1.483   3.005   0.908 -2.2756  1.0664  2.3757
   24MOL   H241 7647   1.551   3.149   0.981 -1.4403  0.9793  0.1560
   24MOL   C242 7648   1.269   3.036   0.520  0.0834  0.7829  0.1240
   24MOL   C243 7649   1.288   2.928   0.416 -0.4069 -0.5469  0.0748
   24MOL   C244 7650   1.430   2.876   0.401  0.2217  0.1491 -0.0360
   24MOL   O245 7651   1.517   2.967   0.400 -0.3214  0.6751 -0.4193
   24MOL   N246 7652   1.465   2.747   0.389 -0.0893  0.9840 -0.2946
   24MOL   C247 7653   1.604   2.706   0.370 -0.2191  0.6110  0.1877
   24MOL   C248 7654   1.359   2.646   0.396 -0.4958  0.0173 -0.2007
   24MOL   H249 7655   1.162   3.036   0.541  0.2050  0.0074  0.7876
   24MOL   H250 7656   1.286   3.130   0.467 -0.0004  1.2830  0.9734
   24MOL   H251 7657   1.221   2.848   0.447 -0.3776 -1.1878 -1.4669
   24MOL   H252 7658   1.635   2.725   0.268 -1.0605  0.3617 -0.1173
   24MOL   H253 7659   1.673   2.758   0.438 -0.6352 -0.5598  1.5437
   24MOL   H254 7660   1.627   2.602   0.392 -0.2048  0.7111  0.6599
   24MOL   H255 7661   1.390   2.543   0.378  0.0162 -0.1357  1.4050
   24MOL   H256 7662   1.277   2.658   0.325  0.5512 -1.6372 -1.7399
   24MOL   H257 7663   1.316   2.643   0.497 -1.6485  1.0590 -0.6428
   24MOL   C258 7664   1.245   2.961   0.271  0.1158 -0.3703  0.0806
   24MOL   C259 7665   1.089   2.991   0.258 -0.6087  0.1488  0.2629
   24MOL   C260 7666   1.011   2.863   0.282  0.1029 -0.1390  0.1391
   24MOL   O261 7667   1.051   2.762   0.230  0.0741  0.5000 -0.0144
   24MOL   N262 7668   0.895   2.870   0.349  0.3354 -0.4440  0.6887
   24MOL   C263 7669   0.834   2.754   0.407  0.1128 -0.3822 -0.3938
   24MOL   C264 7670   0.833   2.990   0.398 -0.4660  0.8844 -0.5814
   24MOL   H265 7671   1.308   3.041   0.232  1.1872 -1.8566 -1.3230
   24MOL   H266 7672   1.272   2.882   0.201  0.4091  0.5219 -0.8128
   24MOL   H267 7673   1.069   3.067   0.333 -0.3040 -2.1398  2.7231
   24MOL   H268 7674   0.888   2.662   0.385 -0.8986 -1.3762  1.1701
   24MOL   H269 7675   0.826   2.768   0.515  1.3797 -0.8184 -0.2348
   24MOL   H270 7676   0.734   2.733   0.369 -0.2314  0.7216 -0.1210
   24MOL   H271 7677   0.820   3.064   0.319  0.3488  1.4637 -0.1734
   24MOL   H272 7678   0.892   3.045   0.472  1.3139 -0.5553 -0.9091
   24MOL   H273 7679   0.736   2.981   0.447  0.9891  0.5710  2.3852
   24MOL   C274 7680   1.052   3.046   0.119  0.6050  0.2505 -0.2927
   24MOL   C275 7681   1.040   3.196   0.100 -0.0248 -0.3425  0.8048
   24MOL   C276 7682   1.177   3.275   0.123  0.7539  0.2974 -0.2288
   24MOL   O277 7683   1.203   3.301   0.239  0.0781  0.3780  0.0157
   24MOL   N278 7684   1.253   3.325   0.021  0.1896 -1.2180  0.0465
   24MOL   C279 7685   1.231   3.291   7.730  0.2915 -0.0140 -0.0225
   24MOL   C280 7686   1.369   3.419   0.043  0.0014 -0.8116 -0.0609
   24MOL   H281 7687   1.125   3.012   0.045  1.0739 -2.4621  1.3330
   24MOL   H282 7688   0.958   3.005   0.082  1.4373 -2.4185  0.4258
   24MOL   H283 7689   1.013   3.220   7.851  0.1816 -2.9138  0.1290
   24MOL   H284 7690   1.318   3.268   7.668  0.6588  1.9705 -0.2715
   24MOL   H285 7691   1.183   3.193   7.723 -0.0771  0.2066 -0.5973
   24MOL   H286 7692   1.160   3.354   7.677  1.0428 -0.2542 -1.3345
   24MOL   H287 7693   1.447   3.415   7.821  0.6037 -0.9083  0.5587
   24MOL   H288 7694   1.425   3.410   0.136  0.5732  0.3595 -0.2942
   24MOL   H289 7695   1.329   3.519   0.031  0.9902 -0.5112 -0.8152
   24MOL   C290 7696   0.920   3.256   0.181 -0.5302  0.2521  0.2950
   24MOL   C291 7697   0.874   3.398   0.159 -0.3530 -0.0342  0.5849
   24MOL   C292 7698   0.772   3.429   0.272 -0.1395 -0.2060  0.1016
   24MOL   O293 7699   0.652   3.398   0.259 -0.0827  0.1368 -0.0545
   24MOL   N294 7700   0.812   3.484   0.388 -0.0655 -0.1878  0.3467
   24MOL   C295 7701   0.703   3.530   0.475  0.3813  0.1934  0.0638
   24MOL   C296 7702   0.945   3.488   0.431 -0.1012  0.5639  0.1720
   24MOL   H297 7703   0.832   3.194   0.169  1.3940 -3.3928  3.6970
   24MOL   H298 7704   0.955   3.249   0.284 -0.1978  1.4426  0.2712
   24MOL   H299 7705   0.963   3.461   0.166 -2.0132  2.3963  0.2878
   24MOL   H300 7706   0.749   3.533   0.574  0.9531 -2.0338 -0.0979
   24MOL   H301 7707   0.660   3.626   0.447  1.2572  0.4776 -0.3042
   24MOL   H302 7708   0.632   3.449   0.494  1.8314 -0.6072  2.2719
   24MOL   H303 7709   0.959   3.543   0.524 -0.2435  1.7729 -0.5056
   24MOL   H304 7710   1.008   3.549   0.365  0.1811 -0.0634 -0.1401
   24MOL   H305 7711   0.994   3.391   0.436 -1.2817 -0.0262  0.1783
   24MOL   C306 7712   0.819   3.425   0.015 -0.3738  0.1981 -0.8465
   24MOL   C307 7713   0.776   3.571   7.838  0.3705  0.4195  0.1653
   24MOL   C308 7714   0.702   3.601   7.710  0.7561  0.1116  0.3221
   24MOL   O309 7715   0.642   3.499   7.666  0.0412 -0.2103  0.2638
   24MOL   N310 7716   0.683   3.731   7.668 -0.4364  0.5522  0.4493
   24MOL   C311 7717   0.734   3.851   7.736 -0.1725  0.4511 -0.1644
   24MOL   C312 7718   0.618   3.760   7.538  0.3083  0.5254 -0.6463
   24MOL   H313 7719   0.874   3.373   7.790 -0.8475 -1.1389 -0.3159
   24MOL   H314 7720   0.719   3.383   0.006 -1.0721  1.6064  0.0460
   24MOL   H315 7721   0.712   3.601   0.067 -2.3064  0.3974 -1.8458
   24MOL   H316 7722   0.654   3.896   7.795 -0.5147  0.6623 -0.7850
   24MOL   H317 7723   0.816   3.832   7.805  0.5685  0.2160 -1.1184
   24MOL   H318 7724   0.774   3.911   7.655  0.2140 -1.6244 -1.5472
   24MOL   H319 7725   0.560   3.677   7.496  1.6970 -0.8246  0.0774
   24MOL   H320 7726   0.704   3.765   7.470  0.8671  0.2427  0.0383
   24MOL   H321 7727   0.564   3.854   7.547  1.8360  1.4735 -1.1706
   24MOL   H322 7728   0.866   3.633   7.829 -0.2729  1.4202  0.5309
   25MOL     C1 7729   6.500   4.470   1.460  0.0333  0.6195 -0.0646
   25MOL     C2 7730   6.509   4.461   1.613  0.5255  0.1729 -0.1550
   25MOL     C3 7731   6.382   4.522   1.679 -0.3796  0.2036  1.1305
   25MOL     O4 7732   6.322   4.602   1.612  0.0013 -0.0193 -0.3895
   25MOL     N5 7733   6.338   4.502   1.804 -1.2821 -0.2392 -0.1575
   25MOL     C6 7734   6.242   4.589   1.877 -0.3491  0.0322 -0.0587
   25MOL     C7 7735   6.405   4.408   1.898 -0.3925 -0.3410  0.0803
   25MOL     H8 7736   6.496   4.575   1.432 -1.2262  0.0411 -2.1658
   25MOL     H9 7737   6.417   4.417   1.414  0.0058  0.7233 -0.1333
   25MOL    H10 7738   6.512   4.354   1.636  0.7391 -0.2731 -2.1896
   25MOL    H11 7739   6.287   4.684   1.904  1.7798 -0.8970 -0.2774
   25MOL    H12 7740   6.172   4.614   1.797  0.7470  0.6096 -0.8561
   25MOL    H13 7741   6.191   4.546   1.963  2.0697 -1.7940  0.5164
   25MOL    H14 7742   6.324   4.363   1.954  0.4146 -1.4974  0.3227
   25MOL    H15 7743   6.471   4.469   1.960 -1.3108  1.7308 -0.9025
   25MOL    H16 7744   6.465   4.330   1.852 -1.3887 -0.0198 -1.8209
   25MOL    H17 7745   6.593   4.437   1.413 -1.4051 -0.2007 -2.4243
   25MOL    C18 7746   6.641   4.517   1.672 -0.1291 -0.0708  0.0742
   25MOL    C19 7747   6.670   4.673   1.665 -0.1031  0.4401  0.2064
   25MOL    C20 7748   6.729   4.714   1.529 -0.9485 -0.0278  0.7737
   25MOL    O21 7749   6.836   4.662   1.500  0.3581  0.1031 -0.5504
   25MOL    N22 7750   6.683   4.813   1.454 -0.3653 -0.1091 -0.0093
   25MOL    C23 7751   6.546   4.867   1.482 -0.0062 -0.0155  0.7326
   25MOL    C24 7752   6.747   4.866   1.336 -0.0483 -0.1821  0.0682
   25MOL    H25 7753   6.652   4.496   1.778  1.9425  0.8387  0.0742
   25MOL    H26 7754   6.722   4.465   1.620  0.8157  0.1859  1.2647
   25MOL    H27 7755   6.574   4.721   1.681 -0.4210 -0.1207 -0.0265
   25MOL    H28 7756   6.509   4.925   1.397 -0.8023 -2.9226 -0.9776
   25MOL    H29 7757   6.472   4.792   1.507  1.6727 -1.5335  1.2144
   25MOL    H30 7758   6.557   4.942   1.561 -0.2935 -0.4941  1.2287
   25MOL    H31 7759   6.784   4.965   1.361  0.7351 -0.0796 -1.4186
   25MOL    H32 7760   6.679   4.871   1.250  0.9856  0.0675 -0.7439
   25MOL    H33 7761   6.829   4.806   1.297 -0.0228  1.1399 -1.9776
   25MOL    C34 7762   6.770   4.712   1.773  0.3175  0.0641  0.4310
   25MOL    C35 7763   6.709   4.741   1.919 -0.5626  0.2663  0.0130
   25MOL    C36 7764   6.602   4.854   1.925  0.5378  0.1262  0.1287
   25MOL    O37 7765   6.596   4.939   1.838 -0.6898  0.0394  0.1520
   25MOL    N38 7766   6.500   4.858   2.017  0.2761  0.2792 -0.5656
   25MOL    C39 7767   6.480   4.775   2.130  0.5940 -0.5479 -0.1338
   25MOL    C40 7768   6.409   4.974   2.020  0.2884  0.1637 -0.3509
   25MOL    H41 7769   6.841   4.630   1.786  0.3026  0.0608  0.4925
   25MOL    H42 7770   6.834   4.792   1.736 -0.6969 -0.7546 -3.2928
   25MOL    H43 7771   6.672   4.648   1.962 -3.1871  0.9759 -0.6220
   25MOL    H44 7772   6.544   4.810   2.211  0.8703  1.1544 -1.0694
   25MOL    H45 7773   6.383   4.764   2.179  0.4029 -0.6448 -0.5299
   25MOL    H46 7774   6.502   4.673   2.096 -0.0099 -0.2358 -1.5116
   25MOL    H47 7775   6.470   5.064   2.015  1.8879 -0.7718  1.6357
   25MOL    H48 7776   6.359   4.979   2.116 -0.8112 -0.4245 -0.8796
   25MOL    H49 7777   6.346   4.966   1.931 -1.5906  1.0429  0.8782
   25MOL    C50 7778   6.824   4.798   2.008  0.6598 -0.1712  0.1665
   25MOL    C51 7779   6.930   4.686   2.055 -0.8259 -0.6055  0.2278
   25MOL    C52 7780   6.865   4.583   2.153  0.0400 -0.0308 -0.1724
   25MOL    O53 7781   6.785   4.618   2.236 -0.1251  0.1672 -0.1343
   25MOL    N54 7782   6.891   4.450   2.130 -0.3475 -0.4640 -0.1778
   25MOL    C55 7783   7.003   4.405   2.052  0.0953 -1.1374 -0.1359
   25MOL    C56 7784   6.814   4.348   2.206 -0.2931 -0.5859 -0.0762
   25MOL    H57 7785   6.865   4.880   1.948 -1.4140  0.2293 -0.7295
   25MOL    H58 7786   6.788   4.849   2.097 -0.2315  0.0464 -0.3192
   25MOL    H59 7787   6.955   4.634   1.962 -1.9050 -0.4403 -0.1609
   25MOL    H60 7788   6.974   4.399   1.947 -0.8467 -0.4685  0.0796
   25MOL    H61 7789   7.082   4.480   2.049  0.3327 -1.4533 -2.5732
   25MOL    H62 7790   7.035   4.305   2.083  0.7587 -1.9351 -3.2260
   25MOL    H63 7791   6.721   4.387   2.247 -0.8114 -0.8226 -1.0047
   25MOL    H64 7792   6.882   4.304   2.279 -0.8832 -0.4604  0.5555
   25MOL    H65 7793   6.785   4.264   2.142 -0.4507  0.2363 -1.0975
   25MOL    C66 7794   7.051   4.756   2.129 -0.2496 -0.7037 -0.0081
   25MOL    C67 7795   7.142   4.848   2.047 -0.1416  0.3119 -0.1394
   25MOL    C68 7796   7.194   4.774   1.926  0.4942 -0.2350 -0.3690
   25MOL    O69 7797   7.217   4.652   1.935  0.0760 -0.3063 -0.9735
   25MOL    N70 7798   7.220   4.841   1.812 -0.0130  0.3245 -0.5067
   25MOL    C71 7799   7.174   4.975   1.783 -0.1065 -0.2153  1.0071
   25MOL    C72 7800   7.291   4.771   1.710  0.9224 -0.3205  0.1144
   25MOL    H73 7801   6.994   4.806   2.208 -0.3940 -1.2047  0.2092
   25MOL    H74 7802   7.114   4.680   2.176  3.4429  1.5544 -1.1553
   25MOL    H75 7803   7.074   4.926   2.013 -1.3618  0.0470  1.6036
   25MOL    H76 7804   7.218   5.018   1.692 -1.3619 -0.6325  0.1918
   25MOL    H77 7805   7.066   4.963   1.778 -0.0439 -0.6932  0.7364
   25MOL    H78 7806   7.188   5.046   1.864  1.2940 -0.1491  0.7256
   25MOL    H79 7807   7.240   4.685   1.669  1.9148 -0.8064 -0.1041
   25MOL    H80 7808   7.389   4.744   1.750  0.6515 -1.9940 -0.3473
   25MOL    H81 7809   7.317   4.838   1.628 -1.6313 -0.9475 -1.2333
   25MOL    C82 7810   7.262   4.894   2.124 -0.2257 -0.0263  0.0424
   25MOL    C83 7811   7.228   4.989   2.237  0.5743 -0.5230 -0.0239
   25MOL    C84 7812   7.306   5.124   2.211  0.2237 -0.6463  0.0406
   25MOL    O85 7813   7.417   5.134   2.263 -0.0639  0.1072  0.4375
   25MOL    N86 7814   7.248   5.235   2.146  0.0075 -0.7585 -0.3281
   25MOL    C87 7815   7.104   5.234   2.106 -0.0103  0.1501 -0.7870
   25MOL    C88 7816   7.313   5.365   2.145 -0.2287 -0.6229  0.6513
   25MOL    H89 7817   7.319   4.807   2.156 -2.2210 -0.5163  2.4375
   25MOL    H90 7818   7.326   4.950   2.056 -0.2897 -1.3931 -1.1647
   25MOL    H91 7819   7.122   5.011   2.254  0.2732  0.3525 -2.8138
   25MOL    H92 7820   7.058   5.319   2.056 -2.2230 -0.7835 -0.3626
   25MOL    H93 7821   7.089   5.141   2.051  2.0604 -1.3151  1.0335
   25MOL    H94 7822   7.045   5.232   2.197  0.1889 -0.9898 -0.6721
   25MOL    H95 7823   7.352   5.376   2.246 -2.2672 -1.6952  1.5956
   25MOL    H96 7824   7.250   5.453   2.130  0.5869  0.0130  0.8867
   25MOL    H97 7825   7.398   5.361   2.077 -2.0470  0.7023 -1.7800
   25MOL    C98 7826   7.273   4.938   2.374 -0.2127  0.2741  0.0891
   25MOL    C99 7827   7.262   5.030   2.500  0.1219  0.0239 -0.4665
   25MOL   C100 7828   7.350   4.968   2.612  0.1854  0.2269  0.0720
   25MOL   O101 7829   7.317   4.858   2.659  0.5643  0.0102  0.1003
   25MOL   N102 7830   7.457   5.037   2.660  0.2721 -0.1434  0.0798
   25MOL   C103 7831   7.533   4.996   2.779  0.5239 -0.3835  0.1442
   25MOL   C104 7832   7.501   5.160   2.596  0.4542  0.2247  0.1162
   25MOL   H105 7833   7.222   4.844   2.394 -0.5470  0.1312 -1.4387
   25MOL   H106 7834   7.376   4.904   2.372  0.1348  1.2400  0.9778
   25MOL   H107 7835   7.296   5.131   2.476 -1.8591  0.9624  0.5918
   25MOL   H108 7836   7.640   5.018   2.780  0.2079  1.2244 -0.5392
   25MOL   H109 7837   7.478   5.028   2.867 -0.2429 -1.3634  0.0310
   25MOL   H110 7838   7.540   4.887   2.791 -0.4883 -0.4359  0.2642
   25MOL   H111 7839   7.593   5.204   2.633  0.9957 -0.3294 -0.5385
   25MOL   H112 7840   7.432   5.243   2.599  0.4355  0.2276 -0.3789
   25MOL   H113 7841   7.535   5.139   2.494 -0.3978  0.2521 -0.1781
   25MOL   C114 7842   7.110   5.044   2.546  0.4497  0.1221 -0.1057
   25MOL   C115 7843   7.065   5.164   2.638 -0.1442 -0.2083 -0.6578
   25MOL   C116 7844   7.068   5.284   2.549  0.4095 -0.3235  0.0932
   25MOL   O117 7845   7.176   5.333   2.526 -0.6400  0.4918 -0.2218
   25MOL   N118 7846   6.960   5.344   2.487  0.0375  0.9544 -0.4364
   25MOL   C119 7847   6.823   5.297   2.514  0.2139  0.7173 -0.0363
   25MOL   C120 7848   6.971   5.437   2.378  0.1706 -0.1791  0.4582
   25MOL   H121 7849   7.043   5.039   2.461 -0.7308 -1.8295  0.8995
   25MOL   H122 7850   7.084   4.955   2.602  3.2101 -0.0039  1.0588
   25MOL   H123 7851   6.962   5.137   2.663 -0.4364  0.5361 -1.0410
   25MOL   H124 7852   6.744   5.370   2.494  1.2286  2.1521  1.0791
   25MOL   H125 7853   6.812   5.202   2.462  1.0489 -0.2456  1.5093
   25MOL   H126 7854   6.806   5.286   2.621 -0.9792 -2.0960 -0.4753
   25MOL   H127 7855   6.886   5.436   2.310 -0.2590 -1.1254  0.9984
   25MOL   H128 7856   7.062   5.418   2.322 -1.0489 -0.7217 -1.3689
   25MOL   H129 7857   6.987   5.530   2.432 -0.8616 -0.2467  0.8992
   25MOL   C130 7858   7.145   5.172   2.776  0.2222 -0.0057  0.0975
   25MOL   C131 7859   7.076   5.261   2.878 -0.2446 -0.2644  0.3539
   25MOL   C132 7860   7.181   5.316   2.979 -0.9070 -0.5475  0.1406
   25MOL   O133 7861   7.208   5.254   3.081 -0.4016  0.3545 -0.0864
   25MOL   N134 7862   7.244   5.434   2.961 -0.3154  0.3634  0.2690
   25MOL   C135 7863   7.215   5.524   2.851  0.0506  0.1643  0.4268
   25MOL   C136 7864   7.344   5.482   3.061 -0.1673 -0.2750 -0.4233
   25MOL   H137 7865   7.149   5.076   2.826  1.3583  0.0968  0.2262
   25MOL   H138 7866   7.247   5.201   2.750  0.7456 -1.9893 -0.1447
   25MOL   H139 7867   7.043   5.345   2.816  1.5584  0.2464  0.0439
   25MOL   H140 7868   7.243   5.489   2.752  0.6211  0.8633  0.3328
   25MOL   H141 7869   7.109   5.546   2.844  0.2351  1.2310  0.8405
   25MOL   H142 7870   7.266   5.620   2.866  1.3753 -0.6957  1.5829
   25MOL   H143 7871   7.329   5.448   3.163 -1.0271 -0.2486 -0.5447
   25MOL   H144 7872   7.333   5.590   3.073  1.3058 -0.3195  1.6179
   25MOL   H145 7873   7.445   5.463   3.023 -0.2802 -0.6499 -0.5368
   25MOL   C146 7874   6.965   5.184   2.947  0.3852  0.3165  0.5723
   25MOL   C147 7875   6.867   5.276   3.026 -0.0191  0.4300 -0.0398
   25MOL   C148 7876   6.773   5.193   3.118  0.7572 -0.3705 -0.0226
   25MOL   O149 7877   6.711   5.112   3.057  0.0965  0.4447  0.0738
   25MOL   N150 7878   6.773   5.205   3.252  0.7877 -0.0434  0.1391
   25MOL   C151 7879   6.870   5.287   3.326  0.1405  0.4716  0.6484
   25MOL   C152 7880   6.676   5.128   3.331  0.5002 -0.1533 -0.4074
   25MOL   H153 7881   6.914   5.110   2.886  0.6008 -0.4086  1.2580
   25MOL   H154 7882   7.011   5.119   3.021  1.2606  0.1896 -0.0754
   25MOL   H155 7883   6.932   5.346   3.078 -0.5210  0.6453  0.3029
   25MOL   H156 7884   6.841   5.391   3.311 -1.0423  0.0193 -0.2895
   25MOL   H157 7885   6.855   5.257   3.430 -1.5637  0.3249  0.3819
   25MOL   H158 7886   6.974   5.281   3.296  0.1009  1.6954  0.2721
   25MOL   H159 7887   6.663   5.146   3.438  0.1927  2.5925 -0.8634
   25MOL   H160 7888   6.697   5.022   3.318 -1.2560 -0.5515 -0.1490
   25MOL   H161 7889   6.573   5.139   3.298  0.9489 -0.4654 -1.9620
   25MOL   C162 7890   6.789   5.360   2.918  0.6244 -0.3207 -0.5723
   25MOL   C163 7891   6.738   5.502   2.949  0.6319  0.8535  0.3606
   25MOL   C164 7892   6.854   5.591   2.999 -0.5457  0.5527 -0.3890
   25MOL   O165 7893   6.889   5.575   3.112 -0.2871  0.1271  0.3085
   25MOL   N166 7894   6.907   5.683   2.920 -0.0784  0.2422 -0.3674
   25MOL   C167 7895   6.985   5.795   2.973 -0.4737 -0.1261 -0.7873
   25MOL   C168 7896   6.888   5.686   2.776 -0.2765 -0.1691 -0.0388
   25MOL   H169 7897   6.839   5.369   2.822  1.4610 -0.8050 -0.1855
   25MOL   H170 7898   6.698   5.312   2.882 -0.3592  0.9387  0.1815
   25MOL   H171 7899   6.702   5.540   2.853  0.5912  1.5479  0.6469
   25MOL   H172 7900   7.011   5.867   2.896 -0.1323  1.6072  0.9225
   25MOL   H173 7901   6.918   5.846   3.042  1.5170  1.6669 -0.1392
   25MOL   H174 7902   7.080   5.769   3.018  0.1503  2.2531 -0.6732
   25MOL   H175 7903   6.890   5.583   2.741 -0.9743 -0.9459  2.1438
   25MOL   H176 7904   6.972   5.731   2.723  0.2044  0.1446  0.9895
   25MOL   H177 7905   6.794   5.731   2.745  1.4163  3.4133 -0.2637
   25MOL   C178 7906   6.611   5.501   3.034 -0.1830  0.0944 -0.2679
   25MOL   C179 7907   6.509   5.619   3.008  0.1295  0.0647 -0.1155
   25MOL   C180 7908   6.434   5.602   2.881 -0.5251  0.3758  0.1438
   25MOL   O181 7909   6.491   5.612   2.772  0.0892  0.2281 -0.2107
   25MOL   N182 7910   6.301   5.580   2.883  0.0780 -0.5458  0.5984
   25MOL   C183 7911   6.233   5.507   2.995 -0.0918 -0.1875  0.4443
   25MOL   C184 7912   6.212   5.614   2.774  0.1178  0.2933 -0.3005
   25MOL   H185 7913   6.555   5.407   3.030 -0.3653  0.2071 -0.3738
   25MOL   H186 7914   6.636   5.517   3.138  1.7123  0.2088 -0.7234
   25MOL   H187 7915   6.432   5.609   3.085 -0.2327 -1.9153 -0.6993
   25MOL   H188 7916   6.155   5.432   2.979  0.6234 -0.9346  0.4386
   25MOL   H189 7917   6.303   5.456   3.061 -0.6557  0.1182  1.2990
   25MOL   H190 7918   6.182   5.579   3.060 -0.2653  0.1208 -0.0334
   25MOL   H191 7919   6.132   5.543   2.751  1.5730 -1.3338 -0.4336
   25MOL   H192 7920   6.269   5.636   2.684  1.5353 -1.7071  0.0789
   25MOL   H193 7921   6.164   5.711   2.787  1.0993  1.0731 -2.1859
   25MOL   C194 7922   6.573   5.768   3.017  0.0993  0.7536 -0.0446
   25MOL   C195 7923   6.469   5.879   3.016  0.6024  0.6075 -0.7622
   25MOL   C196 7924   6.538   6.019   3.002  0.5040 -0.4986 -0.1295
   25MOL   O197 7925   6.631   6.050   3.079  0.6238  0.1111 -0.7461
   25MOL   N198 7926   6.497   6.109   2.904  0.1991 -0.1353  0.0374
   25MOL   C199 7927   6.372   6.083   2.835 -0.3541 -0.1180  0.2666
   25MOL   C200 7928   6.567   6.227   2.855 -0.3840 -0.0641 -0.2360
   25MOL   H201 7929   6.637   5.786   3.103  1.4294 -1.1155 -0.5895
   25MOL   H202 7930   6.640   5.781   2.931 -0.9006  2.4035 -0.5883
   25MOL   H203 7931   6.414   5.864   2.923  1.7727 -0.3851 -1.3050
   25MOL   H204 7932   6.404   6.027   2.747 -0.8622 -0.2344  0.1529
   25MOL   H205 7933   6.296   6.025   2.886 -1.8917 -0.5595 -2.4328
   25MOL   H206 7934   6.328   6.177   2.801 -0.2354 -0.7403 -1.7000
   25MOL   H207 7935   6.529   6.317   2.901  1.0412  0.8631 -0.8376
   25MOL   H208 7936   6.540   6.234   2.750 -1.8506 -1.5228  0.0147
   25MOL   H209 7937   6.676   6.217   2.859 -0.5698 -2.5142 -0.2521
   25MOL   C210 7938   6.374   5.871   3.143 -0.0077 -0.1419  0.0784
   25MOL   C211 7939   6.422   5.884   3.290 -0.1757 -0.0416  0.5803
   25MOL   C212 7940   6.501   5.760   3.342 -0.1987  0.6810  0.7041
   25MOL   O213 7941   6.444   5.656   3.336  0.4467 -0.0385  0.6457
   25MOL   N214 7942   6.626   5.770   3.390  0.5321 -1.3010  0.0127
   25MOL   C215 7943   6.699   5.896   3.420  0.6051 -0.1440  0.7234
   25MOL   C216 7944   6.700   5.645   3.424  0.2112 -0.4712  0.3045
   25MOL   H217 7945   6.297   5.948   3.140  2.2904  2.2359  0.1349
   25MOL   H218 7946   6.317   5.779   3.129 -1.1621  0.5589  0.1028
   25MOL   H219 7947   6.485   5.972   3.300 -1.4706  0.7569  2.0500
   25MOL   H220 7948   6.752   5.928   3.330 -0.5022 -1.8166 -0.5536
   25MOL   H221 7949   6.638   5.979   3.458  0.4572 -0.6551  1.6196
   25MOL   H222 7950   6.771   5.874   3.499  2.4086  2.2610 -0.1886
   25MOL   H223 7951   6.679   5.557   3.364 -0.3079 -0.5103  0.5437
   25MOL   H224 7952   6.709   5.621   3.530  0.3113  1.5952  0.7853
   25MOL   H225 7953   6.803   5.664   3.394 -0.5826  1.5918 -1.2666
   25MOL   C226 7954   6.310   5.902   3.393 -0.0810  0.1831 -0.5323
   25MOL   C227 7955   6.238   6.039   3.407  0.1764 -0.0696 -0.1000
   25MOL   C228 7956   6.327   6.148   3.465 -0.0301 -0.6074 -0.2053
   25MOL   O229 7957   6.358   6.134   3.583  0.4088  0.4863 -0.8224
   25MOL   N230 7958   6.368   6.249   3.386  0.3406 -0.4610 -0.1105
   25MOL   C231 7959   6.352   6.265   3.244 -0.9077 -0.0257 -0.1266
   25MOL   C232 7960   6.423   6.369   3.448 -0.2559 -0.8849 -1.0876
   25MOL   H233 7961   6.233   5.825   3.383 -1.2120  1.3009 -0.6025
   25MOL   H234 7962   6.351   5.890   3.493 -1.0926 -1.5635 -0.3050
   25MOL   H235 7963   6.210   6.058   3.303 -1.4215  0.4066  0.4162
   25MOL   H236 7964   6.375   6.169   3.197  0.6665 -0.3229  1.1873
   25MOL   H237 7965   6.256   6.297   3.203 -1.5420 -1.9867 -0.2092
   25MOL   H238 7966   6.433   6.331   3.213  1.0305 -0.9833  2.7272
   25MOL   H239 7967   6.362   6.390   3.535 -0.7195  1.2803 -1.9098
   25MOL   H240 7968   6.405   6.464   3.397  1.6344 -0.1991 -0.5238
   25MOL   H241 7969   6.528   6.359   3.478 -0.8251 -1.0354  0.8917
   25MOL   C242 7970   6.109   6.023   3.491 -0.2548  0.2440  0.1876
   25MOL   C243 7971   6.008   6.134   3.453 -0.2801  0.1435  0.0776
   25MOL   C244 7972   5.922   6.166   3.573  0.7639  0.0711 -0.7373
   25MOL   O245 7973   5.839   6.086   3.593 -0.6616  0.1584 -0.3550
   25MOL   N246 7974   5.927   6.285   3.636 -0.5038  0.2465 -0.1129
   25MOL   C247 7975   5.842   6.325   3.748  0.1498 -0.1470  0.2859
   25MOL   C248 7976   6.041   6.377   3.620 -0.4070 -0.1928 -0.7359
   25MOL   H249 7977   6.058   5.927   3.475  1.3362 -0.8331  1.4506
   25MOL   H250 7978   6.131   6.028   3.597  0.1792  0.4635  0.0896
   25MOL   H251 7979   6.071   6.221   3.435 -0.3735  0.4158  1.0417
   25MOL   H252 7980   5.760   6.253   3.752 -1.7818  2.0165  0.7994
   25MOL   H253 7981   5.884   6.327   3.848  2.4346 -1.2325 -0.6083
   25MOL   H254 7982   5.799   6.422   3.724 -0.8746 -0.7569 -0.3907
   25MOL   H255 7983   6.023   6.463   3.685 -1.9458 -1.2149  0.2234
   25MOL   H256 7984   6.050   6.424   3.522 -1.3931  0.0328 -0.7315
   25MOL   H257 7985   6.132   6.331   3.659 -1.9481 -1.6678  1.2516
   25MOL   C258 7986   5.934   6.093   3.328  1.2250 -0.3142  0.2145
   25MOL   C259 7987   5.821   6.195   3.287  0.7854  0.1740 -0.2931
   25MOL   C260 7988   5.725   6.117   3.186 -0.1655 -0.1833  0.3384
   25MOL   O261 7989   5.766   6.094   3.067  0.5173 -0.3750 -0.3718
   25MOL   N262 7990   5.602   6.080   3.221 -0.6324  0.2392  0.1626
   25MOL   C263 7991   5.553   6.102   3.361  0.1912 -0.2449  0.7738
   25MOL   C264 7992   5.511   6.024   3.124 -0.1710  0.5896  0.7751
   25MOL   H265 7993   6.008   6.082   3.249  1.4617 -0.3451  0.4397
   25MOL   H266 7994   5.889   5.994   3.341 -2.8847  1.6546  1.8828
   25MOL   H267 7995   5.763   6.215   3.377 -1.0162  0.0216 -1.3890
   25MOL   H268 7996   5.463   6.044   3.382  0.3313 -0.5094  0.6364
   25MOL   H269 7997   5.622   6.049   3.426  0.8216 -1.1908 -0.6448
   25MOL   H270 7998   5.545   6.205   3.397 -0.9679  0.5347 -1.5799
   25MOL   H271 7999   5.516   6.061   3.022 -0.9071  0.1242  0.5646
   25MOL   H272 8000   5.407   6.031   3.155 -0.0269 -2.0268  2.0219
   25MOL   H273 8001   5.534   5.918   3.137  4.0467  1.2667 -0.4422
   25MOL   C274 8002   5.869   6.329   3.230 -0.1551  0.6257  0.9869
   25MOL   C275 8003   5.778   6.450   3.237  0.2329  0.0946 -0.2794
   25MOL   C276 8004   5.819   6.539   3.115 -0.0180 -0.1938  0.0862
   25MOL   O277 8005   5.923   6.608   3.123  0.2368  0.1050  0.2796
   25MOL   N278 8006   5.741   6.539   3.009 -0.4872  0.4791 -0.1116
   25MOL   C279 8007   5.768   6.639   2.908 -0.3580 -0.7033 -0.2028
   25MOL   C280 8008   5.623   6.459   2.979  0.0982 -0.4752 -0.0913
   25MOL   H281 8009   5.960   6.357   3.284  0.9618  0.8753 -0.9861
   25MOL   H282 8010   5.897   6.302   3.129 -3.0284 -0.6935  0.4859
   25MOL   H283 8011   5.673   6.423   3.229  0.8315 -1.5901 -2.9737
   25MOL   H284 8012   5.689   6.713   2.914 -0.0627 -0.1945 -2.3222
   25MOL   H285 8013   5.865   6.688   2.901 -0.7934  0.2216  0.3011
   25MOL   H286 8014   5.764   6.591   2.810 -0.3351  1.9176 -1.5306
   25MOL   H287 8015   5.607   6.450   2.871  0.5519  2.5851 -0.4649
   25MOL   H288 8016   5.543   6.518   3.026  1.2873 -0.6221  2.1893
   25MOL   H289 8017   5.623   6.364   3.031  1.3384 -1.2350 -1.4532
   25MOL   C290 8018   5.801   6.521   3.371 -0.4409  0.2136  0.2000
   25MOL   C291 8019   5.700   6.634   3.415 -0.1985 -0.2455 -1.0954
   25MOL   C292 8020   5.773   6.715   3.525  0.1740 -0.2523 -0.2864
   25MOL   O293 8021   5.793   6.667   3.633 -0.3653  0.0819  0.0260
   25MOL   N294 8022   5.819   6.838   3.489 -0.1035  0.1557  0.3821
   25MOL   C295 8023   5.824   6.891   3.354 -0.3644  0.1430  0.0906
   25MOL   C296 8024   5.892   6.924   3.582 -0.6651  0.3532  0.2937
   25MOL   H297 8025   5.797   6.450   3.454  1.0302 -0.8300 -0.5930
   25MOL   H298 8026   5.899   6.567   3.367 -1.0862  1.5719 -0.1221
   25MOL   H299 8027   5.672   6.701   3.334  1.1676  0.1940 -1.2105
   25MOL   H300 8028   5.745   6.961   3.326  1.1531  3.0567  2.7560
   25MOL   H301 8029   5.902   6.966   3.345 -0.1024  0.0111  1.1500
   25MOL   H302 8030   5.848   6.818   3.278  0.2950 -1.1309  1.4929
   25MOL   H303 8031   5.837   7.018   3.582 -0.6342  0.4605  4.3826
   25MOL   H304 8032   5.992   6.951   3.547  0.3149 -2.0164  1.1235
   25MOL   H305 8033   5.917   6.874   3.675  3.3079 -0.1738 -0.9522
   25MOL   C306 8034   5.565   6.569   3.455 -0.4639 -0.8544  0.1105
   25MOL   C307 8035   5.463   6.666   3.515 -0.4275  0.1923  0.2914
   25MOL   C308 8036   5.323   6.603   3.531  0.1537  0.7102  0.0897
   25MOL   O309 8037   5.288   6.516   3.445  0.1463  0.5800 -0.7141
   25MOL   N310 8038   5.230   6.654   3.613  0.1382  0.0299 -0.3267
   25MOL   C311 8039   5.095   6.578   3.623  0.2017 -0.4455 -0.3354
   25MOL   C312 8040   5.245   6.776   3.692  0.5535  0.2102  0.4678
   25MOL   H313 8041   5.525   6.523   3.364  1.9435  2.4918 -2.8110
   25MOL   H314 8042   5.576   6.498   3.537  1.0322 -1.2976 -0.4466
   25MOL   H315 8043   5.494   6.691   3.617 -1.6504  1.1575  0.4488
   25MOL   H316 8044   5.106   6.471   3.638 -2.5793 -0.8901 -1.1428
   25MOL   H317 8045   5.037   6.617   3.708  1.2098  1.8619 -0.6581
   25MOL   H318 8046   5.041   6.596   3.530  0.0744  0.4818 -0.0954
   25MOL   H319 8047   5.294   6.857   3.638 -1.7481  0.1646 -1.7571
   25MOL   H320 8048   5.286   6.751   3.790 -3.9451  1.7688  2.8728
   25MOL   H321 8049   5.147   6.817   3.714 -0.8799 -2.4444 -0.8298
   25MOL   H322 8050   5.449   6.751   3.448 -1.0352  0.1357  0.3415
   26MOL     C1 8051   0.910   2.836   6.743 -0.5802 -0.1776  0.0068
   26MOL     C2 8052   0.839   2.887   6.616  0.4654 -0.4050  0.0932
   26MOL     C3 8053   0.901   3.022   6.571  0.7597 -0.3824 -0.4698
   26MOL     O4 8054   0.846   3.120   6.613  0.4470 -0.2328 -0.4596
   26MOL     N5 8055   1.005   3.033   6.486 -0.5082 -0.3892  0.1686
   26MOL     C6 8056   1.070   2.928   6.413  0.2000  0.6235 -0.0227
   26MOL     C7 8057   1.055   3.165   6.459 -0.0206 -0.3140  0.6175
   26MOL     H8 8058   0.861   2.749   6.786 -0.5437  0.2276  0.8786
   26MOL     H9 8059   0.927   2.912   6.819  0.7403  1.5632 -1.9743
   26MOL    H10 8060   0.865   2.825   6.531 -1.1741  0.1992 -0.8761
   26MOL    H11 8061   0.992   2.868   6.366  1.2483 -1.3129  0.6244
   26MOL    H12 8062   1.134   2.957   6.329 -2.3896 -1.5492 -2.8427
   26MOL    H13 8063   1.125   2.859   6.477 -1.7830  1.4194  2.6056
   26MOL    H14 8064   0.983   3.221   6.400  2.6822  0.1272 -2.4314
   26MOL    H15 8065   1.159   3.169   6.425 -0.4135 -1.1829 -0.7317
   26MOL    H16 8066   1.062   3.228   6.548 -0.3717  0.1611  0.3118
   26MOL    H17 8067   1.016   2.812   6.732 -0.5218 -0.3390  0.8672
   26MOL    C18 8068   0.685   2.862   6.625  0.3454 -0.0609  0.0573
   26MOL    C19 8069   0.588   2.961   6.700 -0.0640 -0.4795  0.2769
   26MOL    C20 8070   0.615   2.953   6.857  0.4597 -0.3579  0.2562
   26MOL    O21 8071   0.627   2.839   6.905 -0.4224  0.4289 -0.5199
   26MOL    N22 8072   0.624   3.065   6.935  0.0009 -0.1114  0.8850
   26MOL    C23 8073   0.596   3.200   6.890 -0.2310 -0.0488  0.4817
   26MOL    C24 8074   0.679   3.049   7.066 -0.3091 -0.6245 -0.2640
   26MOL    H25 8075   0.648   2.854   6.522  1.8708 -1.4094 -0.4016
   26MOL    H26 8076   0.675   2.762   6.666 -0.7516  0.4858  1.1331
   26MOL    H27 8077   0.618   3.064   6.683 -0.3976 -0.5297 -0.6648
   26MOL    H28 8078   0.603   3.270   6.973  1.3383  1.2812 -0.7481
   26MOL    H29 8079   0.670   3.237   6.819  0.9621  0.8968  2.1801
   26MOL    H30 8080   0.493   3.215   6.857 -0.0999 -0.2642 -0.0313
   26MOL    H31 8081   0.600   3.012   7.132 -0.0543 -2.7707 -1.1083
   26MOL    H32 8082   0.722   3.143   7.101 -1.0850 -0.4304  0.1788
   26MOL    H33 8083   0.746   2.964   7.079 -2.0568 -1.9279  0.3977
   26MOL    C34 8084   0.441   2.938   6.677 -0.5128 -0.3614  0.3712
   26MOL    C35 8085   0.397   2.985   6.534 -0.0295  0.3678  0.2507
   26MOL    C36 8086   0.473   3.113   6.492 -0.4188 -0.2414  0.7522
   26MOL    O37 8087   0.429   3.215   6.543  0.1890  0.2592  0.0862
   26MOL    N38 8088   0.567   3.111   6.401 -0.1638  0.0201  0.1717
   26MOL    C39 8089   0.597   2.999   6.302  0.3145  0.5162  0.1149
   26MOL    C40 8090   0.642   3.232   6.376  0.3345 -0.7733 -0.0839
   26MOL    H41 8091   0.427   2.830   6.681  0.7142 -0.4524  2.8663
   26MOL    H42 8092   0.386   2.994   6.752  1.0297 -1.9187  2.7085
   26MOL    H43 8093   0.434   2.912   6.462  0.7435  2.9842 -2.1369
   26MOL    H44 8094   0.643   3.046   6.216 -1.1488  1.1182 -0.3620
   26MOL    H45 8095   0.677   2.946   6.353  0.0837  2.0046  2.1137
   26MOL    H46 8096   0.516   2.930   6.279 -0.4073  1.1818  0.5990
   26MOL    H47 8097   0.738   3.224   6.429 -0.3625  1.9696  1.6714
   26MOL    H48 8098   0.600   3.331   6.394  1.2604 -0.1292 -1.3500
   26MOL    H49 8099   0.672   3.252   6.273  2.8673 -1.8715  0.3834
   26MOL    C50 8100   0.242   2.998   6.505  0.9814  0.5256  0.0308
   26MOL    C51 8101   0.164   2.878   6.458 -0.4437  0.3612 -0.7258
   26MOL    C52 8102   0.211   2.827   6.323  0.0521  0.0562 -0.6672
   26MOL    O53 8103   0.212   2.904   6.237  0.6248  0.0487  0.1964
   26MOL    N54 8104   0.259   2.701   6.301 -0.3978  0.2048  0.0953
   26MOL    C55 8105   0.326   2.663   6.174 -0.1928  0.0300  0.3158
   26MOL    C56 8106   0.311   2.615   6.405 -0.1483  0.2255  0.4108
   26MOL    H57 8107   0.204   3.051   6.592 -0.5785 -0.2582 -0.1675
   26MOL    H58 8108   0.235   3.081   6.435  0.7296  0.4770 -0.0025
   26MOL    H59 8109   0.179   2.806   6.538 -1.6569 -0.3257 -1.1084
   26MOL    H60 8110   0.302   2.563   6.137  2.1506 -1.0405  1.5659
   26MOL    H61 8111   0.299   2.716   6.083  1.3636  0.8701  0.3320
   26MOL    H62 8112   0.434   2.675   6.182 -0.0193 -1.0078 -0.3704
   26MOL    H63 8113   0.391   2.553   6.365 -0.1884  1.5966 -1.8984
   26MOL    H64 8114   0.236   2.548   6.446 -0.6106 -1.0205 -2.3523
   26MOL    H65 8115   0.355   2.673   6.487  0.4747  1.1898 -0.5880
   26MOL    C66 8116   0.012   2.916   6.459 -0.8822 -0.0469  0.5334
   26MOL    C67 8117   7.753   2.810   6.496 -1.0267 -0.6849  0.2693
   26MOL    C68 8118   7.743   2.784   6.645 -0.0249  0.4605  0.1714
   26MOL    O69 8119   7.843   2.794   6.715  0.3387 -0.2461  0.3040
   26MOL    N70 8120   7.623   2.751   6.700  1.0196  0.1622  0.3828
   26MOL    C71 8121   7.601   2.712   6.838  0.0778 -0.1017  0.7210
   26MOL    C72 8122   7.500   2.781   6.626 -0.2474  0.4262 -0.5673
   26MOL    H73 8123   7.850   2.994   6.534 -0.5769  0.4598  0.0740
   26MOL    H74 8124   7.833   2.962   6.366  2.4792  0.0908 -0.6192
   26MOL    H75 8125   7.656   2.850   6.466 -0.8662  1.0750  1.9850
   26MOL    H76 8126   7.572   2.800   6.895  0.4709  0.4531  0.0715
   26MOL    H77 8127   7.526   2.634   6.852 -0.8339  0.2826 -1.7071
   26MOL    H78 8128   7.694   2.677   6.883  0.3747  1.5085  1.4151
   26MOL    H79 8129   7.413   2.767   6.691  0.6962 -0.4623  0.5245
   26MOL    H80 8130   7.500   2.719   6.537  1.5237 -0.9985  0.3990
   26MOL    H81 8131   7.511   2.882   6.588 -0.4078  0.5171 -0.3733
   26MOL    C82 8132   7.771   2.677   6.412  0.4712 -0.2978  1.2105
   26MOL    C83 8133   7.735   2.693   6.256  0.1683  0.7882 -0.5798
   26MOL    C84 8134   7.607   2.778   6.231 -1.1194  0.2043  0.6500
   26MOL    O85 8135   7.501   2.727   6.264  0.0468  0.3426  0.4155
   26MOL    N86 8136   7.614   2.895   6.161  0.1498  0.2912  0.1002
   26MOL    C87 8137   7.721   2.923   6.066 -0.2353  0.4353  0.0282
   26MOL    C88 8138   7.485   2.962   6.135 -0.4278  0.3766 -0.5642
   26MOL    H89 8139   0.019   2.636   6.419  0.5299 -0.1635  1.1565
   26MOL    H90 8140   7.708   2.597   6.449 -2.3019  1.6804  0.9753
   26MOL    H91 8141   7.823   2.739   6.212 -0.7109  1.7227 -1.3959
   26MOL    H92 8142   7.701   3.007   5.999  1.0306 -0.0422 -0.9558
   26MOL    H93 8143   7.819   2.944   6.108 -0.6194  0.9774  0.6751
   26MOL    H94 8144   7.730   2.839   5.998  1.1860  0.8892 -0.3638
   26MOL    H95 8145   7.429   2.903   6.063 -1.2475  1.7550 -1.0854
   26MOL    H96 8146   7.489   3.048   6.067 -1.6748  0.4123 -0.6068
   26MOL    H97 8147   7.429   2.992   6.223 -0.8367  0.4329 -0.8433
   26MOL    C98 8148   7.721   2.552   6.197  0.2792 -0.9890  0.1240
   26MOL    C99 8149   7.713   2.549   6.040 -0.8768 -0.5698 -0.5097
   26MOL   C100 8150   7.642   2.424   5.987  0.9322  0.3191  0.0143
   26MOL   O101 8151   7.704   2.316   6.000 -0.0633 -0.3093 -0.1614
   26MOL   N102 8152   7.518   2.428   5.929  0.3279  0.0096  0.4081
   26MOL   C103 8153   7.427   2.537   5.909  0.3967 -0.2075 -0.0709
   26MOL   C104 8154   7.450   2.305   5.879  0.0170  0.2094 -0.2554
   26MOL   H105 8155   7.803   2.489   6.231  1.0655 -0.3468 -0.5726
   26MOL   H106 8156   7.632   2.503   6.239 -0.6073  0.9983  0.6412
   26MOL   H107 8157   7.660   2.635   6.000 -1.1748 -0.7869 -0.5784
   26MOL   H108 8158   7.406   2.571   6.010  1.4955 -1.5946  0.6335
   26MOL   H109 8159   7.478   2.618   5.857 -0.4661 -1.1843 -2.4926
   26MOL   H110 8160   7.336   2.506   5.857  0.6749  0.1630 -0.7898
   26MOL   H111 8161   7.426   2.301   5.772  0.6084 -0.2490 -0.3730
   26MOL   H112 8162   7.354   2.287   5.926 -0.1094  1.9497  0.1933
   26MOL   H113 8163   7.514   2.219   5.897 -0.7606 -0.1556  0.7755
   26MOL   C114 8164   0.007   2.560   5.990 -0.6307 -0.4471  0.3135
   26MOL   C115 8165   0.034   2.532   5.837 -0.2264  0.7929  0.1847
   26MOL   C116 8166   0.185   2.505   5.826 -0.6866 -0.5504 -0.7974
   26MOL   O117 8167   0.264   2.598   5.806  0.1130  0.5949 -0.1642
   26MOL   N118 8168   0.227   2.378   5.841 -0.1521  0.0521  0.4787
   26MOL   C119 8169   0.142   2.265   5.871 -0.9396 -0.0539  0.1330
   26MOL   C120 8170   0.373   2.343   5.835  0.4201  0.6274  0.1906
   26MOL   H121 8171   0.045   2.662   5.991 -2.2580  0.1645  1.8310
   26MOL   H122 8172   0.068   2.489   6.045  0.2408  1.5441  1.9523
   26MOL   H123 8173   7.830   2.445   5.805  2.6258 -1.0952  0.0227
   26MOL   H124 8174   0.191   2.168   5.873  1.0371  0.9007 -0.2190
   26MOL   H125 8175   0.102   2.286   5.970 -0.5668  2.9959 -0.2984
   26MOL   H126 8176   0.062   2.258   5.797 -1.0530 -0.5763  0.3101
   26MOL   H127 8177   0.399   2.237   5.827 -0.9779  0.2495  0.5805
   26MOL   H128 8178   0.434   2.397   5.908 -0.7651  1.5869  0.4816
   26MOL   H129 8179   0.405   2.377   5.737  2.7888 -3.0767 -0.4203
   26MOL   C130 8180   7.849   2.644   5.734 -0.4342 -0.7476 -0.0173
   26MOL   C131 8181   7.844   2.609   5.583 -0.7951 -0.6464 -0.5210
   26MOL   C132 8182   7.752   2.493   5.545  0.1470  0.1492  0.0849
   26MOL   O133 8183   7.798   2.383   5.526 -0.2178  0.4166  0.3883
   26MOL   N134 8184   7.620   2.520   5.528 -0.1310 -0.1216 -0.1990
   26MOL   C135 8185   7.556   2.656   5.538  0.3380 -0.0679 -0.1216
   26MOL   C136 8186   7.526   2.415   5.485  0.1697  0.1418 -0.1326
   26MOL   H137 8187   7.747   2.673   5.757 -0.1680 -0.5077  0.9171
   26MOL   H138 8188   0.058   2.732   5.749 -2.9032  0.7498  1.7629
   26MOL   H139 8189   7.806   2.693   5.525  0.6994  0.4133 -0.0026
   26MOL   H140 8190   7.579   2.729   5.460 -2.6298  2.2169  1.0477
   26MOL   H141 8191   7.448   2.646   5.539  0.2633  0.6826 -0.2286
   26MOL   H142 8192   7.582   2.706   5.631  1.6982  1.6486 -1.3939
   26MOL   H143 8193   7.548   2.320   5.534  0.6729 -0.6877 -1.9305
   26MOL   H144 8194   7.547   2.391   5.381 -0.2984  0.5554 -0.3259
   26MOL   H145 8195   7.419   2.430   5.498  0.1294 -0.3957  0.1454
   26MOL   C146 8196   0.126   2.590   5.520  0.0061  0.1546 -0.0174
   26MOL   C147 8197   0.130   2.617   5.368 -0.2538 -0.8147 -0.1061
   26MOL   C148 8198   0.261   2.547   5.316  0.1012 -0.3522  0.4027
   26MOL   O149 8199   0.369   2.585   5.358 -0.1555  0.7317  0.1487
   26MOL   N150 8200   0.250   2.456   5.216 -0.0126 -0.2244  0.4198
   26MOL   C151 8201   0.127   2.385   5.164 -0.3728 -0.7424 -0.2397
   26MOL   C152 8202   0.374   2.408   5.145  0.0359  0.0548  0.9838
   26MOL   H153 8203   0.196   2.661   5.564  0.6160 -0.1969 -0.4083
   26MOL   H154 8204   0.176   2.500   5.558 -0.3840  0.0604  0.2664
   26MOL   H155 8205   0.045   2.579   5.313 -0.0078  0.2289 -1.2517
   26MOL   H156 8206   0.138   2.277   5.155  0.9818 -0.5893 -0.6631
   26MOL   H157 8207   0.044   2.389   5.234  1.7526 -0.3792  2.3133
   26MOL   H158 8208   0.098   2.427   5.068  1.1703  1.2486  0.1333
   26MOL   H159 8209   0.429   2.339   5.209  0.0326 -1.0944 -0.2343
   26MOL   H160 8210   0.431   2.485   5.093 -2.1014 -0.0261 -1.5571
   26MOL   H161 8211   0.336   2.339   5.070 -0.0809 -0.3309  1.3983
   26MOL   C162 8212   0.141   2.768   5.338 -0.1075 -0.4031 -0.6036
   26MOL   C163 8213   0.128   2.808   5.185  0.6608 -0.1502 -0.5245
   26MOL   C164 8214   0.201   2.941   5.162 -0.3163  0.1431 -0.1365
   26MOL   O165 8215   0.145   3.040   5.207  0.6838 -0.1228  0.3613
   26MOL   N166 8216   0.317   2.947   5.095  0.3789 -0.3263  0.2514
   26MOL   C167 8217   0.372   2.831   5.031 -0.6988  0.4544  1.0694
   26MOL   C168 8218   0.356   3.081   5.044 -0.2790 -0.7924  0.4226
   26MOL   H169 8219   0.073   2.824   5.401 -2.1993 -1.4062 -1.9283
   26MOL   H170 8220   0.241   2.798   5.370  0.5835 -2.0160 -1.1863
   26MOL   H171 8221   0.164   2.729   5.119 -0.0832 -1.2488  0.3586
   26MOL   H172 8222   0.473   2.860   5.003 -1.4251  1.2873 -0.8723
   26MOL   H173 8223   0.379   2.746   5.098  1.5890 -0.5404 -0.3868
   26MOL   H174 8224   0.320   2.794   4.942  0.0255  0.1476  0.7730
   26MOL   H175 8225   0.310   3.102   4.948  2.1436  1.6858 -0.2605
   26MOL   H176 8226   0.464   3.084   5.033 -0.4972 -0.9802 -1.9642
   26MOL   H177 8227   0.320   3.163   5.106 -0.5449 -0.3797 -0.2726
   26MOL   C178 8228   7.831   2.824   5.142 -0.0619 -0.1544 -0.5598
   26MOL   C179 8229   7.812   2.838   4.991  0.2864  1.1950 -0.1708
   26MOL   C180 8230   7.676   2.890   4.956 -0.2274 -0.4762  0.4857
   26MOL   O181 8231   7.579   2.816   4.950 -0.3067 -0.3622 -0.1800
   26MOL   N182 8232   7.658   3.024   4.922  0.4817 -0.0788 -0.4755
   26MOL   C183 8233   7.528   3.072   4.872 -0.0216 -0.3671 -0.2194
   26MOL   C184 8234   7.768   3.123   4.929 -0.2925  0.1066 -1.0121
   26MOL   H185 8235   7.774   2.738   5.178  1.3166 -1.1045 -0.6266
   26MOL   H186 8236   7.785   2.908   5.194  0.9429  1.2552 -1.9125
   26MOL   H187 8237   0.032   2.905   4.947  0.8666  0.9954  0.4973
   26MOL   H188 8238   7.442   3.040   4.931  0.8500  0.5345  1.5638
   26MOL   H189 8239   7.518   3.180   4.872  1.7934 -0.1929  0.9250
   26MOL   H190 8240   7.514   3.035   4.770  1.7068  1.6826 -1.2306
   26MOL   H191 8241   7.721   3.221   4.917  0.7462  0.7583  0.0961
   26MOL   H192 8242   7.837   3.105   4.847  0.0165  1.1312 -0.9820
   26MOL   H193 8243   7.825   3.120   5.022 -0.7308  0.2066 -0.7391
   26MOL   C194 8244   7.832   2.694   4.930  0.8118  0.4287 -0.2220
   26MOL   C195 8245   0.050   2.676   4.795  0.2258  0.9638 -0.7182
   26MOL   C196 8246   7.835   2.770   4.687 -0.1225 -0.4142 -0.0659
   26MOL   O197 8247   7.716   2.747   4.663 -1.0109 -0.7252 -0.6045
   26MOL   N198 8248   0.047   2.876   4.633  0.5157 -0.2984  0.1262
   26MOL   C199 8249   0.176   2.920   4.681 -0.0247 -0.4723  0.4945
   26MOL   C200 8250   0.002   2.934   4.504  0.1640  0.6952  0.1399
   26MOL   H201 8251   0.022   2.630   5.007  0.3250 -0.2275 -0.4833
   26MOL   H202 8252   7.734   2.648   4.913  0.7566  0.2259  0.6330
   26MOL   H203 8253   0.153   2.705   4.814  0.6559 -1.0366  0.0407
   26MOL   H204 8254   0.179   2.939   4.788  0.6590 -0.5906  0.5010
   26MOL   H205 8255   0.247   2.839   4.663  1.5616  1.1789 -0.8733
   26MOL   H206 8256   0.208   3.010   4.628 -1.8775  0.1768  0.4458
   26MOL   H207 8257   0.021   3.041   4.500  2.9728  0.3001  1.9332
   26MOL   H208 8258   7.749   2.916   4.487  0.5193 -1.9133  0.5351
   26MOL   H209 8259   0.063   2.887   4.427 -0.4929 -0.6220  0.4011
   26MOL   C210 8260   0.050   2.525   4.754 -0.0540  0.2696 -0.4375
   26MOL   C211 8261   0.157   2.492   4.642 -0.1061 -0.2123  0.5544
   26MOL   C212 8262   0.301   2.493   4.686 -0.3597  1.3166  0.0219
   26MOL   O213 8263   0.365   2.591   4.679  0.0500  0.4880  0.3198
   26MOL   N214 8264   0.357   2.381   4.738 -0.0999 -0.0356 -0.0060
   26MOL   C215 8265   0.283   2.256   4.758  0.0224 -0.0364 -0.0541
   26MOL   C216 8266   0.501   2.360   4.759  0.8513 -0.4820 -0.4516
   26MOL   H217 8267   0.076   2.456   4.834 -0.1968 -1.8906 -2.2189
   26MOL   H218 8268   7.803   2.491   4.729 -0.0308 -1.7599  1.9918
   26MOL   H219 8269   0.126   2.390   4.617  2.8081 -0.7596 -1.0015
   26MOL   H220 8270   0.345   2.178   4.802 -0.2147 -0.1763  0.0303
   26MOL   H221 8271   0.191   2.272   4.814  1.0553  0.9453  1.3938
   26MOL   H222 8272   0.237   2.218   4.667 -0.9062  0.4583  0.2056
   26MOL   H223 8273   0.536   2.446   4.816 -0.4334 -0.9735  1.1320
   26MOL   H224 8274   0.554   2.377   4.666  0.6832  0.9339 -0.3055
   26MOL   H225 8275   0.545   2.269   4.798  1.9071  1.0563  2.1209
   26MOL   C226 8276   0.125   2.565   4.507  0.1588 -0.3550 -0.5452
   26MOL   C227 8277   0.195   2.502   4.384 -0.3616 -0.3279 -0.0002
   26MOL   C228 8278   0.190   2.612   4.271 -0.3275 -0.2692  0.6341
   26MOL   O229 8279   0.090   2.684   4.258 -0.2744  0.9467 -0.0738
   26MOL   N230 8280   0.302   2.630   4.196  0.1087 -0.2907 -0.4458
   26MOL   C231 8281   0.422   2.542   4.198 -0.1977 -0.2832 -0.2984
   26MOL   C232 8282   0.314   2.732   4.088  0.2579  0.2939 -0.2904
   26MOL   H233 8283   0.016   2.564   4.499  0.1863 -2.4507 -0.8276
   26MOL   H234 8284   0.168   2.665   4.516 -0.8649  0.0502 -0.0652
   26MOL   H235 8285   0.301   2.492   4.407 -0.8727 -0.6023  2.4836
   26MOL   H236 8286   0.476   2.558   4.291  0.7595  1.3884 -1.1199
   26MOL   H237 8287   0.400   2.437   4.180  1.7961 -0.5086 -1.5444
   26MOL   H238 8288   0.496   2.563   4.121  0.7979  2.0856  1.2228
   26MOL   H239 8289   0.316   2.835   4.123  3.6881  0.5695 -1.1069
   26MOL   H240 8290   0.228   2.729   4.021  0.7860  1.0973 -1.0104
   26MOL   H241 8291   0.393   2.717   4.015  0.1284 -0.1196 -0.3484
   26MOL   C242 8292   0.142   2.367   4.321 -0.4175 -0.0973 -0.5149
   26MOL   C243 8293   7.847   2.368   4.276 -0.4508  0.1835  0.1442
   26MOL   C244 8294   7.751   2.374   4.394 -0.0493 -0.6550 -0.1898
   26MOL   O245 8295   7.777   2.295   4.480 -0.6214 -0.5708 -0.4602
   26MOL   N246 8296   7.636   2.446   4.394  0.1263  0.1611 -0.4895
   26MOL   C247 8297   7.526   2.421   4.487 -0.6096 -0.1004 -0.1680
   26MOL   C248 8298   7.612   2.558   4.306 -0.2329  0.7258 -0.5171
   26MOL   H249 8299   0.189   2.337   4.228 -1.3157 -2.3599 -0.2775
   26MOL   H250 8300   0.149   2.290   4.398  0.9180  0.1455 -0.3876
   26MOL   H251 8301   7.846   2.452   4.207  0.2850  0.2251  0.1756
   26MOL   H252 8302   7.565   2.436   4.588  1.7047 -0.5588 -0.9572
   26MOL   H253 8303   7.458   2.505   4.480 -1.7700 -0.8751  1.5548
   26MOL   H254 8304   7.484   2.321   4.482 -1.8072  0.3602  0.4373
   26MOL   H255 8305   7.671   2.633   4.358  1.1455 -2.1814  2.2982
   26MOL   H256 8306   7.512   2.600   4.299 -1.3667 -1.6718  0.5827
   26MOL   H257 8307   7.637   2.541   4.202 -0.8816 -1.6856 -0.3157
   26MOL   C258 8308   7.805   2.241   4.195  0.9132  0.2472 -0.3564
   26MOL   C259 8309   7.848   2.238   4.043  0.3032  0.1301  0.8341
   26MOL   C260 8310   7.826   2.371   3.961  0.5819 -0.3396 -0.4262
   26MOL   O261 8311   7.712   2.410   3.956  0.0807 -0.0309  0.1477
   26MOL   N262 8312   0.074   2.441   3.905 -0.0794  1.5777  0.2154
   26MOL   C263 8313   0.213   2.409   3.921  0.1435 -0.7475  0.6614
   26MOL   C264 8314   0.042   2.529   3.791  0.4154 -0.2222 -0.4614
   26MOL   H265 8315   7.839   2.146   4.237 -1.1700 -0.9866 -1.3264
   26MOL   H266 8316   7.696   2.241   4.194  0.8990  2.6636 -0.6364
   26MOL   H267 8317   0.101   2.229   4.068  0.0892  0.7423  2.0276
   26MOL   H268 8318   0.261   2.491   3.866 -2.1546  0.0646 -0.2012
   26MOL   H269 8319   0.248   2.407   4.024  1.2268 -3.7532  0.2822
   26MOL   H270 8320   0.244   2.318   3.869 -0.9789  0.2932 -1.9443
   26MOL   H271 8321   7.848   2.471   3.712 -0.1110 -0.3135 -0.0854
   26MOL   H272 8322   0.110   2.585   3.727  0.0539  1.9744  1.0493
   26MOL   H273 8323   7.816   2.596   3.822 -0.5808 -1.4170 -0.3712
   26MOL   C274 8324   7.814   2.106   3.968 -0.7292 -0.2236 -0.3714
   26MOL   C275 8325   7.663   2.089   3.937  0.0677 -0.6224 -0.6983
   26MOL   C276 8326   7.588   2.036   4.066 -0.2103  0.1684  0.3064
   26MOL   O277 8327   7.627   1.931   4.108  0.1807 -0.3501 -0.6442
   26MOL   N278 8328   7.486   2.107   4.114 -0.1935 -0.0940 -0.3354
   26MOL   C279 8329   7.433   2.067   4.243 -0.1647  0.2714  0.0540
   26MOL   C280 8330   7.431   2.227   4.045 -1.0380  0.0193 -0.1142
   26MOL   H281 8331   0.023   2.113   3.878  1.4460  1.1650  1.1961
   26MOL   H282 8332   0.002   2.025   4.029 -0.4060  0.0070 -0.2810
   26MOL   H283 8333   7.618   2.182   3.904  0.2031 -0.0506  0.7099
   26MOL   H284 8334   7.331   2.032   4.230  0.2435 -0.7923 -0.2695
   26MOL   H285 8335   7.478   1.980   4.291 -1.9425 -0.8552 -0.2822
   26MOL   H286 8336   7.438   2.149   4.316 -0.6052  0.9876 -0.7061
   26MOL   H287 8337   7.507   2.305   4.050  0.4241 -1.3566 -0.4923
   26MOL   H288 8338   7.351   2.265   4.109 -0.4212  1.0254  0.0710
   26MOL   H289 8339   7.392   2.219   3.943 -2.6702 -0.3523  0.5287
   26MOL   C290 8340   7.650   1.995   3.816 -0.7371  0.3524  0.2980
   26MOL   C291 8341   7.567   2.052   3.698  0.1504 -0.2854 -0.5744
   26MOL   C292 8342   7.522   1.947   3.594  0.0083  0.0238 -0.1450
   26MOL   O293 8343   7.597   1.850   3.558  0.3140  0.2747 -0.2269
   26MOL   N294 8344   7.398   1.954   3.544  0.0713 -0.3623 -0.1540
   26MOL   C295 8345   7.347   1.860   3.444  0.2242  0.6614  0.2235
   26MOL   C296 8346   7.307   2.064   3.580 -0.6663 -0.4279  0.2672
   26MOL   H297 8347   7.739   1.945   3.778 -0.6649 -0.0383  0.9771
   26MOL   H298 8348   7.592   1.910   3.852  0.6321 -0.4200  0.6714
   26MOL   H299 8349   7.485   2.102   3.749 -2.1246 -2.7577 -1.6735
   26MOL   H300 8350   7.403   1.861   3.351  1.1108  0.8531  0.7534
   26MOL   H301 8351   7.349   1.760   3.488  3.4961  0.1474 -0.9770
   26MOL   H302 8352   7.241   1.877   3.424 -0.2257 -1.7861  0.3402
   26MOL   H303 8353   7.355   2.160   3.562 -0.5226 -0.7296 -0.9695
   26MOL   H304 8354   7.281   2.054   3.686  1.9889 -2.0734  0.8165
   26MOL   H305 8355   7.202   2.061   3.550 -0.2279 -0.9595 -1.2126
   26MOL   C306 8356   7.636   2.172   3.630 -0.2013  0.1381  0.3509
   26MOL   C307 8357   7.772   2.143   3.558  0.0098 -0.4167  0.1474
   26MOL   C308 8358   7.827   2.269   3.481 -0.5522  0.1504  0.0374
   26MOL   O309 8359   7.742   2.349   3.439 -0.0715  0.5063  0.7296
   26MOL   N310 8360   0.111   2.287   3.467 -0.0068 -0.6725 -0.1070
   26MOL   C311 8361   0.209   2.196   3.533 -0.0243  0.1495 -0.0945
   26MOL   C312 8362   0.170   2.405   3.400 -0.4342 -0.2226 -0.1788
   26MOL   H313 8363   7.570   2.203   3.550  1.0109  1.4338 -0.1693
   26MOL   H314 8364   7.655   2.256   3.697 -2.2222  0.6559  0.2991
   26MOL   H315 8365   7.843   2.123   3.639  0.1746 -0.8218 -0.0963
   26MOL   H316 8366   0.305   2.204   3.482 -0.0706 -0.6253 -0.3150
   26MOL   H317 8367   0.233   2.235   3.631  2.1409  1.2324 -1.0289
   26MOL   H318 8368   0.182   2.090   3.534  0.6043  0.0000  1.5533
   26MOL   H319 8369   0.105   2.436   3.318 -0.9657  0.0469  0.3401
   26MOL   H320 8370   0.271   2.388   3.362 -0.7340  0.4387 -1.3049
   26MOL   H321 8371   0.176   2.473   3.485  1.3319 -3.3527  2.3160
   26MOL   H322 8372   7.761   2.058   3.491 -0.8502 -0.1358 -0.0639
   27MOL     C1 8373   2.708   7.118   5.768 -0.4189  0.5861  0.1221
   27MOL     C2 8374   2.718   7.082   5.613  0.1413 -0.2617  0.0371
   27MOL     C3 8375   2.573   7.083   5.556  0.0791 -0.1330  0.1199
   27MOL     O4 8376   2.501   6.991   5.592 -0.3724  0.1510 -0.0933
   27MOL     N5 8377   2.524   7.181   5.476  0.4002  0.0101  0.0553
   27MOL     C6 8378   2.580   7.319   5.474 -0.0363  0.0722  0.6227
   27MOL     C7 8379   2.382   7.181   5.427 -0.2349 -0.2220 -0.1456
   27MOL     H8 8380   2.653   7.040   5.822 -3.8556  2.5387 -0.3738
   27MOL     H9 8381   2.655   7.210   5.793 -2.0721 -0.0280 -1.0229
   27MOL    H10 8382   2.791   7.146   5.563  3.5943 -2.9875  1.3503
   27MOL    H11 8383   2.672   7.329   5.531  1.7180 -0.3780 -2.0355
   27MOL    H12 8384   2.601   7.346   5.370  0.4464  0.2291  0.7610
   27MOL    H13 8385   2.505   7.390   5.508 -0.0484 -0.4950  1.8173
   27MOL    H14 8386   2.370   7.241   5.337 -2.0919 -0.2274  0.0882
   27MOL    H15 8387   2.322   7.217   5.511 -0.0169 -1.4070  0.5369
   27MOL    H16 8388   2.345   7.085   5.391  1.1002 -1.6411  2.1103
   27MOL    H17 8389   2.804   7.125   5.818 -1.3868  2.2835  1.8288
   27MOL    C18 8390   2.776   6.942   5.581  0.5590  0.7906 -0.6313
   27MOL    C19 8391   2.924   6.913   5.628  0.0315  0.7033 -0.0792
   27MOL    C20 8392   3.024   6.978   5.531  1.2324 -0.1409  1.0240
   27MOL    O21 8393   2.997   6.981   5.412  0.2392  0.3823  0.1142
   27MOL    N22 8394   3.138   7.029   5.580 -0.3595  1.0125  0.4317
   27MOL    C23 8395   3.172   7.040   5.724 -0.3721 -0.7154 -0.0189
   27MOL    C24 8396   3.241   7.075   5.490 -0.4151 -1.0869 -0.0076
   27MOL    H25 8397   2.723   6.852   5.614 -0.3405  1.2096 -0.9217
   27MOL    H26 8398   2.772   6.949   5.472 -0.1895 -0.6920 -0.7225
   27MOL    H27 8399   2.937   6.957   5.727 -0.7354 -1.5311  1.0526
   27MOL    H28 8400   3.105   7.114   5.767  1.4859 -0.2667  2.1833
   27MOL    H29 8401   3.151   6.946   5.774  0.2712 -0.0915  1.4307
   27MOL    H30 8402   3.278   7.059   5.741 -0.2436 -0.7776 -0.7044
   27MOL    H31 8403   3.271   7.169   5.536 -0.6735  0.4614 -2.9205
   27MOL    H32 8404   3.203   7.106   5.393 -0.4308 -1.5204 -0.1434
   27MOL    H33 8405   3.327   7.008   5.488 -0.3597 -0.9880 -0.8503
   27MOL    C34 8406   2.956   6.758   5.638  0.2458 -0.0036 -0.1633
   27MOL    C35 8407   2.883   6.695   5.757 -0.0107  0.1200 -0.1188
   27MOL    C36 8408   2.953   6.733   5.894 -0.5314  0.2661  0.3106
   27MOL    O37 8409   3.073   6.727   5.903  0.0763 -0.2756 -0.4225
   27MOL    N38 8410   2.880   6.766   6.001  0.7002  0.0213  0.8785
   27MOL    C39 8411   2.740   6.778   6.011 -0.1002 -0.7574 -0.4294
   27MOL    C40 8412   2.941   6.781   6.132 -1.0002 -0.5274 -0.6182
   27MOL    H41 8413   2.931   6.700   5.549  0.2911  0.2255 -0.3243
   27MOL    H42 8414   3.063   6.739   5.650 -0.0975 -2.2892 -0.4948
   27MOL    H43 8415   2.778   6.719   5.746 -0.0714 -1.2475 -3.2734
   27MOL    H44 8416   2.707   6.702   5.941 -1.6161 -0.6847  0.1870
   27MOL    H45 8417   2.693   6.758   6.108  0.5627 -0.9871 -0.1525
   27MOL    H46 8418   2.698   6.875   5.983 -2.6163 -1.8849 -0.5918
   27MOL    H47 8419   2.898   6.847   6.207 -1.1627 -0.0474 -1.1333
   27MOL    H48 8420   3.044   6.817   6.122 -0.9946  0.4966  2.5345
   27MOL    H49 8421   2.942   6.680   6.174 -0.5573  0.8360  2.8030
   27MOL    C50 8422   2.877   6.542   5.734 -0.0232  0.6568 -0.1323
   27MOL    C51 8423   2.997   6.445   5.750 -0.2823 -0.5928 -0.2198
   27MOL    C52 8424   3.102   6.475   5.639 -0.3270 -0.4430  0.4587
   27MOL    O53 8425   3.058   6.476   5.522 -0.0866  0.4376 -0.1130
   27MOL    N54 8426   3.235   6.505   5.664 -0.2366 -0.5003  0.1114
   27MOL    C55 8427   3.294   6.504   5.796 -0.6014  0.0862  0.3718
   27MOL    C56 8428   3.326   6.534   5.551 -0.1837  0.6992  0.4309
   27MOL    H57 8429   2.791   6.511   5.794 -0.2743 -2.9283 -2.1976
   27MOL    H58 8430   2.844   6.521   5.632 -0.3585  2.1311 -0.3475
   27MOL    H59 8431   3.043   6.471   5.845 -0.5246 -1.6321  0.1834
   27MOL    H60 8432   3.401   6.518   5.786 -0.6529 -0.1115 -0.5190
   27MOL    H61 8433   3.259   6.579   5.867 -1.7672 -0.7747  0.7343
   27MOL    H62 8434   3.273   6.409   5.846  0.4593 -0.9039 -1.0314
   27MOL    H63 8435   3.430   6.513   5.577 -0.5157  0.4323  1.6052
   27MOL    H64 8436   3.315   6.640   5.532  3.0993  0.8190 -1.2638
   27MOL    H65 8437   3.297   6.485   5.458  0.8756  0.9109 -0.0177
   27MOL    C66 8438   2.960   6.295   5.733  0.0583 -0.1953 -0.0724
   27MOL    C67 8439   2.894   6.239   5.863  0.3088 -0.2732  0.4871
   27MOL    C68 8440   2.985   6.253   5.986  0.2029 -0.5120 -0.4518
   27MOL    O69 8441   3.102   6.212   5.975 -0.4996  0.3210  0.1980
   27MOL    N70 8442   2.933   6.292   6.102  0.1741  0.2171  0.7044
   27MOL    C71 8443   2.810   6.365   6.122  1.1837  0.4622 -0.0195
   27MOL    C72 8444   3.014   6.277   6.224 -0.5768  0.0609 -0.3022
   27MOL    H73 8445   2.902   6.294   5.641  2.9261 -1.6999 -1.9262
   27MOL    H74 8446   3.051   6.236   5.726  0.4846  0.4978 -0.4214
   27MOL    H75 8447   2.803   6.297   5.876  0.7334 -0.1543  3.1570
   27MOL    H76 8448   2.798   6.412   6.220 -2.0190  0.2828 -0.2665
   27MOL    H77 8449   2.797   6.444   6.048  0.6687  0.7021  0.3253
   27MOL    H78 8450   2.730   6.291   6.118  1.3646  0.3168 -0.9057
   27MOL    H79 8451   3.117   6.245   6.211 -0.4696  0.5891 -0.7487
   27MOL    H80 8452   2.972   6.200   6.288  0.8427 -0.3324  0.1665
   27MOL    H81 8453   3.025   6.368   6.281  2.0971 -1.0128  0.9547
   27MOL    C82 8454   2.862   6.089   5.835  0.3887  0.5598 -0.6583
   27MOL    C83 8455   2.739   6.030   5.912 -0.0634  0.1700 -0.0844
   27MOL    C84 8456   2.761   5.896   5.983  0.3406 -0.7523  0.4797
   27MOL    O85 8457   2.718   5.890   6.100 -0.6435 -0.8291 -0.3724
   27MOL    N86 8458   2.777   5.782   5.906  0.7756  0.0405 -1.1605
   27MOL    C87 8459   2.746   5.646   5.958 -0.3407  0.1299  0.2441
   27MOL    C88 8460   2.844   5.776   5.772 -0.1841 -0.0539 -0.4761
   27MOL    H89 8461   2.828   6.089   5.732  1.7351 -0.3669 -1.1202
   27MOL    H90 8462   2.955   6.032   5.834  1.7181  2.6832 -1.6889
   27MOL    H91 8463   2.715   6.098   5.995 -0.1386  0.4763 -0.3567
   27MOL    H92 8464   2.821   5.618   6.031  0.7576  2.4607  0.0679
   27MOL    H93 8465   2.644   5.655   5.995 -0.2657  1.1837  0.2118
   27MOL    H94 8466   2.734   5.578   5.874 -0.7602  0.7593 -0.2112
   27MOL    H95 8467   2.800   5.706   5.702 -3.0997  0.7610  0.4421
   27MOL    H96 8468   2.951   5.755   5.780 -0.3199 -1.7284 -2.6724
   27MOL    H97 8469   2.837   5.871   5.720  0.2937  0.1191 -0.2300
   27MOL    C98 8470   2.608   6.031   5.827  0.2496  0.0233  0.6042
   27MOL    C99 8471   2.469   6.029   5.894  0.3440  0.1903  0.6273
   27MOL   C100 8472   2.359   6.007   5.787 -0.2408  0.1031 -0.0479
   27MOL   O101 8473   2.332   6.093   5.708 -0.6348 -0.2079 -0.4199
   27MOL   N102 8474   2.289   5.887   5.776  0.2681  0.3803  0.0794
   27MOL   C103 8475   2.165   5.878   5.699 -0.0314  0.1472  0.4664
   27MOL   C104 8476   2.328   5.770   5.848  0.4810 -0.0769 -0.2825
   27MOL   H105 8477   2.615   6.116   5.760  0.5405 -0.4050  0.0886
   27MOL   H106 8478   2.612   5.944   5.762  0.6430 -0.0205  0.6832
   27MOL   H107 8479   2.468   5.955   5.974  3.2359 -2.0408 -1.2965
   27MOL   H108 8480   2.126   5.980   5.699  0.5788  0.4082 -2.7192
   27MOL   H109 8481   2.178   5.851   5.595 -1.0608  0.9482  0.1229
   27MOL   H110 8482   2.085   5.815   5.739  2.1055 -1.2020  2.7750
   27MOL   H111 8483   2.435   5.757   5.827  0.6558 -0.4161  0.7918
   27MOL   H112 8484   2.284   5.676   5.814  1.4442 -0.2402 -1.1370
   27MOL   H113 8485   2.312   5.777   5.955  1.7611  0.8272 -0.1386
   27MOL   C114 8486   2.440   6.164   5.956 -0.2435 -0.4201 -0.0276
   27MOL   C115 8487   2.383   6.148   6.100 -0.3446 -0.3509 -0.0131
   27MOL   C116 8488   2.248   6.083   6.094  0.2703 -0.6993 -0.6106
   27MOL   O117 8489   2.165   6.131   6.023  0.0876  0.5115  0.6707
   27MOL   N118 8490   2.218   5.976   6.176  0.0567 -0.2815 -0.0844
   27MOL   C119 8491   2.310   5.919   6.271  0.3778 -0.2744  0.6114
   27MOL   C120 8492   2.096   5.901   6.136  0.4652  0.7872 -0.0540
   27MOL   H121 8493   2.530   6.225   5.964  0.4889 -1.3550 -0.9962
   27MOL   H122 8494   2.374   6.227   5.897 -0.6362 -1.2074 -0.4365
   27MOL   H123 8495   2.449   6.084   6.159  0.9172  0.5482 -0.4090
   27MOL   H124 8496   2.352   5.978   6.352  2.2717  0.2736 -0.7365
   27MOL   H125 8497   2.253   5.838   6.317 -2.1018  0.2292 -1.4421
   27MOL   H126 8498   2.396   5.879   6.217 -0.4664  1.3224 -1.9849
   27MOL   H127 8499   2.016   5.975   6.129  0.0811  0.4824  1.0607
   27MOL   H128 8500   2.050   5.844   6.217  0.6434  1.9640  0.8764
   27MOL   H129 8501   2.113   5.838   6.048  1.6580 -0.1067  0.8041
   27MOL   C130 8502   2.365   6.284   6.177  0.4300  0.5221 -0.2348
   27MOL   C131 8503   2.278   6.401   6.110  0.2126 -0.2014  0.5399
   27MOL   C132 8504   2.358   6.495   6.020  0.5886 -0.0685 -0.2845
   27MOL   O133 8505   2.468   6.529   6.064 -0.2934 -0.3906  0.1401
   27MOL   N134 8506   2.306   6.537   5.900 -0.5469 -0.5663 -0.5895
   27MOL   C135 8507   2.180   6.487   5.841 -0.0788  0.1747  0.1899
   27MOL   C136 8508   2.367   6.650   5.832  0.3876  0.7180 -0.0159
   27MOL   H137 8509   2.325   6.258   6.275 -0.1638 -0.0260 -0.6185
   27MOL   H138 8510   2.462   6.326   6.204  1.1733 -1.9641  1.1587
   27MOL   H139 8511   2.202   6.353   6.047 -0.5153  0.5402  0.8578
   27MOL   H140 8512   2.176   6.529   5.741 -0.6464 -1.3531 -0.4387
   27MOL   H141 8513   2.178   6.379   5.827 -2.7534  0.1658  0.3375
   27MOL   H142 8514   2.090   6.510   5.899 -0.2305 -2.0545  0.8897
   27MOL   H143 8515   2.366   6.639   5.723  3.4882 -0.9492  0.0522
   27MOL   H144 8516   2.472   6.664   5.859  1.5049 -0.3916 -3.5445
   27MOL   H145 8517   2.310   6.740   5.854  0.4191  1.0260 -1.1698
   27MOL   C146 8518   2.203   6.484   6.211  0.1144 -0.2386 -0.5201
   27MOL   C147 8519   2.055   6.499   6.199 -0.7893 -0.1135 -0.4938
   27MOL   C148 8520   2.014   6.632   6.269  0.3307 -1.0033  0.3650
   27MOL   O149 8521   1.994   6.639   6.393 -0.0201  0.2316 -0.5651
   27MOL   N150 8522   1.974   6.733   6.189  0.3061  0.1157 -0.7394
   27MOL   C151 8523   1.891   6.848   6.234 -0.2876 -0.4006  0.1135
   27MOL   C152 8524   2.028   6.750   6.055 -0.6549 -0.2454  1.2580
   27MOL   H153 8525   2.219   6.446   6.312  0.4911  0.8504 -0.1619
   27MOL   H154 8526   2.247   6.583   6.217 -0.0962 -0.1742 -0.0042
   27MOL   H155 8527   2.018   6.506   6.097  1.1478  0.5259 -1.1835
   27MOL   H156 8528   1.945   6.908   6.307  0.1568 -1.5131  0.7004
   27MOL   H157 8529   1.847   6.913   6.159  1.1273  0.8399  0.3354
   27MOL   H158 8530   1.806   6.809   6.290  0.3770 -0.5618  1.0298
   27MOL   H159 8531   2.134   6.727   6.055 -0.4724  0.4892 -0.4869
   27MOL   H160 8532   2.025   6.851   6.014  0.6598 -0.5820  0.2737
   27MOL   H161 8533   1.982   6.690   5.976  0.1099  1.6559 -0.6851
   27MOL   C162 8534   1.993   6.369   6.252  0.5172  0.1017 -0.2119
   27MOL   C163 8535   1.840   6.358   6.239  0.1021  0.1775 -0.0929
   27MOL   C164 8536   1.774   6.324   6.375  0.8959  0.0756 -1.3833
   27MOL   O165 8537   1.790   6.213   6.430 -0.0663  0.1083 -0.0519
   27MOL   N166 8538   1.694   6.416   6.442  0.1780  0.2754 -0.0714
   27MOL   C167 8539   1.660   6.546   6.388  0.7096 -0.9969  0.0208
   27MOL   C168 8540   1.617   6.381   6.560 -1.0591 -0.0734  0.1339
   27MOL   H169 8541   2.038   6.294   6.188 -1.5596 -2.7899  1.6143
   27MOL   H170 8542   2.028   6.354   6.354  0.0872  1.1357  0.0914
   27MOL   H171 8543   1.801   6.446   6.189 -0.6742 -1.9565 -3.4164
   27MOL   H172 8544   1.738   6.596   6.331  1.8839  0.5466  2.8539
   27MOL   H173 8545   1.571   6.535   6.326  0.0845  0.0826  0.7148
   27MOL   H174 8546   1.627   6.611   6.469  3.4498  0.3306  0.1609
   27MOL   H175 8547   1.520   6.338   6.537 -2.0244  1.5193  1.0653
   27MOL   H176 8548   1.580   6.466   6.619  0.0160  0.5420 -0.0819
   27MOL   H177 8549   1.675   6.315   6.625  0.2898  0.3973 -0.5773
   27MOL   C178 8550   1.804   6.247   6.133  0.1773  0.1323 -0.4829
   27MOL   C179 8551   1.662   6.205   6.121  0.7610  0.1855 -0.1673
   27MOL   C180 8552   1.645   6.072   6.052  0.5143  0.1976  0.4476
   27MOL   O181 8553   1.625   6.066   5.930  0.3645  0.1854 -0.5479
   27MOL   N182 8554   1.657   5.952   6.119 -0.0891 -0.0270  0.5191
   27MOL   C183 8555   1.632   5.826   6.052  0.0981 -0.3410  0.6079
   27MOL   C184 8556   1.710   5.939   6.253  0.3696  0.1075  0.3957
   27MOL   H185 8557   1.835   6.290   6.038  0.5277 -0.5946 -0.6972
   27MOL   H186 8558   1.867   6.159   6.148 -1.6382 -0.9434  1.1024
   27MOL   H187 8559   1.628   6.177   6.220  1.4792 -1.1848 -0.2906
   27MOL   H188 8560   1.707   5.817   5.974 -1.2939  0.9231 -0.9044
   27MOL   H189 8561   1.643   5.733   6.108 -0.3209 -0.0243  1.2211
   27MOL   H190 8562   1.539   5.823   5.994  0.4088 -1.5455  0.1543
   27MOL   H191 8563   1.728   5.835   6.280 -0.3150 -0.3122 -0.7453
   27MOL   H192 8564   1.640   5.980   6.325  0.4629  2.5452 -0.8650
   27MOL   H193 8565   1.800   6.000   6.262  0.8953 -0.2944 -1.7524
   27MOL   C194 8566   1.563   6.314   6.075 -0.3815  0.9554  0.5401
   27MOL   C195 8567   1.414   6.277   6.099  0.4919 -0.1998  0.3762
   27MOL   C196 8568   1.324   6.349   6.001  0.2812 -0.3778  0.2513
   27MOL   O197 8569   1.307   6.471   6.009  0.9926  0.4052  0.4408
   27MOL   N198 8570   1.259   6.274   5.911 -1.1167 -0.3364 -0.2496
   27MOL   C199 8571   1.175   6.352   5.821  0.4390  0.6360 -0.4926
   27MOL   C200 8572   1.287   6.131   5.874 -0.1255  0.9503 -0.0078
   27MOL   H201 8573   1.587   6.394   6.145 -0.0966  0.5504  0.9118
   27MOL   H202 8574   1.590   6.344   5.974  1.4035  0.4346  0.8429
   27MOL   H203 8575   1.418   6.168   6.088 -0.6251 -0.1755 -0.3685
   27MOL   H204 8576   1.150   6.291   5.735 -0.9645  0.4823  0.0081
   27MOL   H205 8577   1.075   6.363   5.863  0.7291  0.3635  0.2905
   27MOL   H206 8578   1.209   6.449   5.785  1.4858 -0.2275 -1.8540
   27MOL   H207 8579   1.206   6.093   5.812 -0.5198  0.7199  0.6437
   27MOL   H208 8580   1.277   6.073   5.965  0.5973  0.2016 -0.4021
   27MOL   H209 8581   1.383   6.107   5.828 -0.7861 -0.0737 -0.8858
   27MOL   C210 8582   1.366   6.303   6.239  0.6580 -0.1314 -0.2468
   27MOL   C211 8583   1.247   6.221   6.279 -0.2081 -0.1584  0.2267
   27MOL   C212 8584   1.167   6.304   6.385  0.4130  0.0005  0.3315
   27MOL   O213 8585   1.213   6.323   6.501  0.6250 -0.1311 -0.2433
   27MOL   N214 8586   1.049   6.357   6.346  0.2712  0.1693 -0.4070
   27MOL   C215 8587   0.956   6.401   6.447  0.3744  0.4113  0.4248
   27MOL   C216 8588   0.994   6.353   6.211 -0.6761  0.6481 -0.2414
   27MOL   H217 8589   1.449   6.286   6.308  1.5598  0.9011 -1.0431
   27MOL   H218 8590   1.349   6.410   6.254  1.5415 -0.2711  1.8960
   27MOL   H219 8591   1.183   6.206   6.192 -0.7551  1.1346  0.3877
   27MOL   H220 8592   1.005   6.431   6.540 -0.2258 -1.6897  1.4292
   27MOL   H221 8593   0.896   6.484   6.408  1.3491  0.9746  0.1035
   27MOL   H222 8594   0.887   6.324   6.480 -0.7268  0.0118 -2.6462
   27MOL   H223 8595   0.978   6.253   6.171  0.0842  0.2569  0.4291
   27MOL   H224 8596   1.047   6.409   6.134 -0.2415 -0.2688 -0.6084
   27MOL   H225 8597   0.907   6.420   6.206  0.0076  1.4272 -2.0259
   27MOL   C226 8598   1.276   6.071   6.317 -0.1774 -0.1802  0.1546
   27MOL   C227 8599   1.219   6.013   6.451 -0.2717 -0.0660  0.3822
   27MOL   C228 8600   1.310   5.900   6.504  0.3760 -0.1767  0.5412
   27MOL   O229 8601   1.317   5.792   6.442  0.6791 -0.1405  0.1382
   27MOL   N230 8602   1.376   5.920   6.621 -0.3872 -0.0008 -0.8233
   27MOL   C231 8603   1.476   5.826   6.661 -0.3958 -0.3431 -0.5774
   27MOL   C232 8604   1.378   6.043   6.698 -0.2931 -0.2242  0.6006
   27MOL   H233 8605   1.250   6.012   6.229 -0.6945 -0.2917  0.3828
   27MOL   H234 8606   1.384   6.060   6.325 -0.2554  0.8257  3.2954
   27MOL   H235 8607   1.218   6.084   6.534 -0.2806 -1.1105  1.2922
   27MOL   H236 8608   1.462   5.803   6.766  0.5854  2.4869  0.2123
   27MOL   H237 8609   1.466   5.731   6.609 -1.0126 -1.1553  0.9924
   27MOL   H238 8610   1.573   5.875   6.651  0.1535 -0.8283  2.0109
   27MOL   H239 8611   1.281   6.077   6.737 -0.8346 -2.7149  1.5151
   27MOL   H240 8612   1.418   6.122   6.635 -0.0925 -0.9272 -0.1536
   27MOL   H241 8613   1.437   6.035   6.789  0.1937 -0.1399  0.2951
   27MOL   C242 8614   1.067   5.969   6.427 -0.1584  0.3526  0.2871
   27MOL   C243 8615   0.984   5.892   6.539 -0.4075 -1.1990  0.1969
   27MOL   C244 8616   0.841   5.847   6.489 -0.1258 -0.1483 -0.1724
   27MOL   O245 8617   0.756   5.933   6.469  1.1542  0.2148 -0.4354
   27MOL   N246 8618   0.816   5.718   6.471 -0.8714  0.4892 -0.6712
   27MOL   C247 8619   0.919   5.609   6.477  0.3545 -0.1610  0.2420
   27MOL   C248 8620   0.679   5.668   6.450  0.9827  0.7459  0.1852
   27MOL   H249 8621   1.015   6.058   6.391 -1.3732 -0.5339 -0.1946
   27MOL   H250 8622   1.071   5.911   6.335  0.4001  0.4261  0.2590
   27MOL   H251 8623   1.050   5.813   6.572  0.8671 -0.1968  0.0601
   27MOL   H252 8624   0.925   5.571   6.579 -0.0787  1.3617  0.8606
   27MOL   H253 8625   0.893   5.518   6.423 -0.6555 -0.4312  1.1613
   27MOL   H254 8626   1.017   5.643   6.442 -0.1684  1.6707  0.5072
   27MOL   H255 8627   0.665   5.658   6.342  0.8878  0.3882  0.2281
   27MOL   H256 8628   0.601   5.731   6.493  1.1307  0.5700  0.7089
   27MOL   H257 8629   0.673   5.566   6.487  2.8087  0.3102 -0.6414
   27MOL   C258 8630   0.978   5.989   6.655  0.5751 -0.1256 -0.5159
   27MOL   C259 8631   0.881   5.964   6.771 -0.0583  0.6701 -0.8873
   27MOL   C260 8632   0.865   6.093   6.860  0.1035  0.2323  0.2152
   27MOL   O261 8633   0.929   6.091   6.960 -1.0184 -0.0633  0.4473
   27MOL   N262 8634   0.778   6.188   6.832  0.1477  0.4061  0.4821
   27MOL   C263 8635   0.697   6.195   6.711 -0.0861  0.0731  0.2642
   27MOL   C264 8636   0.759   6.287   6.934 -0.7026 -0.5093  0.1545
   27MOL   H265 8637   1.082   5.987   6.689  0.5605 -0.9438 -0.5024
   27MOL   H266 8638   0.973   6.091   6.618  1.1501  0.2210  0.3521
   27MOL   H267 8639   0.785   5.941   6.726  0.5179 -1.9087 -0.8366
   27MOL   H268 8640   0.636   6.106   6.698  0.8319 -0.0958 -3.2492
   27MOL   H269 8641   0.616   6.267   6.710 -0.8384 -0.7777 -0.0806
   27MOL   H270 8642   0.767   6.212   6.629 -0.3565 -0.5516 -0.1015
   27MOL   H271 8643   0.853   6.322   6.976 -0.8920  1.6140 -1.1228
   27MOL   H272 8644   0.701   6.252   7.019 -2.1243 -0.8335 -0.9200
   27MOL   H273 8645   0.720   6.384   6.905  0.2413 -0.6822 -1.8174
   27MOL   C274 8646   0.931   5.840   6.858  0.4914 -0.4948  0.4982
   27MOL   C275 8647   0.841   5.792   6.967  0.4403  0.3414 -0.4803
   27MOL   C276 8648   0.921   5.701   7.064  0.2069  0.5491 -0.0787
   27MOL   O277 8649   0.946   5.584   7.030 -0.3422  0.1490 -0.1327
   27MOL   N278 8650   0.949   5.734   7.192  0.2083  0.1885  0.3004
   27MOL   C279 8651   0.992   5.622   7.277 -0.6190  0.6579  0.1283
   27MOL   C280 8652   0.936   5.865   7.252 -0.1405  0.6109 -0.5005
   27MOL   H281 8653   0.945   5.752   6.795  0.3776 -0.8054  0.9011
   27MOL   H282 8654   1.031   5.864   6.894 -0.5955  4.3314  0.6096
   27MOL   H283 8655   0.796   5.880   7.013  1.6815  1.6792 -1.7792
   27MOL   H284 8656   1.090   5.580   7.256 -1.3963  0.1062 -2.6075
   27MOL   H285 8657   0.997   5.647   7.383  1.8306 -0.6998  0.3784
   27MOL   H286 8658   0.922   5.539   7.268  1.5464 -1.2223  0.3870
   27MOL   H287 8659   0.844   5.861   7.311 -0.1579 -0.6573 -0.5887
   27MOL   H288 8660   0.919   5.945   7.181 -1.6933  0.9194  0.1874
   27MOL   H289 8661   1.021   5.894   7.314 -0.5318 -1.0249  0.8703
   27MOL   C290 8662   0.709   5.722   6.915  0.4807 -0.2087  0.3286
   27MOL   C291 8663   0.612   5.650   7.016  1.1726 -0.0278  0.6390
   27MOL   C292 8664   0.500   5.580   6.927 -0.7955  0.8993 -0.1336
   27MOL   O293 8665   0.418   5.652   6.874  0.1573 -0.2324 -0.3277
   27MOL   N294 8666   0.507   5.445   6.911  0.0348 -0.3171  0.5818
   27MOL   C295 8667   0.401   5.381   6.829  0.1704  0.9227 -0.6125
   27MOL   C296 8668   0.614   5.359   6.956  0.0700 -0.0552 -0.2361
   27MOL   H297 8669   0.662   5.794   6.849  2.3018  2.0923  1.4576
   27MOL   H298 8670   0.744   5.649   6.842 -1.0123  2.2403 -2.9712
   27MOL   H299 8671   0.665   5.577   7.078 -1.4447 -1.7454  0.9212
   27MOL   H300 8672   0.403   5.274   6.847 -0.3555  0.8887 -0.7697
   27MOL   H301 8673   0.307   5.435   6.837  0.3162  0.9270  1.4649
   27MOL   H302 8674   0.419   5.389   6.722  0.7560  1.8720 -0.4499
   27MOL   H303 8675   0.712   5.406   6.945 -0.6858  1.8569  0.9253
   27MOL   H304 8676   0.613   5.272   6.891  0.8871  0.1186 -0.4835
   27MOL   H305 8677   0.598   5.322   7.057  0.0904  1.4773  0.3488
   27MOL   C306 8678   0.546   5.741   7.121 -0.2830  0.4984  0.1335
   27MOL   C307 8679   0.452   5.667   7.218  0.8406 -0.2960  0.2822
   27MOL   C308 8680   0.515   5.577   7.322  0.8075 -1.0154 -0.0444
   27MOL   O309 8681   0.635   5.596   7.349 -0.0151  0.0499 -0.1624
   27MOL   N310 8682   0.446   5.489   7.397 -0.0988 -0.0647  0.7639
   27MOL   C311 8683   0.300   5.469   7.388  0.0023  0.4137  0.4275
   27MOL   C312 8684   0.510   5.413   7.506 -0.0319  0.3309  0.4401
   27MOL   H313 8685   0.621   5.794   7.180 -0.4027 -0.5928  1.2830
   27MOL   H314 8686   0.484   5.820   7.079 -2.6271 -0.3421  1.9492
   27MOL   H315 8687   0.396   5.751   7.259  1.0666  0.1876 -0.3819
   27MOL   H316 8688   0.257   5.455   7.488 -0.0800  1.9258  0.6239
   27MOL   H317 8689   0.246   5.551   7.341 -0.6437 -0.1295  0.2214
   27MOL   H318 8690   0.273   5.375   7.340  2.7869  0.2578 -0.9258
   27MOL   H319 8691   0.450   5.384   7.592 -0.1721 -1.2901 -0.1859
   27MOL   H320 8692   0.600   5.457   7.548 -0.9729  2.1841  0.5728
   27MOL   H321 8693   0.544   5.317   7.466 -0.5918 -0.2297  1.2812
   27MOL   H322 8694   0.378   5.615   7.157  0.4930 -0.0888  0.5279
   28MOL     C1 8695   3.415   2.398   5.305  0.0109 -0.2143  0.0273
   28MOL     C2 8696   3.342   2.487   5.409 -0.5667 -0.6763 -0.0182
   28MOL     C3 8697   3.343   2.412   5.543  0.6797 -0.2919  0.0004
   28MOL     O4 8698   3.244   2.345   5.575 -0.3378  0.7965 -0.4875
   28MOL     N5 8699   3.443   2.423   5.630 -0.1013 -0.2175  0.1986
   28MOL     C6 8700   3.447   2.344   5.752 -0.7852  0.0306 -0.1721
   28MOL     C7 8701   3.554   2.516   5.605  0.5515 -0.4016 -0.2530
   28MOL     H8 8702   3.349   2.319   5.270 -1.3325  0.5223  0.8657
   28MOL     H9 8703   3.507   2.350   5.338 -0.2088 -2.0826 -1.9733
   28MOL    H10 8704   3.406   2.574   5.406 -0.6127 -0.6643 -1.3620
   28MOL    H11 8705   3.355   2.306   5.797 -2.4166  1.1331 -2.5064
   28MOL    H12 8706   3.508   2.254   5.741 -0.0269  0.5962 -0.6692
   28MOL    H13 8707   3.479   2.410   5.833  0.9166  0.3417 -1.0726
   28MOL    H14 8708   3.598   2.514   5.506  1.2129  0.0752  0.0347
   28MOL    H15 8709   3.640   2.478   5.660  0.9954 -3.3208 -2.8329
   28MOL    H16 8710   3.518   2.612   5.642  0.9596 -1.2630  2.5099
   28MOL    H17 8711   3.440   2.455   5.216  1.5373 -1.0464 -0.0905
   28MOL    C18 8712   3.204   2.528   5.364  0.5219 -0.0151  0.2411
   28MOL    C19 8713   3.144   2.640   5.455  0.4901 -0.0553 -0.4406
   28MOL    C20 8714   2.988   2.632   5.442 -0.2861 -0.5765  0.4158
   28MOL    O21 8715   2.944   2.666   5.333 -0.1361 -0.2099 -0.7633
   28MOL    N22 8716   2.902   2.584   5.537  0.1628 -0.1890 -0.1177
   28MOL    C23 8717   2.943   2.554   5.673  0.6925  0.4099 -0.8512
   28MOL    C24 8718   2.761   2.555   5.510  0.0401 -0.4433 -0.3004
   28MOL    H25 8719   3.209   2.565   5.261  1.3732 -0.8123 -0.0045
   28MOL    H26 8720   3.141   2.440   5.354  2.0099 -0.8188 -2.7890
   28MOL    H27 8721   3.176   2.620   5.558  0.4915  0.6897 -0.2965
   28MOL    H28 8722   3.037   2.500   5.684  0.7406  0.9248  1.5897
   28MOL    H29 8723   2.947   2.642   5.737  2.6645  0.7542 -1.4068
   28MOL    H30 8724   2.872   2.494   5.730 -1.1560  1.8272 -1.6208
   28MOL    H31 8725   2.706   2.642   5.476  1.1940 -0.8051 -3.2916
   28MOL    H32 8726   2.710   2.532   5.604 -0.7016 -1.9276 -1.0534
   28MOL    H33 8727   2.751   2.488   5.425  0.9181 -2.5975  1.2317
   28MOL    C34 8728   3.199   2.780   5.424 -0.6294 -0.4122  0.4270
   28MOL    C35 8729   3.219   2.880   5.540  0.0802 -0.4642 -0.0556
   28MOL    C36 8730   3.338   2.845   5.626 -0.5090  0.1726 -0.3941
   28MOL    O37 8731   3.323   2.772   5.723 -0.4976 -0.9658 -0.2144
   28MOL    N38 8732   3.471   2.892   5.605 -0.5112 -0.3266  1.3106
   28MOL    C39 8733   3.498   2.961   5.479 -0.2769 -0.7221 -0.2308
   28MOL    C40 8734   3.578   2.887   5.705 -0.2332  0.2727  0.1613
   28MOL    H41 8735   3.298   2.765   5.381  0.2527 -0.9583  2.5557
   28MOL    H42 8736   3.135   2.828   5.350  0.5603 -0.0686 -0.3802
   28MOL    H43 8737   3.246   2.968   5.483 -0.2061 -0.9464 -0.9552
   28MOL    H44 8738   3.442   3.054   5.467 -0.1927 -0.6623 -0.1524
   28MOL    H45 8739   3.606   2.969   5.476 -0.3296  0.2066  0.2570
   28MOL    H46 8740   3.472   2.913   5.384  0.4585 -0.2304 -0.6841
   28MOL    H47 8741   3.618   2.986   5.726 -2.8426  1.5840 -0.9328
   28MOL    H48 8742   3.668   2.834   5.671  0.5301  1.5900  0.1021
   28MOL    H49 8743   3.551   2.831   5.794 -0.8340 -0.4361 -0.4564
   28MOL    C50 8744   3.089   2.906   5.622 -0.8491  0.1166 -0.1328
   28MOL    C51 8745   3.082   3.053   5.681  0.1045 -0.2250  0.3737
   28MOL    C52 8746   2.974   3.061   5.789  0.6433  0.2151 -0.0790
   28MOL    O53 8747   2.855   3.040   5.761  0.3634  0.5977  0.4242
   28MOL    N54 8748   3.006   3.073   5.920 -0.8269 -0.3397  0.1328
   28MOL    C55 8749   2.901   3.088   6.019 -0.5230 -0.6451  1.0785
   28MOL    C56 8750   3.138   3.048   5.978 -0.0980 -0.3165  0.2161
   28MOL    H57 8751   2.992   2.882   5.578 -1.5676 -1.0417  2.0027
   28MOL    H58 8752   3.081   2.828   5.699 -1.1869 -1.1127 -1.4022
   28MOL    H59 8753   3.172   3.087   5.732  0.2887  0.5036 -0.4215
   28MOL    H60 8754   2.808   3.124   5.974 -0.3812 -0.5668  0.8491
   28MOL    H61 8755   2.878   2.987   6.055  0.2062 -0.9409  0.7327
   28MOL    H62 8756   2.947   3.155   6.091 -0.2485  2.3685 -1.8083
   28MOL    H63 8757   3.189   3.144   5.984  0.1905 -0.3906 -0.9519
   28MOL    H64 8758   3.200   2.970   5.933 -2.2769 -2.5850  1.0317
   28MOL    H65 8759   3.121   3.000   6.074 -1.2757 -0.0085  0.1652
   28MOL    C66 8760   3.053   3.147   5.553 -0.2054  0.2685  0.1941
   28MOL    C67 8761   3.147   3.267   5.547 -0.4003 -0.5998  0.2108
   28MOL    C68 8762   3.132   3.356   5.672 -0.6760  0.6911  0.0928
   28MOL    O69 8763   3.020   3.396   5.691  0.0418  0.0475  0.0224
   28MOL    N70 8764   3.244   3.384   5.744 -0.1199 -0.2132 -0.0355
   28MOL    C71 8765   3.238   3.492   5.842 -0.2813 -0.5262  0.3841
   28MOL    C72 8766   3.375   3.318   5.734 -0.2381 -0.1263 -0.2093
   28MOL    H73 8767   3.055   3.098   5.456  0.5178  1.8363 -0.5965
   28MOL    H74 8768   2.954   3.191   5.568 -0.2064  0.3059  0.0743
   28MOL    H75 8769   3.247   3.226   5.537  0.4966  1.9593 -1.7533
   28MOL    H76 8770   3.327   3.488   5.904 -0.3148  0.8477  0.5531
   28MOL    H77 8771   3.226   3.590   5.795 -0.9165 -1.1429 -0.7722
   28MOL    H78 8772   3.144   3.487   5.897 -0.1359 -0.2913  0.6540
   28MOL    H79 8773   3.435   3.323   5.824 -0.2595 -1.1280 -0.1324
   28MOL    H80 8774   3.422   3.348   5.641  1.0578 -0.6528  0.2661
   28MOL    H81 8775   3.340   3.215   5.724  1.5130 -0.4775 -3.4224
   28MOL    C82 8776   3.120   3.343   5.422  0.1593  0.0361  0.0155
   28MOL    C83 8777   3.234   3.421   5.348 -0.4730 -0.4201 -0.1845
   28MOL    C84 8778   3.344   3.321   5.301  0.1962  0.4336 -0.2089
   28MOL    O85 8779   3.427   3.274   5.382  0.2011  0.0780 -0.5685
   28MOL    N86 8780   3.346   3.270   5.174  0.9844 -0.2001 -0.4183
   28MOL    C87 8781   3.462   3.195   5.124  0.3457 -0.3236  0.6227
   28MOL    C88 8782   3.232   3.276   5.082  0.3200 -0.4543 -0.3261
   28MOL    H89 8783   3.088   3.265   5.353 -1.6154  0.4084  0.3848
   28MOL    H90 8784   3.032   3.407   5.433 -0.8190 -0.9746 -1.6347
   28MOL    H91 8785   3.189   3.476   5.266  0.1148  0.7894  0.3020
   28MOL    H92 8786   3.451   3.089   5.102  0.4140  0.4569 -3.7358
   28MOL    H93 8787   3.493   3.235   5.027 -0.7583 -0.8693  0.0437
   28MOL    H94 8788   3.552   3.218   5.182 -0.1568 -0.4823  1.4573
   28MOL    H95 8789   3.253   3.209   4.998 -1.2371  0.0557 -1.1449
   28MOL    H96 8790   3.206   3.378   5.051  0.8182 -0.3272 -0.3262
   28MOL    H97 8791   3.134   3.255   5.124  0.5574  2.6197  1.9248
   28MOL    C98 8792   3.298   3.536   5.428  0.7209  0.0106  0.3337
   28MOL    C99 8793   3.365   3.656   5.357 -1.1123  0.3695  0.5070
   28MOL   C100 8794   3.513   3.639   5.306 -0.4335  0.4961 -0.7367
   28MOL   O101 8795   3.581   3.568   5.377  1.0520  0.2186 -0.1285
   28MOL   N102 8796   3.556   3.689   5.188 -0.6699 -0.2873  0.6916
   28MOL   C103 8797   3.667   3.615   5.121 -0.1137  0.1352  0.0175
   28MOL   C104 8798   3.486   3.791   5.104 -0.1048  0.3826 -0.1329
   28MOL   H105 8799   3.210   3.570   5.482  0.0440  0.7072 -1.1873
   28MOL   H106 8800   3.357   3.487   5.505  1.7923 -0.7556 -0.9477
   28MOL   H107 8801   3.307   3.670   5.266 -1.2287 -0.5975  0.4350
   28MOL   H108 8802   3.631   3.516   5.093  0.3636 -0.5428  1.7782
   28MOL   H109 8803   3.716   3.666   5.038 -0.8224  1.6139  0.4892
   28MOL   H110 8804   3.749   3.581   5.185  0.1376 -0.0336 -0.3888
   28MOL   H111 8805   3.560   3.867   5.080 -0.4545  0.3833 -1.2124
   28MOL   H112 8806   3.405   3.834   5.163 -0.2318 -0.2766  0.1842
   28MOL   H113 8807   3.460   3.749   5.007  1.5731  1.1184 -0.9252
   28MOL   C114 8808   3.357   3.792   5.438  0.4195  0.4344  0.0186
   28MOL   C115 8809   3.480   3.879   5.481  0.0047  0.3519 -0.5659
   28MOL   C116 8810   3.548   3.807   5.599 -0.4206 -0.6500 -0.3369
   28MOL   O117 8811   3.479   3.747   5.680  0.0072 -0.3772  0.1760
   28MOL   N118 8812   3.688   3.812   5.601  0.5870 -0.2575  0.5448
   28MOL   C119 8813   3.780   3.885   5.508  0.3381 -0.4552  0.6033
   28MOL   C120 8814   3.761   3.731   5.706 -0.1287 -0.5091  0.2235
   28MOL   H121 8815   3.308   3.849   5.358 -1.8759 -2.5941 -0.8495
   28MOL   H122 8816   3.284   3.791   5.518 -1.5574  5.2490 -1.5506
   28MOL   H123 8817   3.545   3.887   5.394  0.8420 -0.2597  0.0030
   28MOL   H124 8818   3.751   3.854   5.408  1.1687 -0.8247  0.4765
   28MOL   H125 8819   3.764   3.991   5.525 -0.6924 -0.7539  1.6029
   28MOL   H126 8820   3.885   3.858   5.517  0.3271 -0.0085  2.2818
   28MOL   H127 8821   3.720   3.763   5.802  0.2995 -0.1932  0.3013
   28MOL   H128 8822   3.869   3.741   5.715 -0.2914  1.4076  0.3498
   28MOL   H129 8823   3.719   3.632   5.687 -0.1074 -0.3335 -0.7647
   28MOL   C130 8824   3.442   4.019   5.524  0.1686 -0.1116  0.1358
   28MOL   C131 8825   3.368   4.113   5.416  0.0226 -0.2220  0.3382
   28MOL   C132 8826   3.457   4.125   5.284  0.7749 -0.0945 -0.0082
   28MOL   O133 8827   3.580   4.129   5.298 -0.5612 -0.2636 -0.0365
   28MOL   N134 8828   3.397   4.115   5.162  0.4855 -0.4950  0.7512
   28MOL   C135 8829   3.252   4.088   5.132 -0.1416  0.1325 -0.1423
   28MOL   C136 8830   3.480   4.130   5.039  0.6592  0.0264  0.0679
   28MOL   H137 8831   3.379   4.015   5.613 -0.8037 -0.5041 -0.5511
   28MOL   H138 8832   3.525   4.079   5.560  0.1583 -0.2492  0.3891
   28MOL   H139 8833   3.274   4.064   5.389 -0.1998  0.0710  0.5725
   28MOL   H140 8834   3.193   4.135   5.210  0.4145 -0.0935  0.4129
   28MOL   H141 8835   3.215   4.109   5.031 -0.8239 -0.3376  0.0010
   28MOL   H142 8836   3.242   3.979   5.138  1.4521 -0.0843 -1.1539
   28MOL   H143 8837   3.588   4.124   5.053  0.4620  2.0639  2.8318
   28MOL   H144 8838   3.455   4.233   5.014 -0.6195 -0.1408  0.6278
   28MOL   H145 8839   3.442   4.059   4.966 -2.8220 -0.4613  2.2523
   28MOL   C146 8840   3.345   4.255   5.478 -0.1518  0.1941  0.0423
   28MOL   C147 8841   3.228   4.345   5.417  0.1167  0.0644 -0.5192
   28MOL   C148 8842   3.255   4.488   5.455  0.0505 -0.3849  0.0197
   28MOL   O149 8843   3.247   4.513   5.579  0.2649  0.2340  0.2091
   28MOL   N150 8844   3.279   4.589   5.366  0.6897 -0.2216  0.2212
   28MOL   C151 8845   3.366   4.564   5.254  0.3051  0.2229  0.4559
   28MOL   C152 8846   3.226   4.726   5.397 -0.1209  0.0645 -0.3077
   28MOL   H153 8847   3.327   4.239   5.584  0.6367 -0.2223  0.1188
   28MOL   H154 8848   3.442   4.304   5.476  1.0428 -2.1339 -2.0552
   28MOL   H155 8849   3.236   4.338   5.308 -1.1176 -2.7027 -0.4711
   28MOL   H156 8850   3.399   4.650   5.196  2.0823 -1.6760 -1.4764
   28MOL   H157 8851   3.466   4.535   5.286 -0.7342 -0.3363  3.3109
   28MOL   H158 8852   3.333   4.496   5.175  0.3688  0.9720 -0.2284
   28MOL   H159 8853   3.151   4.718   5.476 -1.6933 -0.7819 -1.8446
   28MOL   H160 8854   3.169   4.777   5.319 -1.8622  1.2835  1.6944
   28MOL   H161 8855   3.312   4.785   5.430  1.0267 -0.8549 -1.5926
   28MOL   C162 8856   3.094   4.287   5.449 -0.2266 -0.1711 -0.7785
   28MOL   C163 8857   2.972   4.371   5.400 -0.0603 -0.3853  0.2730
   28MOL   C164 8858   2.847   4.322   5.478  0.2398  0.0394 -0.1982
   28MOL   O165 8859   2.771   4.244   5.415 -0.0481 -0.0137 -0.2154
   28MOL   N166 8860   2.816   4.372   5.599  0.1890 -0.7227  0.6295
   28MOL   C167 8861   2.694   4.323   5.670 -0.1059  0.0095  0.1142
   28MOL   C168 8862   2.906   4.465   5.670 -0.3765 -0.8681  0.3591
   28MOL   H169 8863   3.100   4.192   5.394  1.9357 -0.6787  0.2856
   28MOL   H170 8864   3.102   4.256   5.553  0.7086 -1.4379 -1.2042
   28MOL   H171 8865   2.991   4.475   5.426  0.4980 -0.0717 -1.3458
   28MOL   H172 8866   2.615   4.311   5.597 -0.2979 -1.7167  0.5968
   28MOL   H173 8867   2.723   4.225   5.708  2.6959  0.1848 -1.3852
   28MOL   H174 8868   2.668   4.382   5.758 -1.4076 -2.8110  1.6839
   28MOL   H175 8869   3.009   4.428   5.660 -0.2194 -0.2617 -0.2586
   28MOL   H176 8870   2.878   4.458   5.775  0.7178  1.8006  0.8682
   28MOL   H177 8871   2.902   4.570   5.645  0.9004 -0.8956  0.0242
   28MOL   C178 8872   2.960   4.377   5.240 -0.5279  0.0453 -0.7161
   28MOL   C179 8873   2.860   4.474   5.181  0.1039  0.3034  0.3241
   28MOL   C180 8874   2.845   4.448   5.026 -0.5353  0.1201  0.0679
   28MOL   O181 8875   2.941   4.488   4.954 -0.0021  0.4161  0.3780
   28MOL   N182 8876   2.727   4.410   4.967 -0.5297  0.1548 -0.0090
   28MOL   C183 8877   2.618   4.334   5.033  0.3072  0.1130 -0.1445
   28MOL   C184 8878   2.719   4.436   4.825  0.3996 -0.8053 -0.1130
   28MOL   H185 8879   3.058   4.400   5.198 -0.5035  0.2229 -0.5611
   28MOL   H186 8880   2.939   4.276   5.204  0.5223 -0.2859 -0.4272
   28MOL   H187 8881   2.766   4.451   5.231  0.4773  0.8778  1.2977
   28MOL   H188 8882   2.571   4.394   5.111 -0.9926  1.8226 -2.1785
   28MOL   H189 8883   2.539   4.304   4.964 -0.3588  1.5605 -0.0230
   28MOL   H190 8884   2.652   4.243   5.083 -3.9210 -0.7847  1.3154
   28MOL   H191 8885   2.674   4.530   4.795  1.1956 -0.2082  0.5434
   28MOL   H192 8886   2.664   4.346   4.795  0.1903 -0.6739 -0.1256
   28MOL   H193 8887   2.812   4.424   4.771 -0.8035 -0.2407 -2.3689
   28MOL   C194 8888   2.894   4.621   5.218 -0.5296 -0.0411 -0.1809
   28MOL   C195 8889   2.790   4.727   5.172 -0.2768  1.0487 -0.1451
   28MOL   C196 8890   2.868   4.860   5.160 -1.0886 -0.5609 -0.2860
   28MOL   O197 8891   2.910   4.917   5.258  0.0978  0.5826  0.0734
   28MOL   N198 8892   2.886   4.922   5.044  0.5457  0.4268 -0.4948
   28MOL   C199 8893   2.966   5.048   5.027 -0.2737  0.7179 -0.2147
   28MOL   C200 8894   2.835   4.864   4.915 -0.1346 -0.1537 -0.8099
   28MOL   H201 8895   2.915   4.640   5.323 -0.6653 -0.9376  0.0180
   28MOL   H202 8896   2.987   4.645   5.168  0.1261  0.7174  1.3687
   28MOL   H203 8897   2.768   4.696   5.070  1.6015 -1.7128  0.2263
   28MOL   H204 8898   3.021   5.053   4.933  0.2787  1.2676  0.1283
   28MOL   H205 8899   2.907   5.140   5.027  1.4757  1.8775 -1.5543
   28MOL   H206 8900   3.048   5.047   5.099  1.4898 -0.6896 -2.1908
   28MOL   H207 8901   2.727   4.849   4.916  0.1634 -2.4304  0.5487
   28MOL   H208 8902   2.891   4.771   4.901  0.1179 -0.0736 -0.3450
   28MOL   H209 8903   2.859   4.934   4.835  1.2683  0.1698 -0.1284
   28MOL   C210 8904   2.674   4.740   5.272 -0.3455 -0.0445 -0.2540
   28MOL   C211 8905   2.547   4.804   5.218 -0.0589  1.1295  0.4340
   28MOL   C212 8906   2.457   4.880   5.324  0.4054 -0.1429  0.0354
   28MOL   O213 8907   2.372   4.819   5.395  0.2793 -0.3677  0.5829
   28MOL   N214 8908   2.479   5.014   5.338 -0.0692  0.7840  0.0516
   28MOL   C215 8909   2.412   5.096   5.433 -0.5041 -0.3528  0.2978
   28MOL   C216 8910   2.589   5.093   5.271 -0.0127  0.2418 -0.6932
   28MOL   H217 8911   2.647   4.641   5.309  0.0202 -0.3554 -0.7893
   28MOL   H218 8912   2.716   4.788   5.360  1.9696 -2.4988  0.0636
   28MOL   H219 8913   2.577   4.880   5.145  0.1519 -1.2171 -1.9966
   28MOL   H220 8914   2.470   5.124   5.521  1.2128 -0.3115 -0.8404
   28MOL   H221 8915   2.375   5.188   5.386 -1.1808 -1.0121 -0.4724
   28MOL   H222 8916   2.327   5.038   5.468 -1.0638 -0.2750 -0.9068
   28MOL   H223 8917   2.615   5.190   5.314 -0.0933  0.8644 -2.0278
   28MOL   H224 8918   2.561   5.112   5.168 -1.1843  0.2929 -0.3820
   28MOL   H225 8919   2.680   5.034   5.272  0.0295  0.2583  2.1302
   28MOL   C226 8920   2.471   4.701   5.136  0.1737  0.2714  0.2336
   28MOL   C227 8921   2.352   4.740   5.054 -0.7135  0.1887 -0.3955
   28MOL   C228 8922   2.267   4.620   5.017  0.6762  0.8093 -0.9378
   28MOL   O229 8923   2.301   4.555   4.919 -0.1736 -0.2057  0.2676
   28MOL   N230 8924   2.163   4.579   5.095 -0.4238 -0.1848  1.0870
   28MOL   C231 8925   2.134   4.633   5.231  0.0282 -0.0145 -0.0573
   28MOL   C232 8926   2.089   4.453   5.061 -0.2951 -0.1967  0.4418
   28MOL   H233 8927   2.532   4.639   5.070 -0.8587 -2.4905  1.7824
   28MOL   H234 8928   2.444   4.628   5.212  0.4182 -0.2369 -0.1681
   28MOL   H235 8929   2.287   4.807   5.110  2.4002  3.2277 -0.2392
   28MOL   H236 8930   2.222   4.627   5.295 -1.1675 -4.2924  1.3859
   28MOL   H237 8931   2.108   4.738   5.224 -2.5742 -0.6646 -0.5885
   28MOL   H238 8932   2.058   4.576   5.285  0.7882 -0.2740  0.7516
   28MOL   H239 8933   2.062   4.456   4.956  0.5196  2.6143  0.2891
   28MOL   H240 8934   1.990   4.448   5.105  0.1008  2.1435  1.6961
   28MOL   H241 8935   2.146   4.362   5.082 -2.6443 -2.1230 -1.1950
   28MOL   C242 8936   2.394   4.830   4.934 -0.1017  0.3908 -0.0461
   28MOL   C243 8937   2.283   4.903   4.856  0.3327 -0.6970 -0.3443
   28MOL   C244 8938   2.332   4.957   4.715 -0.2215 -0.5359  0.0890
   28MOL   O245 8939   2.402   5.063   4.718  0.1346 -0.0162  0.3213
   28MOL   N246 8940   2.300   4.895   4.601  0.7403  0.2645 -0.3051
   28MOL   C247 8941   2.183   4.803   4.594  0.0133  0.4122  0.0070
   28MOL   C248 8942   2.342   4.944   4.470  0.1546  0.0678 -0.1436
   28MOL   H249 8943   2.464   4.903   4.975 -0.1599  1.4309 -1.7399
   28MOL   H250 8944   2.456   4.776   4.862 -1.0634 -0.9456  0.1169
   28MOL   H251 8945   2.204   4.831   4.835 -0.0323 -0.6715  0.9067
   28MOL   H252 8946   2.204   4.718   4.659  2.2163  0.1984 -0.9151
   28MOL   H253 8947   2.097   4.863   4.622  0.9376  1.3158  0.9432
   28MOL   H254 8948   2.173   4.762   4.493  3.1125 -0.5139  0.0151
   28MOL   H255 8949   2.322   4.874   4.390 -1.3880  0.5910 -0.2289
   28MOL   H256 8950   2.448   4.970   4.470 -0.3555  2.2269 -1.4281
   28MOL   H257 8951   2.298   5.039   4.441 -0.5472  0.7678  2.9996
   28MOL   C258 8952   2.213   5.006   4.946 -0.1389 -0.7944  0.4239
   28MOL   C259 8953   2.075   4.966   5.011  0.2972  0.0421 -0.3436
   28MOL   C260 8954   1.955   4.994   4.908  0.2727 -0.5951 -0.2135
   28MOL   O261 8955   1.939   5.114   4.879  0.1926 -0.0332 -0.1456
   28MOL   N262 8956   1.887   4.893   4.841  0.1763  0.4494 -0.0400
   28MOL   C263 8957   1.778   4.916   4.748 -0.1766 -0.2887  0.3169
   28MOL   C264 8958   1.906   4.754   4.881  0.2794 -0.4064  0.0407
   28MOL   H265 8959   2.286   5.026   5.024  1.0430  2.0464 -1.3211
   28MOL   H266 8960   2.205   5.105   4.899  3.5316 -0.2594  0.7738
   28MOL   H267 8961   2.083   4.858   5.024 -1.8119 -0.0954  0.0049
   28MOL   H268 8962   1.798   4.989   4.670  0.4516  1.4258  2.0185
   28MOL   H269 8963   1.754   4.822   4.699 -1.2682  0.3277 -0.3453
   28MOL   H270 8964   1.694   4.922   4.818  0.1512 -1.2526  0.8032
   28MOL   H271 8965   1.847   4.687   4.818  0.4483 -1.3911  0.9119
   28MOL   H272 8966   1.871   4.750   4.984  0.7626  1.3002  0.2859
   28MOL   H273 8967   2.009   4.722   4.867  0.7722  0.2989  1.9272
   28MOL   C274 8968   2.058   5.039   5.143  0.2824  0.1213 -0.2818
   28MOL   C275 8969   1.935   4.993   5.233  0.2860 -0.9846 -0.3701
   28MOL   C276 8970   1.826   5.105   5.221  0.0976  0.0404 -0.1761
   28MOL   O277 8971   1.858   5.222   5.252 -0.5481 -0.5044  0.0063
   28MOL   N278 8972   1.704   5.078   5.162  0.0842 -0.6051 -0.1886
   28MOL   C279 8973   1.668   4.942   5.126 -0.0091  0.1073 -0.1382
   28MOL   C280 8974   1.592   5.174   5.162  0.7355  0.2460  0.0849
   28MOL   H281 8975   2.155   5.027   5.193  0.3785  0.6263 -0.3464
   28MOL   H282 8976   2.050   5.146   5.130  1.2994  0.5123  1.9555
   28MOL   H283 8977   1.891   4.899   5.200  0.7098 -0.1710 -3.3643
   28MOL   H284 8978   1.569   4.936   5.079  0.2647  3.0549 -1.1660
   28MOL   H285 8979   1.742   4.907   5.053  0.0199 -1.7767  0.7482
   28MOL   H286 8980   1.669   4.878   5.214  0.3122  1.1662  0.6338
   28MOL   H287 8981   1.519   5.155   5.083  0.1704  2.4840  0.0512
   28MOL   H288 8982   1.629   5.268   5.121 -1.3906  0.9713 -0.2401
   28MOL   H289 8983   1.541   5.199   5.255  0.1181  1.2698 -0.5196
   28MOL   C290 8984   1.994   4.984   5.378 -0.1603  0.5788  0.0608
   28MOL   C291 8985   1.906   4.911   5.485 -0.1723 -0.5106  0.5284
   28MOL   C292 8986   1.879   4.768   5.454 -0.1059 -0.1940 -0.6994
   28MOL   O293 8987   1.798   4.748   5.367 -0.3994 -0.3010  0.3653
   28MOL   N294 8988   1.936   4.665   5.520 -0.1088  0.3167  0.2113
   28MOL   C295 8989   1.880   4.527   5.519  0.0202  0.3718  0.4103
   28MOL   C296 8990   2.059   4.685   5.596 -0.7238  0.5742 -0.1428
   28MOL   H297 8991   2.088   4.930   5.373 -0.0595  0.7342  0.2375
   28MOL   H298 8992   2.012   5.088   5.404  0.4697  0.9487 -1.8028
   28MOL   H299 8993   1.961   4.919   5.579 -0.2944  0.4059  0.5198
   28MOL   H300 8994   1.928   4.475   5.437  0.1616  1.8510 -0.4571
   28MOL   H301 8995   1.921   4.479   5.608 -0.7683 -0.1618  0.4879
   28MOL   H302 8996   1.772   4.522   5.531 -0.0521  2.3405  0.8601
   28MOL   H303 8997   2.104   4.592   5.631  2.1482  1.3127 -1.7204
   28MOL   H304 8998   2.047   4.741   5.689 -0.5579 -0.5010  0.5271
   28MOL   H305 8999   2.124   4.739   5.527 -1.8095 -0.7445 -2.2757
   28MOL   C306 9000   1.782   4.988   5.526  0.3649 -0.4657  0.2260
   28MOL   C307 9001   1.700   4.937   5.640 -0.1313  0.0260 -0.2656
   28MOL   C308 9002   1.564   4.874   5.603  0.2142 -0.3058  0.1823
   28MOL   O309 9003   1.486   4.941   5.533 -0.2967  0.3995 -0.3455
   28MOL   N310 9004   1.534   4.745   5.636  0.2794 -0.0974 -0.5257
   28MOL   C311 9005   1.613   4.663   5.732  0.1705 -0.1233 -0.0175
   28MOL   C312 9006   1.416   4.678   5.582 -0.1440 -0.1864  0.4791
   28MOL   H313 9007   1.815   5.085   5.564 -0.9735 -0.0114  0.2607
   28MOL   H314 9008   1.714   5.001   5.441  1.7367  0.9191 -0.6809
   28MOL   H315 9009   1.762   4.875   5.705 -1.5904  0.2768  1.3958
   28MOL   H316 9010   1.588   4.678   5.837  0.7691  1.4540 -0.0864
   28MOL   H317 9011   1.582   4.559   5.724 -2.7121  0.5165  2.1699
   28MOL   H318 9012   1.721   4.675   5.724  0.1880  0.6906  1.3375
   28MOL   H319 9013   1.449   4.644   5.483  0.7078  1.7225  0.0790
   28MOL   H320 9014   1.330   4.744   5.566  2.8716  4.0678  0.8941
   28MOL   H321 9015   1.374   4.591   5.631 -0.6976 -0.2436 -0.0841
   28MOL   H322 9016   1.673   5.020   5.705  2.0564  0.1203  0.5841
   29MOL     C1 9017   5.107   6.244   7.548  0.0033 -0.1246  0.1304
   29MOL     C2 9018   5.050   6.136   7.454  0.1338 -0.3327  0.4926
   29MOL     C3 9019   5.129   6.006   7.454 -0.8703  0.0888  0.1703
   29MOL     O4 9020   5.251   6.007   7.467 -0.2150 -0.3592 -0.0338
   29MOL     N5 9021   5.064   5.889   7.437  0.4094  0.1606  0.0708
   29MOL     C6 9022   4.915   5.879   7.409 -0.0642 -0.7788 -0.2909
   29MOL     C7 9023   5.125   5.756   7.437  0.6788  0.1423 -0.0603
   29MOL     H8 9024   5.116   6.217   7.654  0.5844 -0.7314 -0.0679
   29MOL     H9 9025   5.043   6.332   7.543  2.3106  1.7919  2.7956
   29MOL    H10 9026   4.947   6.113   7.483  0.8481 -2.3791  1.5018
   29MOL    H11 9027   4.885   5.933   7.319  1.2935  2.0796  0.9037
   29MOL    H12 9028   4.882   5.775   7.408  0.0482 -0.8370  1.2004
   29MOL    H13 9029   4.853   5.925   7.486  0.2163 -0.5972 -0.1737
   29MOL    H14 9030   5.232   5.754   7.416  0.8641 -1.2935  0.9161
   29MOL    H15 9031   5.069   5.683   7.378  0.7362 -0.8906  1.1465
   29MOL    H16 9032   5.104   5.710   7.534 -2.7504  0.3006 -0.6777
   29MOL    H17 9033   5.202   6.288   7.517 -0.9735 -0.4391 -3.4162
   29MOL    C18 9034   5.056   6.201   7.310  0.2461 -0.1824 -1.1856
   29MOL    C19 9035   4.962   6.324   7.284  0.0769 -0.1646 -0.0853
   29MOL    C20 9036   4.818   6.270   7.258 -0.1565 -0.2346  0.2395
   29MOL    O21 9037   4.808   6.170   7.196 -0.2727 -0.1661 -0.3287
   29MOL    N22 9038   4.712   6.343   7.299 -0.4436  0.3155 -0.1172
   29MOL    C23 9039   4.574   6.310   7.267  0.6571  0.1565  0.0985
   29MOL    C24 9040   4.729   6.439   7.411 -0.1036  0.6388  0.2022
   29MOL    H25 9041   5.158   6.239   7.307 -0.6909  2.5165  0.1328
   29MOL    H26 9042   5.043   6.126   7.231 -0.4851 -1.2981 -0.0377
   29MOL    H27 9043   4.967   6.388   7.372 -0.6789  1.6334 -1.3441
   29MOL    H28 9044   4.543   6.206   7.275  0.7055  0.0946 -0.4797
   29MOL    H29 9045   4.502   6.369   7.324 -0.7999 -0.1928 -1.3457
   29MOL    H30 9046   4.560   6.341   7.164  0.9712  1.6536  0.4881
   29MOL    H31 9047   4.777   6.392   7.497 -1.6847 -0.1268  0.6874
   29MOL    H32 9048   4.636   6.490   7.440  1.0044  3.5480 -1.1501
   29MOL    H33 9049   4.796   6.518   7.376  0.2096  0.4840  0.4503
   29MOL    C34 9050   5.013   6.396   7.159  0.2003  0.4705  0.2602
   29MOL    C35 9051   5.144   6.474   7.169  0.2357  0.0730  0.1899
   29MOL    C36 9052   5.134   6.592   7.270 -0.4129 -0.2701  0.0123
   29MOL    O37 9053   5.018   6.645   7.281 -0.1834  0.3716  0.1414
   29MOL    N38 9054   5.230   6.614   7.357 -0.2487 -0.3621 -0.4472
   29MOL    C39 9055   5.349   6.539   7.375 -0.2246  0.7299 -0.1929
   29MOL    C40 9056   5.208   6.723   7.454 -0.2818 -0.7866  0.1766
   29MOL    H41 9057   5.041   6.314   7.092 -2.7662 -1.4119  1.2249
   29MOL    H42 9058   4.929   6.456   7.124  0.7729  0.1934 -1.6576
   29MOL    H43 9059   5.221   6.403   7.198  0.1736 -0.4699 -0.9303
   29MOL    H44 9060   5.387   6.559   7.475 -0.9695  1.6432 -0.0774
   29MOL    H45 9061   5.334   6.432   7.375 -1.1681  0.8481  1.6732
   29MOL    H46 9062   5.418   6.573   7.297 -1.0445  0.8696 -0.8687
   29MOL    H47 9063   5.121   6.710   7.519 -1.3185  1.8795 -0.6336
   29MOL    H48 9064   5.190   6.812   7.395 -0.5248 -0.5626  0.5878
   29MOL    H49 9065   5.292   6.742   7.521 -1.0429 -0.6310  1.1143
   29MOL    C50 9066   5.186   6.540   7.031  0.3908  0.3314 -0.1592
   29MOL    C51 9067   5.302   6.463   6.959 -0.0153  0.3521 -0.5582
   29MOL    C52 9068   5.434   6.499   7.027 -0.2521  0.2080  0.0119
   29MOL    O53 9069   5.448   6.620   7.045  0.3119 -0.0659  0.1337
   29MOL    N54 9070   5.529   6.410   7.054 -0.0908 -0.1277  0.0317
   29MOL    C55 9071   5.661   6.451   7.089  0.5766 -0.3986 -0.2369
   29MOL    C56 9072   5.502   6.265   7.062 -0.1106  0.0682 -0.1046
   29MOL    H57 9073   5.103   6.539   6.959  0.8052  2.2559 -0.6858
   29MOL    H58 9074   5.192   6.648   7.039 -0.6075  0.3990 -0.2865
   29MOL    H59 9075   5.288   6.357   6.979  2.3172 -0.2530 -1.9750
   29MOL    H60 9076   5.717   6.363   7.121  0.5824 -0.2254  0.2423
   29MOL    H61 9077   5.706   6.508   7.008  0.5784  1.0529  0.7618
   29MOL    H62 9078   5.669   6.519   7.174 -1.7516 -0.8091  0.3334
   29MOL    H63 9079   5.486   6.220   6.963 -0.4268  0.2954 -0.1536
   29MOL    H64 9080   5.430   6.238   7.139 -0.5872 -1.4342 -1.0471
   29MOL    H65 9081   5.589   6.203   7.086 -0.9985 -0.7558  1.0146
   29MOL    C66 9082   5.297   6.492   6.805  0.7658 -0.1326  0.3331
   29MOL    C67 9083   5.238   6.388   6.720  0.0764  0.8106 -0.7204
   29MOL    C68 9084   5.318   6.256   6.727 -0.0454 -0.3719 -0.4474
   29MOL    O69 9085   5.442   6.258   6.710 -0.2898  0.2191 -0.0758
   29MOL    N70 9086   5.251   6.140   6.759 -0.7429 -0.7125 -0.9735
   29MOL    C71 9087   5.123   6.125   6.834 -0.4726 -0.0331  0.4042
   29MOL    C72 9088   5.325   6.014   6.762 -0.8783 -0.0703 -0.4050
   29MOL    H73 9089   5.240   6.583   6.785  1.3252  0.0904 -0.2759
   29MOL    H74 9090   5.397   6.522   6.773 -0.4875  1.1236 -2.5922
   29MOL    H75 9091   5.137   6.362   6.750  0.2807  1.0767  0.2092
   29MOL    H76 9092   5.101   6.019   6.848 -0.1178 -0.4742 -2.1147
   29MOL    H77 9093   5.121   6.167   6.934 -1.1850  0.9789 -0.0269
   29MOL    H78 9094   5.049   6.176   6.772 -1.6138 -0.2303  1.5930
   29MOL    H79 9095   5.366   5.995   6.862  0.6906  0.8874 -0.8454
   29MOL    H80 9096   5.410   6.027   6.695  0.9530 -0.4573  1.7669
   29MOL    H81 9097   5.265   5.930   6.728 -0.8040 -0.3980  0.2586
   29MOL    C82 9098   5.236   6.447   6.582  0.3321 -0.2244 -0.5445
   29MOL    C83 9099   5.166   6.356   6.473 -0.3437  0.5937 -0.3135
   29MOL    C84 9100   5.178   6.421   6.328 -0.7930 -0.8843 -0.7895
   29MOL    O85 9101   5.189   6.544   6.316  0.3344  0.9638 -0.1853
   29MOL    N86 9102   5.171   6.338   6.225  0.2404  0.1501 -0.1441
   29MOL    C87 9103   5.164   6.396   6.092 -0.8018 -0.1006 -0.4689
   29MOL    C88 9104   5.171   6.190   6.213  0.0662 -0.6665  0.2462
   29MOL    H89 9105   5.180   6.541   6.577 -3.0855 -2.1445 -0.0605
   29MOL    H90 9106   5.333   6.475   6.541  0.7390  0.9566  1.1818
   29MOL    H91 9107   5.215   6.259   6.478  2.0498  1.8353  1.1529
   29MOL    H92 9108   5.153   6.504   6.092  0.4221  0.0407  0.7190
   29MOL    H93 9109   5.247   6.368   6.027 -0.9610 -2.4505  0.2762
   29MOL    H94 9110   5.077   6.350   6.046 -0.5665  1.1439 -2.1831
   29MOL    H95 9111   5.148   6.131   6.302  1.0117  2.1928  2.4853
   29MOL    H96 9112   5.273   6.163   6.186  0.1843  0.9216 -0.9570
   29MOL    H97 9113   5.092   6.156   6.146 -0.7229 -1.1544  1.4081
   29MOL    C98 9114   5.014   6.330   6.497 -0.5611 -0.4241  0.1816
   29MOL    C99 9115   4.908   6.450   6.503 -0.1127 -0.5169  0.1250
   29MOL   C100 9116   4.906   6.526   6.643 -0.1161  0.3699  0.5210
   29MOL   O101 9117   4.885   6.461   6.743 -0.2872  0.2980 -0.1604
   29MOL   N102 9118   4.924   6.660   6.648  0.2544 -0.1171  0.6249
   29MOL   C103 9119   4.900   6.738   6.771  0.1383  0.7306 -0.3660
   29MOL   C104 9120   4.932   6.747   6.529  0.0168  0.0344 -0.3113
   29MOL   H105 9121   4.981   6.250   6.430 -0.0773  0.7190 -1.4465
   29MOL   H106 9122   4.992   6.273   6.588 -0.7015  0.7529  0.8881
   29MOL   H107 9123   4.934   6.515   6.419 -1.5068 -2.1424 -1.6101
   29MOL   H108 9124   4.971   6.711   6.849  0.0722  2.3698  0.2785
   29MOL   H109 9125   4.905   6.846   6.772 -0.6072  0.7582  0.9399
   29MOL   H110 9126   4.801   6.707   6.802  0.6369 -1.5570 -0.9495
   29MOL   H111 9127   5.031   6.734   6.486 -1.9081 -0.9397 -4.6750
   29MOL   H112 9128   4.930   6.853   6.555  4.8763  0.5412 -1.5589
   29MOL   H113 9129   4.858   6.727   6.451 -1.3520  0.0680  0.9602
   29MOL   C114 9130   4.766   6.389   6.477  0.4487  0.3321  0.4449
   29MOL   C115 9131   4.715   6.384   6.324  0.0341  0.3720  0.2135
   29MOL   C116 9132   4.675   6.529   6.273 -0.7048  0.6971  0.0206
   29MOL   O117 9133   4.575   6.581   6.320  0.0787 -0.0649  0.1846
   29MOL   N118 9134   4.750   6.598   6.182  0.2014  0.5012  0.5614
   29MOL   C119 9135   4.871   6.550   6.117  0.4904 -0.2019 -0.1207
   29MOL   C120 9136   4.718   6.742   6.153  0.2040  0.5220 -0.5978
   29MOL   H121 9137   4.765   6.289   6.522  2.0017 -0.8268 -1.9443
   29MOL   H122 9138   4.689   6.444   6.531 -0.1243 -1.1877  1.2267
   29MOL   H123 9139   4.786   6.335   6.258  0.2370  0.6149  0.2513
   29MOL   H124 9140   4.847   6.459   6.061 -2.7146  0.6502 -0.2210
   29MOL   H125 9141   4.920   6.622   6.050  0.8273 -1.0845 -0.8427
   29MOL   H126 9142   4.946   6.532   6.194 -0.3635 -1.6234  0.3918
   29MOL   H127 9143   4.812   6.791   6.127  0.1584  1.0635  0.2229
   29MOL   H128 9144   4.674   6.791   6.240  0.5295  0.3833 -0.3560
   29MOL   H129 9145   4.654   6.755   6.065  0.1719  0.5713 -0.5692
   29MOL   C130 9146   4.593   6.297   6.319  0.2202  0.3293  0.7643
   29MOL   C131 9147   4.600   6.146   6.330  0.0209  0.5902 -0.4980
   29MOL   C132 9148   4.608   6.083   6.194  0.2755 -0.1360  0.0842
   29MOL   O133 9149   4.505   6.102   6.124 -0.3738  0.6054  0.0233
   29MOL   N134 9150   4.716   6.024   6.146  0.3347  0.4172  0.5827
   29MOL   C135 9151   4.845   6.020   6.214 -0.1189 -0.0269  0.1901
   29MOL   C136 9152   4.724   5.960   6.020  0.5224 -0.6410 -0.9638
   29MOL   H137 9153   4.532   6.349   6.392  1.7586 -1.3279  3.2958
   29MOL   H138 9154   4.534   6.329   6.233 -1.1022 -1.1602  1.0926
   29MOL   H139 9155   4.693   6.113   6.377  0.3846 -1.2028 -2.3763
   29MOL   H140 9156   4.836   5.950   6.298 -1.2145  0.5808  0.5956
   29MOL   H141 9157   4.930   5.993   6.152  0.5353 -0.1097  1.1076
   29MOL   H142 9158   4.870   6.120   6.250 -1.2122  0.9046 -1.5984
   29MOL   H143 9159   4.639   5.897   5.997  0.6533 -0.3445 -2.2983
   29MOL   H144 9160   4.804   5.885   6.019 -0.4283 -1.7015  1.1244
   29MOL   H145 9161   4.744   6.028   5.937 -1.9036  0.2113 -0.8864
   29MOL   C146 9162   4.487   6.096   6.424 -0.1842 -0.2644  0.5478
   29MOL   C147 9163   4.462   5.941   6.439  0.0581 -0.4209  0.1656
   29MOL   C148 9164   4.327   5.928   6.518 -0.3784 -0.1598 -0.0062
   29MOL   O149 9165   4.313   5.984   6.627  0.4073 -0.3336  0.5911
   29MOL   N150 9166   4.221   5.869   6.462  0.3974  0.3652  0.4148
   29MOL   C151 9167   4.217   5.813   6.324  0.0041  0.0181 -0.3931
   29MOL   C152 9168   4.094   5.844   6.528 -0.6750  0.5841 -0.1604
   29MOL   H153 9169   4.521   6.123   6.525  0.0903 -0.1643  0.4297
   29MOL   H154 9170   4.393   6.147   6.403 -0.4106 -0.9687 -0.1585
   29MOL   H155 9171   4.453   5.904   6.336 -2.0409 -1.2170  0.6045
   29MOL   H156 9172   4.250   5.710   6.311  1.0041  0.2865 -0.0201
   29MOL   H157 9173   4.114   5.823   6.289  0.1714  3.5527  0.0045
   29MOL   H158 9174   4.275   5.871   6.253 -0.1487 -1.9940 -2.2251
   29MOL   H159 9175   4.027   5.921   6.566  0.5088  1.2069  0.6989
   29MOL   H160 9176   4.111   5.774   6.610  1.5764  1.8373  0.4817
   29MOL   H161 9177   4.023   5.791   6.465 -0.4543  0.6369 -0.4531
   29MOL   C162 9178   4.583   5.859   6.496  0.8004 -0.1888 -0.5282
   29MOL   C163 9179   4.630   5.873   6.643 -0.5144 -0.2316  0.4625
   29MOL   C164 9180   4.698   5.999   6.680  0.2072  0.1315 -0.8892
   29MOL   O165 9181   4.780   6.038   6.597 -0.0256  0.2831 -0.0614
   29MOL   N166 9182   4.679   6.060   6.805 -0.0730  0.5972 -0.5482
   29MOL   C167 9183   4.758   6.173   6.844  0.3205 -0.3603 -0.2501
   29MOL   C168 9184   4.587   6.005   6.903  0.3349  0.2625 -0.1318
   29MOL   H169 9185   4.551   5.757   6.472 -0.9636  0.5747 -1.4581
   29MOL   H170 9186   4.663   5.867   6.423 -0.5376 -0.4669 -2.0410
   29MOL   H171 9187   4.532   5.874   6.692 -0.3787  0.3416  0.7206
   29MOL   H172 9188   4.803   6.236   6.767  3.4141 -2.0972  0.0568
   29MOL   H173 9189   4.699   6.249   6.895  1.5300  0.6925 -0.4001
   29MOL   H174 9190   4.841   6.136   6.903 -0.4121 -0.4940  0.7064
   29MOL   H175 9191   4.494   6.019   6.848  1.5550  0.0294 -2.3467
   29MOL   H176 9192   4.572   6.052   7.000 -2.0222 -0.5247 -0.0910
   29MOL   H177 9193   4.605   5.901   6.931 -0.0678  0.9604  2.8960
   29MOL   C178 9194   4.716   5.743   6.688  0.0168  0.3113 -0.3469
   29MOL   C179 9195   4.868   5.730   6.646  0.4568  0.0622 -0.5736
   29MOL   C180 9196   4.888   5.702   6.493 -0.0272  0.8253  0.2800
   29MOL   O181 9197   4.811   5.626   6.435  0.2990 -0.4537 -0.5336
   29MOL   N182 9198   4.994   5.760   6.429 -0.3674  0.1661  0.2634
   29MOL   C183 9199   5.042   5.732   6.293 -0.0176  0.5273 -0.1277
   29MOL   C184 9200   5.077   5.863   6.490  0.1746  0.1852 -0.9153
   29MOL   H185 9201   4.716   5.749   6.796  0.6991  0.5910 -0.3624
   29MOL   H186 9202   4.677   5.648   6.652  0.9663  0.2611 -1.3002
   29MOL   H187 9203   4.915   5.824   6.675  3.2756 -1.2373 -0.7041
   29MOL   H188 9204   5.150   5.748   6.286 -0.4853  4.1869  0.2960
   29MOL   H189 9205   5.015   5.631   6.262  1.7441 -0.0885  0.2824
   29MOL   H190 9206   5.000   5.803   6.223  0.4908  1.9647  0.9994
   29MOL   H191 9207   5.158   5.902   6.428  1.5545 -0.4147  0.4586
   29MOL   H192 9208   5.135   5.825   6.574 -1.1476 -0.9452 -0.4889
   29MOL   H193 9209   5.014   5.944   6.524  0.5938 -0.0476  0.4879
   29MOL   C194 9210   4.929   5.614   6.725 -0.0680 -0.0030 -0.0697
   29MOL   C195 9211   4.960   5.623   6.872  0.2172  0.6272  0.2657
   29MOL   C196 9212   5.079   5.718   6.903  0.2719  0.5286 -0.2394
   29MOL   O197 9213   5.185   5.705   6.839 -0.2641  0.0048 -0.1841
   29MOL   N198 9214   5.073   5.804   7.008  0.1572 -0.5248 -0.7532
   29MOL   C199 9215   5.193   5.847   7.083  0.1335  0.4417 -0.1310
   29MOL   C200 9216   4.957   5.858   7.069 -0.2297  0.5009 -0.1153
   29MOL   H201 9217   4.885   5.516   6.707  1.6499 -0.6394 -1.0034
   29MOL   H202 9218   5.027   5.601   6.680  0.2446  0.7013  0.4053
   29MOL   H203 9219   4.876   5.662   6.930 -0.0216 -3.1417  2.6336
   29MOL   H204 9220   5.170   5.882   7.184 -1.3052  1.5661 -0.8226
   29MOL   H205 9221   5.275   5.776   7.073  0.3492  0.6786 -0.0383
   29MOL   H206 9222   5.220   5.934   7.023 -0.9867  0.3984 -0.7208
   29MOL   H207 9223   4.874   5.875   7.000 -1.0653 -1.8897  0.2677
   29MOL   H208 9224   4.979   5.956   7.112  1.3746  0.3173 -0.5111
   29MOL   H209 9225   4.933   5.790   7.151 -2.6567  1.1420 -0.2535
   29MOL   C210 9226   4.998   5.491   6.942 -0.7003  0.7135 -0.0133
   29MOL   C211 9227   4.890   5.373   6.963  0.7542 -0.2521 -0.2772
   29MOL   C212 9228   4.778   5.428   7.053  0.2397 -0.3491  0.2108
   29MOL   O213 9229   4.803   5.438   7.174  0.4023  0.1802 -0.2513
   29MOL   N214 9230   4.670   5.488   6.991  0.6723 -0.0610 -0.2168
   29MOL   C215 9231   4.584   5.572   7.067 -0.1328 -0.1298  0.4632
   29MOL   C216 9232   4.613   5.460   6.864 -0.1452  1.0373 -0.0099
   29MOL   H217 9233   5.093   5.450   6.908 -1.7311  0.0813 -2.1848
   29MOL   H218 9234   5.028   5.527   7.040 -1.4277  1.7066 -0.1375
   29MOL   H219 9235   4.859   5.338   6.865  1.0770  0.0613 -0.4956
   29MOL   H220 9236   4.526   5.648   7.014 -0.3162 -1.4602 -1.2968
   29MOL   H221 9237   4.517   5.520   7.135  0.8474 -0.0966  1.4658
   29MOL   H222 9238   4.647   5.633   7.131 -0.8364  0.7628  0.3265
   29MOL   H223 9239   4.570   5.359   6.867 -0.8034  1.3572  1.6918
   29MOL   H224 9240   4.689   5.449   6.787 -0.9125 -0.2469 -0.6075
   29MOL   H225 9241   4.539   5.534   6.831 -0.5828  1.6065  2.1629
   29MOL   C226 9242   4.965   5.261   7.037  0.6365 -0.1772  0.3721
   29MOL   C227 9243   4.875   5.135   7.080  0.9975  0.0064  0.6542
   29MOL   C228 9244   4.971   5.016   7.092  0.3251 -0.3698 -0.1657
   29MOL   O229 9245   5.006   4.953   6.993  0.1198  0.1105 -0.0191
   29MOL   N230 9246   5.016   4.995   7.218  0.2626 -0.1797  0.5717
   29MOL   C231 9247   5.131   4.902   7.229 -0.0406  0.4147  1.1974
   29MOL   C232 9248   4.972   5.051   7.343  0.0009  0.0207  0.4496
   29MOL   H233 9249   5.042   5.219   6.972  0.2633  1.3418 -1.0979
   29MOL   H234 9250   5.009   5.303   7.128  1.9183  0.0750 -0.3535
   29MOL   H235 9251   4.826   5.161   7.174  2.5064 -1.0144  1.7388
   29MOL   H236 9252   5.105   4.808   7.278  2.2862 -0.4266  0.9307
   29MOL   H237 9253   5.184   4.872   7.139  1.0799 -0.3478  2.0919
   29MOL   H238 9254   5.206   4.949   7.294  1.0288 -3.2611  2.7895
   29MOL   H239 9255   4.876   5.003   7.361  0.0201 -0.6420 -1.1587
   29MOL   H240 9256   4.979   5.159   7.330  1.9316 -0.0510  0.7643
   29MOL   H241 9257   5.044   5.034   7.423  0.8938  0.9661 -0.1479
   29MOL   C242 9258   4.761   5.108   6.977  0.0472 -0.1689 -0.2134
   29MOL   C243 9259   4.681   4.974   7.000 -0.3227 -0.0605  0.1925
   29MOL   C244 9260   4.588   4.938   6.880 -0.2145  0.6322  0.7764
   29MOL   O245 9261   4.530   5.032   6.831  0.5713  0.7658  0.1465
   29MOL   N246 9262   4.589   4.818   6.821  0.2224 -0.5146 -0.8866
   29MOL   C247 9263   4.683   4.703   6.839 -0.5472  0.5776 -0.1788
   29MOL   C248 9264   4.475   4.783   6.732  0.1475 -0.3863 -0.4762
   29MOL   H249 9265   4.683   5.185   6.980 -0.3298 -0.5753  0.6771
   29MOL   H250 9266   4.804   5.106   6.877 -0.4287 -1.1369 -0.4084
   29MOL   H251 9267   4.762   4.902   7.007  0.5015  0.6156 -2.0773
   29MOL   H252 9268   4.730   4.666   6.749 -0.5004  0.0033  0.0824
   29MOL   H253 9269   4.771   4.709   6.903  0.0554 -1.3641 -0.8038
   29MOL   H254 9270   4.634   4.614   6.879  1.7685 -0.4584  0.4099
   29MOL   H255 9271   4.494   4.822   6.632 -1.2821  0.6090 -0.3732
   29MOL   H256 9272   4.383   4.831   6.765  0.6932 -0.7631  1.6482
   29MOL   H257 9273   4.450   4.677   6.728 -2.1308  0.0567  1.1296
   29MOL   C258 9274   4.613   4.977   7.140 -0.3306 -0.5152  0.6075
   29MOL   C259 9275   4.587   4.845   7.216 -0.0924  0.2188 -0.5031
   29MOL   C260 9276   4.458   4.767   7.169  0.0100 -0.1885  0.0223
   29MOL   O261 9277   4.361   4.831   7.138 -0.0828  0.0033  0.4296
   29MOL   N262 9278   4.464   4.633   7.133  0.0029 -1.0409  0.0752
   29MOL   C263 9279   4.368   4.569   7.038  0.4043 -0.2057  0.6387
   29MOL   C264 9280   4.561   4.547   7.193 -0.3502 -0.1375 -0.3263
   29MOL   H265 9281   4.660   5.043   7.212  0.0437 -0.5069  0.3545
   29MOL   H266 9282   4.519   5.030   7.123 -1.7178 -2.6466  1.4219
   29MOL   H267 9283   4.673   4.782   7.195 -0.1478  0.4569 -1.4877
   29MOL   H268 9284   4.294   4.634   6.992  1.8308  1.1902  0.2375
   29MOL   H269 9285   4.413   4.510   6.958  0.7744  0.3921  0.4063
   29MOL   H270 9286   4.307   4.488   7.078  2.4032 -0.5121  3.1853
   29MOL   H271 9287   4.626   4.518   7.111 -1.9309  2.8091 -2.6934
   29MOL   H272 9288   4.511   4.462   7.241  0.2785 -0.5429 -0.3942
   29MOL   H273 9289   4.607   4.595   7.279 -0.9000 -2.6022  1.4168
   29MOL   C274 9290   4.572   4.869   7.373 -0.6983 -0.0317  0.5636
   29MOL   C275 9291   4.478   4.981   7.425  0.0708 -0.2788 -0.6140
   29MOL   C276 9292   4.550   5.115   7.435 -1.3502 -0.3815  0.4353
   29MOL   O277 9293   4.665   5.133   7.490 -0.3861  0.3377  0.3995
   29MOL   N278 9294   4.486   5.230   7.386 -0.0659 -0.2663  0.0733
   29MOL   C279 9295   4.347   5.231   7.326  0.4396  0.3480 -0.3024
   29MOL   C280 9296   4.540   5.368   7.407  0.2293 -0.6855 -0.4502
   29MOL   H281 9297   4.540   4.771   7.409  0.3634 -0.8824 -0.7745
   29MOL   H282 9298   4.668   4.887   7.422 -0.3490  0.4408 -0.2832
   29MOL   H283 9299   4.393   4.979   7.357 -0.4610 -0.5302  0.0504
   29MOL   H284 9300   4.332   5.156   7.248 -1.2682  1.7640 -1.3836
   29MOL   H285 9301   4.274   5.221   7.407  0.8120 -0.4194 -0.0534
   29MOL   H286 9302   4.325   5.328   7.281 -2.9800 -0.9155 -1.4930
   29MOL   H287 9303   4.494   5.401   7.500  1.7786 -1.0826  0.4746
   29MOL   H288 9304   4.524   5.436   7.323  0.6003  0.2044  0.1918
   29MOL   H289 9305   4.648   5.372   7.424  0.1590 -1.6714  0.3385
   29MOL   C290 9306   4.420   4.962   7.567 -0.9100  0.6834 -0.3160
   29MOL   C291 9307   4.284   4.893   7.571  0.2375  0.3591 -0.0072
   29MOL   C292 9308   4.177   4.975   7.643 -0.3383 -0.2367 -0.9990
   29MOL   O293 9309   4.204   4.999   7.763 -0.2423 -0.2532 -0.3138
   29MOL   N294 9310   4.069   5.022   7.579 -0.4789  0.3489  0.6865
   29MOL   C295 9311   4.038   4.993   7.438  0.1077 -0.0513 -0.6904
   29MOL   C296 9312   3.994   5.125   7.642  0.3864  0.5446  0.0394
   29MOL   H297 9313   4.497   4.909   7.624 -0.3425  0.7726 -0.9921
   29MOL   H298 9314   4.405   5.056   7.621  0.6309  0.4845  0.5020
   29MOL   H299 9315   4.246   4.866   7.472 -1.1194 -0.7776  0.7965
   29MOL   H300 9316   3.952   5.049   7.403  1.1421  0.8208 -1.8689
   29MOL   H301 9317   4.121   5.031   7.379 -0.6903  0.7290 -1.3177
   29MOL   H302 9318   4.024   4.885   7.427  0.2366 -0.1835  0.4287
   29MOL   H303 9319   3.886   5.114   7.629  0.3221  0.8663  0.3048
   29MOL   H304 9320   4.012   5.222   7.594 -2.0527  0.7477 -0.5776
   29MOL   H305 9321   4.002   5.129   7.750 -1.7833 -0.4809  0.2621
   29MOL   C306 9322   4.302   4.762   7.636  0.4167 -0.3804  0.1643
   29MOL   C307 9323   4.176   4.663   7.663 -0.3099  0.4941 -0.7845
   29MOL   C308 9324   4.114   4.593   7.541 -0.9860  0.0916 -0.5612
   29MOL   O309 9325   4.148   4.627   7.429 -0.0085  0.2875 -0.0566
   29MOL   N310 9326   4.021   4.495   7.558 -0.3694  0.7821  0.5351
   29MOL   C311 9327   3.958   4.433   7.440 -0.2124  0.1153  0.3009
   29MOL   C312 9328   3.973   4.442   7.687  0.3441 -0.6631 -0.0655
   29MOL   H313 9329   4.369   4.697   7.581 -0.4448 -0.4712 -0.7742
   29MOL   H314 9330   4.359   4.780   7.728  1.8351 -2.1571 -0.3257
   29MOL   H315 9331   4.221   4.581   7.718  0.1194 -0.9298 -3.1818
   29MOL   H316 9332   4.030   4.369   7.389 -0.2599 -0.2780  0.7196
   29MOL   H317 9333   3.877   4.366   7.469 -0.1362 -0.7377 -1.3923
   29MOL   H318 9334   3.919   4.507   7.370 -1.4204  1.2277  2.1093
   29MOL   H319 9335   3.989   4.508   7.772 -1.1206 -0.5020  0.0937
   29MOL   H320 9336   4.027   4.353   7.721  2.2324  0.4172 -0.1803
   29MOL   H321 9337   3.867   4.417   7.679  0.3225 -0.5015 -0.2606
   29MOL   H322 9338   4.105   4.710   7.731  1.1772  2.0477 -0.2659
   30MOL     C1 9339   2.042   7.846   2.115  0.0160 -0.5982 -0.3177
   30MOL     C2 9340   2.007   0.137   2.064 -0.2681  0.1622 -0.1200
   30MOL     C3 9341   2.094   0.242   2.144  0.7080  0.1806 -0.7121
   30MOL     O4 9342   2.068   0.272   2.263 -0.2054 -0.1415 -0.6177
   30MOL     N5 9343   2.202   0.291   2.078 -0.1515 -0.0826 -0.2319
   30MOL     C6 9344   2.290   0.397   2.142  0.0319  0.3904  0.2013
   30MOL     C7 9345   2.235   0.259   1.938 -0.2812  0.2814  0.2488
   30MOL     H8 9346   2.029   7.841   2.224  0.1825 -0.7250 -0.3033
   30MOL     H9 9347   2.136   7.805   2.078  1.0193  1.5864 -0.2399
   30MOL    H10 9348   2.020   0.150   1.957 -1.6935 -2.2231 -0.6078
   30MOL    H11 9349   2.237   0.488   2.172  0.8905  0.5030  1.4427
   30MOL    H12 9350   2.331   0.357   2.235 -0.2896  1.3630  0.7761
   30MOL    H13 9351   2.377   0.428   2.085 -0.2024 -0.8004 -0.8283
   30MOL    H14 9352   2.148   0.290   1.879 -0.4801  1.8100  1.3046
   30MOL    H15 9353   2.261   0.156   1.916 -1.5318 -0.1386  0.7069
   30MOL    H16 9354   2.321   0.311   1.897 -0.1307  0.3183  0.6139
   30MOL    H17 9355   1.969   7.777   2.073  1.2403 -0.6377 -2.4458
   30MOL    C18 9356   1.856   0.167   2.092  0.5669  0.0009  0.1766
   30MOL    C19 9357   1.802   0.308   2.070 -0.0208 -0.4257  0.5343
   30MOL    C20 9358   1.766   0.372   2.204 -0.2775 -0.2505 -0.0096
   30MOL    O21 9359   1.683   0.313   2.268 -0.3841 -1.0700 -0.4558
   30MOL    N22 9360   1.805   0.495   2.235 -0.0782 -0.2982  0.4549
   30MOL    C23 9361   1.749   0.559   2.355  0.4840  0.3358 -0.1035
   30MOL    C24 9362   1.899   0.587   2.167 -0.2650  0.1571 -0.2410
   30MOL    H25 9363   1.798   0.103   2.025 -1.0539  0.8816  0.7243
   30MOL    H26 9364   1.831   0.125   2.189  1.6921  0.0615  0.5060
   30MOL    H27 9365   1.880   0.360   2.014  1.3095 -1.9092  0.9891
   30MOL    H28 9366   1.642   0.570   2.338  0.6591  1.0906 -0.7918
   30MOL    H29 9367   1.756   0.496   2.443 -0.6415  0.7248  0.2683
   30MOL    H30 9368   1.775   0.663   2.376 -1.5917  0.7024  0.6929
   30MOL    H31 9369   1.843   0.632   2.085  0.2757  1.4865  0.0985
   30MOL    H32 9370   1.987   0.534   2.131 -0.4352  0.5769 -1.2977
   30MOL    H33 9371   1.931   0.663   2.239  0.4292 -0.5383  0.1897
   30MOL    C34 9372   1.679   0.305   1.980 -0.6508 -0.4253  0.1208
   30MOL    C35 9373   1.634   0.443   1.919 -0.8790  0.4272 -0.0577
   30MOL    C36 9374   1.493   0.434   1.861 -0.0804  0.3214 -0.3007
   30MOL    O37 9375   1.455   0.332   1.809 -0.1487 -0.1162  0.3662
   30MOL    N38 9376   1.407   0.536   1.889 -0.5375 -0.2168  0.0604
   30MOL    C39 9377   1.447   0.683   1.923 -0.0495 -0.1753 -0.0508
   30MOL    C40 9378   1.261   0.517   1.880 -0.2272  0.4963 -0.1451
   30MOL    H41 9379   1.687   0.240   1.893  1.0329  1.4161 -1.1633
   30MOL    H42 9380   1.596   0.264   2.037 -2.0302  1.7585 -0.2385
   30MOL    H43 9381   1.620   0.505   2.008  0.8367 -0.3789  0.8088
   30MOL    H44 9382   1.371   0.760   1.911 -0.9543 -0.5868  2.6806
   30MOL    H45 9383   1.484   0.684   2.025  1.9176 -1.0064 -0.7405
   30MOL    H46 9384   1.525   0.724   1.859  0.9498 -0.4526  0.9732
   30MOL    H47 9385   1.229   0.419   1.914 -2.2639  1.5761  1.1603
   30MOL    H48 9386   1.238   0.523   1.773 -2.2424  2.2520  0.3694
   30MOL    H49 9387   1.208   0.593   1.936  2.8646  2.5189  0.1842
   30MOL    C50 9388   1.742   0.507   1.825  0.4774  0.0117 -0.7436
   30MOL    C51 9389   1.763   0.445   1.685  0.4244  0.0944  0.1594
   30MOL    C52 9390   1.836   0.307   1.694 -0.4568  0.0652  0.3152
   30MOL    O53 9391   1.942   0.305   1.755 -0.2279 -0.1165 -0.2790
   30MOL    N54 9392   1.785   0.190   1.644  0.0006 -0.2240  0.2479
   30MOL    C55 9393   1.650   0.169   1.580 -0.7045 -0.2868 -0.8682
   30MOL    C56 9394   1.846   0.059   1.678 -0.6828  0.1579 -0.3879
   30MOL    H57 9395   1.727   0.614   1.810  0.0886  0.2330  1.1461
   30MOL    H58 9396   1.836   0.516   1.881 -1.1275  1.4877  1.7985
   30MOL    H59 9397   1.666   0.435   1.637  0.0978  0.4707  0.7405
   30MOL    H60 9398   1.640   0.248   1.506  0.9476  0.5958 -0.1940
   30MOL    H61 9399   1.652   0.075   1.525  0.3466 -0.0575 -1.2305
   30MOL    H62 9400   1.570   0.177   1.653  0.0498 -0.0390 -0.0481
   30MOL    H63 9401   1.877   0.014   1.583  0.0287 -1.5975  0.6567
   30MOL    H64 9402   1.775   7.848   1.729 -1.0640  1.1592  0.3654
   30MOL    H65 9403   1.939   0.062   1.735 -0.7529 -0.9811 -0.2104
   30MOL    C66 9404   1.842   0.532   1.589  0.2874  0.3299  0.4484
   30MOL    C67 9405   1.794   0.675   1.541  0.7722  0.5265 -0.7593
   30MOL    C68 9406   1.670   0.678   1.461  1.1717  0.3831  0.3753
   30MOL    O69 9407   1.642   0.577   1.395  0.5732 -0.3695 -0.2270
   30MOL    N70 9408   1.592   0.792   1.452 -0.0082 -0.1101 -0.3682
   30MOL    C71 9409   1.485   0.803   1.354  0.3525  0.0235 -0.3310
   30MOL    C72 9410   1.609   0.908   1.545 -0.3512  0.0387 -0.4599
   30MOL    H73 9411   1.937   0.546   1.641  2.4742 -2.2823 -2.6880
   30MOL    H74 9412   1.868   0.473   1.502 -2.0154  0.5772 -0.4656
   30MOL    H75 9413   1.778   0.738   1.628 -0.7325 -0.0848 -0.5714
   30MOL    H76 9414   1.399   0.831   1.415 -0.4739  0.3279 -1.6091
   30MOL    H77 9415   1.511   0.881   1.283 -0.7217  0.2451 -0.4905
   30MOL    H78 9416   1.452   0.710   1.307 -2.4206  0.1958  1.1266
   30MOL    H79 9417   1.713   0.935   1.528 -0.9579  2.6231 -0.1746
   30MOL    H80 9418   1.599   0.871   1.647  0.0942  1.3099  0.0553
   30MOL    H81 9419   1.538   0.990   1.533  0.8165  1.3792  1.4310
   30MOL    C82 9420   1.913   0.741   1.463 -0.7183  0.4947 -0.6601
   30MOL    C83 9421   2.049   0.747   1.528 -0.3611 -0.0176 -0.2070
   30MOL    C84 9422   2.045   0.812   1.666 -0.6211  0.8539  0.0040
   30MOL    O85 9423   1.966   0.908   1.679  0.6933  0.4476  0.1458
   30MOL    N86 9424   2.113   0.754   1.766  0.1741 -0.4453  0.2088
   30MOL    C87 9425   2.195   0.637   1.752  0.3240 -0.2765  0.5648
   30MOL    C88 9426   2.074   0.778   1.903 -0.1908  0.3985 -0.7016
   30MOL    H89 9427   1.930   0.686   1.371 -0.1547 -0.2725 -0.1026
   30MOL    H90 9428   1.879   0.835   1.419 -2.0209  0.4125  0.1373
   30MOL    H91 9429   2.083   0.643   1.523 -0.7191 -0.0758 -1.5992
   30MOL    H92 9430   2.277   0.646   1.681 -1.6096 -0.3608 -1.7131
   30MOL    H93 9431   2.252   0.621   1.844  1.4767  1.7611  0.2394
   30MOL    H94 9432   2.136   0.546   1.743 -2.7527  1.6770  0.3684
   30MOL    H95 9433   2.140   0.732   1.976  1.6036 -0.8419 -3.0286
   30MOL    H96 9434   1.977   0.736   1.927  0.5842 -1.4973 -0.8264
   30MOL    H97 9435   2.072   0.884   1.930  2.0905  0.2241  0.2456
   30MOL    C98 9436   2.139   0.824   1.421  0.0180  0.1168 -1.0560
   30MOL    C99 9437   2.292   0.814   1.441  0.2795  0.3088 -0.1998
   30MOL   C100 9438   2.355   0.941   1.383 -0.2413  0.3972  0.0337
   30MOL   O101 9439   2.334   0.963   1.264  0.5415  0.1739 -0.2274
   30MOL   N102 9440   2.438   1.023   1.455 -0.2200 -0.0068 -0.2608
   30MOL   C103 9441   2.463   1.003   1.596 -0.6010 -0.0321  0.0015
   30MOL   C104 9442   2.513   1.137   1.394  0.8874 -0.7875 -0.2366
   30MOL   H105 9443   2.111   0.804   1.318 -1.3450 -0.8351 -0.5100
   30MOL   H106 9444   2.107   0.927   1.436  0.1749  0.0194  0.0122
   30MOL   H107 9445   2.309   0.810   1.549  1.1709  1.7263 -0.2639
   30MOL   H108 9446   2.368   1.019   1.646  0.1827  1.6199  1.0176
   30MOL   H109 9447   2.512   0.909   1.624 -0.6272 -0.0319  0.0479
   30MOL   H110 9448   2.551   1.055   1.636  0.1640  0.0405 -1.7386
   30MOL   H111 9449   2.490   1.137   1.287 -1.6492 -0.1611  0.2616
   30MOL   H112 9450   2.619   1.127   1.418  0.9448 -2.2237 -1.0664
   30MOL   H113 9451   2.474   1.230   1.436  1.4828 -1.1842  1.2270
   30MOL   C114 9452   2.356   0.689   1.374 -0.4173  0.1056  0.7732
   30MOL   C115 9453   2.511   0.667   1.373 -0.2155  0.2344  0.3281
   30MOL   C116 9454   2.538   0.567   1.256 -0.5716  0.9913  0.4134
   30MOL   O117 9455   2.533   0.444   1.275 -0.3720 -0.2636  0.3172
   30MOL   N118 9456   2.596   0.617   1.140  0.5257  0.3323  0.0312
   30MOL   C119 9457   2.624   0.759   1.113  0.1796  0.1137  0.3028
   30MOL   C120 9458   2.627   0.523   1.026  0.1142 -0.2358 -0.6430
   30MOL   H121 9459   2.315   0.600   1.422 -0.5978  0.6289  1.5808
   30MOL   H122 9460   2.330   0.688   1.268 -2.2839 -1.3578  1.1923
   30MOL   H123 9461   2.561   0.760   1.347 -1.8455  1.5345  1.7082
   30MOL   H124 9462   2.713   0.787   1.170  0.7287  0.1467 -0.5541
   30MOL   H125 9463   2.641   0.783   1.008  2.3528  0.2752  0.6507
   30MOL   H126 9464   2.545   0.827   1.145  0.3949  1.5756 -2.1078
   30MOL   H127 9465   2.729   0.485   1.032 -0.0516 -0.3725  2.1886
   30MOL   H128 9466   2.623   0.565   0.926 -1.3048 -0.2019 -0.5816
   30MOL   H129 9467   2.558   0.439   1.025  0.2297 -0.3143 -2.3909
   30MOL   C130 9468   2.568   0.616   1.512 -0.3898 -0.6110  0.8789
   30MOL   C131 9469   2.717   0.623   1.529 -0.0530 -0.0505  0.0349
   30MOL   C132 9470   2.767   0.772   1.543 -0.8281 -0.1540  0.0506
   30MOL   O133 9471   2.758   0.842   1.443  0.4998 -0.3655 -0.9333
   30MOL   N134 9472   2.833   0.803   1.657 -0.4719  0.2605  0.0689
   30MOL   C135 9473   2.803   0.740   1.786 -0.3013 -0.1653 -0.5422
   30MOL   C136 9474   2.908   0.932   1.663  0.6690 -0.1359  0.2229
   30MOL   H137 9475   2.526   0.672   1.594  2.3134  0.9726  1.2350
   30MOL   H138 9476   2.529   0.517   1.537 -1.2566 -0.2375  1.0258
   30MOL   H139 9477   2.728   0.564   1.621 -0.4854  1.8423  1.3169
   30MOL   H140 9478   2.813   0.820   1.859  1.2621 -0.9440  0.1207
   30MOL   H141 9479   2.703   0.698   1.788  1.0758 -3.5428  0.6017
   30MOL   H142 9480   2.866   0.657   1.819  0.5245  0.2068 -1.1680
   30MOL   H143 9481   2.984   0.939   1.585 -0.2747 -1.0739 -0.8016
   30MOL   H144 9482   2.970   0.941   1.752 -0.9511 -0.7012  1.4388
   30MOL   H145 9483   2.834   1.011   1.650 -0.5567 -1.2361  0.3502
   30MOL   C146 9484   2.806   0.535   1.431  0.2046 -0.1870  0.1806
   30MOL   C147 9485   2.960   0.534   1.446  0.5012 -0.0875 -0.2396
   30MOL   C148 9486   3.007   0.486   1.589 -0.1416 -0.2086  0.3203
   30MOL   O149 9487   3.060   0.574   1.662  0.2678  0.3339 -0.9401
   30MOL   N150 9488   3.016   0.359   1.625  0.3172 -0.4542 -0.3047
   30MOL   C151 9489   3.109   0.306   1.731 -0.2368  1.0011 -0.7428
   30MOL   C152 9490   2.943   0.246   1.556  0.1578  0.1001 -0.3507
   30MOL   H153 9491   2.760   0.437   1.436 -0.6090  0.2576  1.8759
   30MOL   H154 9492   2.803   0.557   1.325  0.8935 -0.8678  0.0149
   30MOL   H155 9493   2.998   0.457   1.379  0.5924  0.3932 -0.7473
   30MOL   H156 9494   3.060   0.231   1.794 -0.9985  1.4998 -0.7377
   30MOL   H157 9495   3.193   0.254   1.685 -0.5557  2.1285 -2.6112
   30MOL   H158 9496   3.145   0.390   1.790 -2.2534 -0.1663  2.2701
   30MOL   H159 9497   2.902   0.278   1.460  0.3653  0.5638 -0.2855
   30MOL   H160 9498   2.864   0.206   1.619 -0.3996  0.1449 -1.0128
   30MOL   H161 9499   3.013   0.164   1.542 -1.2715 -1.2899  0.5689
   30MOL   C162 9500   3.038   0.665   1.397 -0.2657 -0.3737 -1.0483
   30MOL   C163 9501   3.193   0.635   1.381 -1.1678 -0.1295  0.2224
   30MOL   C164 9502   3.283   0.734   1.458  0.0936  0.3152  0.5859
   30MOL   O165 9503   3.253   0.854   1.451 -0.2277  0.4245 -0.3566
   30MOL   N166 9504   3.390   0.692   1.520  0.0000 -0.0938 -0.1812
   30MOL   C167 9505   3.424   0.553   1.559 -0.2922  0.1250  1.1489
   30MOL   C168 9506   3.498   0.789   1.537 -0.1586 -0.0516 -0.0910
   30MOL   H169 9507   2.998   0.689   1.298 -0.8512 -0.0914 -0.7476
   30MOL   H170 9508   3.022   0.742   1.472 -2.3380 -0.8473 -0.9742
   30MOL   H171 9509   3.211   0.530   1.406 -0.3976  0.1542  0.8854
   30MOL   H172 9510   3.505   0.543   1.631  0.2605  3.0807  1.0197
   30MOL   H173 9511   3.351   0.504   1.623 -0.6825 -0.0108  0.6022
   30MOL   H174 9512   3.439   0.497   1.467  0.2315 -0.6557  1.7068
   30MOL   H175 9513   3.536   0.821   1.441 -0.7820 -1.5065 -0.8347
   30MOL   H176 9514   3.582   0.743   1.590 -0.5165 -0.3508  0.2256
   30MOL   H177 9515   3.470   0.886   1.579 -2.4561 -0.8908  0.4344
   30MOL   C178 9516   3.241   0.642   1.235 -0.0496 -0.0575 -0.4848
   30MOL   C179 9517   3.187   0.536   1.135  0.3691  0.2444 -0.2471
   30MOL   C180 9518   3.214   0.401   1.192  0.0884  0.5045  0.1899
   30MOL   O181 9519   3.330   0.381   1.234  0.2762 -0.7021 -0.2476
   30MOL   N182 9520   3.116   0.309   1.182  0.4708  0.0800  0.5628
   30MOL   C183 9521   2.979   0.326   1.126  0.0240 -0.0595 -0.2637
   30MOL   C184 9522   3.142   0.177   1.244  0.0974 -0.5789  0.1557
   30MOL   H185 9523   3.213   0.740   1.196 -3.3475 -0.7602  0.0238
   30MOL   H186 9524   3.350   0.647   1.240  0.0731 -1.8418 -0.9937
   30MOL   H187 9525   3.081   0.558   1.123  0.4553  0.8505  0.1115
   30MOL   H188 9526   2.975   0.238   1.062  2.3536  0.9018 -1.7883
   30MOL   H189 9527   2.899   0.324   1.201 -0.7711 -0.4607 -1.1038
   30MOL   H190 9528   2.961   0.409   1.058  0.3410  0.0841 -0.1717
   30MOL   H191 9529   3.109   0.167   1.347 -2.2487 -1.0140 -0.5930
   30MOL   H192 9530   3.248   0.153   1.243  0.6921  1.9246 -2.1288
   30MOL   H193 9531   3.094   0.101   1.183 -1.2754 -1.4203  2.2353
   30MOL   C194 9532   3.263   0.553   1.003  0.4901  0.3268  0.6360
   30MOL   C195 9533   3.205   0.487   0.884 -0.4651 -1.1309  0.7144
   30MOL   C196 9534   3.321   0.460   0.785  0.8583  0.2041 -0.1373
   30MOL   O197 9535   3.355   0.548   0.711  0.2965  0.3651 -0.0301
   30MOL   N198 9536   3.389   0.342   0.798 -0.1749 -0.0913  0.0649
   30MOL   C199 9537   3.345   0.223   0.870 -0.1181 -0.2416 -0.0746
   30MOL   C200 9538   3.528   0.339   0.756 -0.2082 -0.6887  0.2756
   30MOL   H201 9539   3.278   0.659   0.982 -2.2293  0.4654 -0.7455
   30MOL   H202 9540   3.363   0.509   1.011 -0.1295 -1.0698  0.7198
   30MOL   H203 9541   3.180   0.386   0.914  2.2405 -1.7587  1.0328
   30MOL   H204 9542   3.407   0.143   0.830 -1.0141 -0.7956 -0.3676
   30MOL   H205 9543   3.350   0.237   0.978 -2.2540  0.4198 -0.0374
   30MOL   H206 9544   3.242   0.211   0.834 -0.3922  1.9750 -0.1186
   30MOL   H207 9545   3.509   0.314   0.651  0.6353 -0.0367 -0.0359
   30MOL   H208 9546   3.585   0.268   0.815 -0.0933 -1.5580 -0.8659
   30MOL   H209 9547   3.581   0.434   0.760  0.6479 -1.1979  1.4816
   30MOL   C210 9548   3.084   0.552   0.814 -0.3917  0.6376  0.3151
   30MOL   C211 9549   3.080   0.705   0.789 -0.4880  0.2788 -0.1165
   30MOL   C212 9550   3.026   0.772   0.916 -0.0415 -0.1352 -0.5131
   30MOL   O213 9551   2.916   0.732   0.950  0.1143  0.3244  0.3111
   30MOL   N214 9552   3.079   0.875   0.987 -0.3427  0.3740  0.3553
   30MOL   C215 9553   3.006   0.922   1.106  0.1454 -0.2877  0.4561
   30MOL   C216 9554   3.179   0.975   0.938 -0.1841 -0.6686  0.6348
   30MOL   H217 9555   3.072   0.494   0.722 -2.5603 -0.9016  1.5293
   30MOL   H218 9556   2.994   0.528   0.870  0.3414 -0.4132  1.0617
   30MOL   H219 9557   3.179   0.744   0.766 -1.3386  0.4251 -3.8780
   30MOL   H220 9558   3.081   0.933   1.184 -1.3293 -1.6367  2.1407
   30MOL   H221 9559   2.963   1.020   1.090  1.6972  0.2442 -0.5155
   30MOL   H222 9560   2.927   0.860   1.149 -1.6125  1.8058  0.3220
   30MOL   H223 9561   3.279   0.933   0.940  0.0377 -0.2471 -0.8487
   30MOL   H224 9562   3.184   1.062   1.002  2.0164  0.2347 -0.7263
   30MOL   H225 9563   3.161   1.005   0.834  0.1146 -1.7269  0.2663
   30MOL   C226 9564   2.996   0.737   0.666 -0.0949 -0.2929  0.4896
   30MOL   C227 9565   3.056   0.756   0.528 -0.5185  0.0100  0.7712
   30MOL   C228 9566   3.130   0.889   0.516 -0.5310  0.1382 -0.1518
   30MOL   O229 9567   3.097   0.984   0.590  0.4474 -0.0079 -0.1567
   30MOL   N230 9568   3.236   0.899   0.435  0.6101  0.4344  0.5297
   30MOL   C231 9569   3.253   0.815   0.314 -0.1363 -0.1782 -0.3458
   30MOL   C232 9570   3.313   1.022   0.430  0.6241  0.2168 -0.1722
   30MOL   H233 9571   2.923   0.657   0.652  1.1454 -1.4447  0.5711
   30MOL   H234 9572   2.934   0.826   0.675  0.7597  0.1170  2.6039
   30MOL   H235 9573   3.128   0.674   0.520 -0.1172  0.3683  0.6831
   30MOL   H236 9574   3.190   0.853   0.234 -1.6457  0.1280  0.9636
   30MOL   H237 9575   3.357   0.824   0.284  0.1993 -1.1341  0.5109
   30MOL   H238 9576   3.230   0.708   0.315 -4.0975  0.6274  0.1178
   30MOL   H239 9577   3.262   1.112   0.465 -0.3991 -0.8422  1.1237
   30MOL   H240 9578   3.339   1.045   0.327 -0.6769  1.4931 -0.2426
   30MOL   H241 9579   3.399   1.003   0.493  0.0033 -1.0235  0.3219
   30MOL   C242 9580   2.954   0.730   0.413 -0.3465  0.0808 -0.5891
   30MOL   C243 9581   2.831   0.829   0.418 -0.0008  0.2679  0.1346
   30MOL   C244 9582   2.721   0.773   0.510  0.4551 -1.1261 -0.1049
   30MOL   O245 9583   2.698   0.651   0.521  0.2757 -0.0445 -0.5560
   30MOL   N246 9584   2.652   0.858   0.591  0.1206  0.8693  0.0621
   30MOL   C247 9585   2.589   0.813   0.717  0.0370 -0.2859 -0.1490
   30MOL   C248 9586   2.630   1.006   0.576 -0.3049  1.2800 -0.2810
   30MOL   H249 9587   2.999   0.743   0.315  0.9262  1.1660  0.1276
   30MOL   H250 9588   2.927   0.626   0.434  1.0138  0.0145  0.9010
   30MOL   H251 9589   2.864   0.925   0.457 -1.0297  0.8832 -0.4958
   30MOL   H252 9590   2.553   0.889   0.786  1.8547  0.8672 -0.4549
   30MOL   H253 9591   2.499   0.762   0.681 -0.2229  0.5603 -0.7350
   30MOL   H254 9592   2.657   0.746   0.770  0.0157  0.3920  0.7401
   30MOL   H255 9593   2.584   1.019   0.478 -1.3614  1.1898  0.2000
   30MOL   H256 9594   2.724   1.060   0.590  1.0146 -1.1693  0.4192
   30MOL   H257 9595   2.562   1.052   0.648 -1.8898  0.0502 -0.9608
   30MOL   C258 9596   2.761   0.850   0.276  0.0601 -0.0549 -0.6709
   30MOL   C259 9597   2.837   0.939   0.182  0.1669 -0.8769 -0.6612
   30MOL   C260 9598   2.838   1.085   0.223 -0.9790 -0.0433 -0.1064
   30MOL   O261 9599   2.746   1.130   0.291  0.0109  0.4567  0.0836
   30MOL   N262 9600   2.950   1.160   0.189  0.1096 -0.4473  0.3200
   30MOL   C263 9601   3.067   1.125   0.110  0.4303  0.3948  1.0059
   30MOL   C264 9602   2.956   1.297   0.237 -0.2453  0.8625  0.3598
   30MOL   H265 9603   2.730   0.762   0.221 -3.5082 -0.2402  1.4907
   30MOL   H266 9604   2.667   0.900   0.301  1.2363  0.8814  2.0042
   30MOL   H267 9605   2.943   0.914   0.191  0.8051  1.6931 -0.7164
   30MOL   H268 9606   3.099   1.020   0.106  1.2625  0.7068 -1.3195
   30MOL   H269 9607   3.048   1.146   0.005 -0.3414  0.9257  1.2461
   30MOL   H270 9608   3.149   1.182   0.153  0.7839 -0.1562  1.0652
   30MOL   H271 9609   3.042   1.303   0.304 -0.2549  1.6179  0.3046
   30MOL   H272 9610   2.869   1.334   0.292 -0.4730  1.8011 -0.6372
   30MOL   H273 9611   2.962   1.368   0.155 -0.3298  0.8985  0.3844
   30MOL   C274 9612   2.785   0.930   0.038  0.1891 -0.4994  0.0398
   30MOL   C275 9613   2.793   0.797   7.817 -0.1429  0.5425  0.1983
   30MOL   C276 9614   2.948   0.753   7.812  1.2655  0.0540  0.0818
   30MOL   O277 9615   3.035   0.828   7.768 -0.4031 -0.2062 -0.2890
   30MOL   N278 9616   2.973   0.632   7.853  0.3496 -0.9136 -0.5380
   30MOL   C279 9617   2.879   0.536   0.056  0.0550  0.0641 -0.4226
   30MOL   C280 9618   3.105   0.569   7.840 -0.1130  0.6319  0.6454
   30MOL   H281 9619   2.683   0.971   0.037  0.8020  1.0778 -0.5223
   30MOL   H282 9620   2.847   0.993   7.828 -1.2382  1.4527  0.5012
   30MOL   H283 9621   2.725   0.728   0.013  0.4955  1.3431  2.2187
   30MOL   H284 9622   2.851   0.560   0.159 -1.2644 -3.7776  0.2017
   30MOL   H285 9623   2.799   0.522   7.836  1.5559 -0.3472 -2.0003
   30MOL   H286 9624   2.915   0.436   0.078  1.8773  1.1490  1.8590
   30MOL   H287 9625   3.096   0.461   7.829 -0.9705  0.5976  1.6598
   30MOL   H288 9626   3.174   0.591   0.068  2.4558 -3.0516 -0.3882
   30MOL   H289 9627   3.149   0.612   7.749 -0.7183  0.1040  0.0942
   30MOL   C290 9628   2.755   0.823   7.668 -0.1286 -0.4467  0.4227
   30MOL   C291 9629   2.750   0.699   7.572 -0.8143 -0.5442 -0.3888
   30MOL   C292 9630   2.773   0.749   7.431 -0.5611 -0.6977  0.0394
   30MOL   O293 9631   2.687   0.834   7.385  0.6871  0.1235 -0.3588
   30MOL   N294 9632   2.876   0.696   7.358  0.2526  0.1868  0.3997
   30MOL   C295 9633   2.997   0.636   7.409 -0.3686  0.2192  0.1566
   30MOL   C296 9634   2.880   0.734   7.215 -0.5013 -0.2247 -0.4680
   30MOL   H297 9635   2.664   0.882   7.671  1.3744  1.9324  0.6443
   30MOL   H298 9636   2.841   0.880   7.632  1.1288 -3.3415 -1.4405
   30MOL   H299 9637   2.831   0.632   7.600 -0.8569 -0.4214  0.0280
   30MOL   H300 9638   3.004   0.541   7.355 -1.3740  0.8106 -1.0540
   30MOL   H301 9639   3.088   0.688   7.380 -0.6937  0.2561 -0.8394
   30MOL   H302 9640   3.008   0.602   7.512  1.5757 -0.1211 -0.1421
   30MOL   H303 9641   2.786   0.737   7.160  0.8042  0.9347 -2.7239
   30MOL   H304 9642   2.960   0.689   7.156  0.3229 -1.0733  1.2793
   30MOL   H305 9643   2.907   0.839   7.226  0.3096 -0.2282 -2.1547
   30MOL   C306 9644   2.624   0.623   7.581  0.2588  0.5233  0.1060
   30MOL   C307 9645   2.628   0.479   7.531 -0.5590  0.0823 -0.2098
   30MOL   C308 9646   2.522   0.384   7.583  0.5338  0.0974  0.0222
   30MOL   O309 9647   2.512   0.373   7.705 -0.1829 -0.2347  0.0911
   30MOL   N310 9648   2.438   0.309   7.507  0.1263 -0.9479 -0.0374
   30MOL   C311 9649   2.430   0.307   7.361 -0.7465 -0.0135  0.8623
   30MOL   C312 9650   2.362   0.204   7.576 -0.0177  0.4219 -0.1152
   30MOL   H313 9651   2.589   0.624   7.684  1.2037  0.0896  0.4349
   30MOL   H314 9652   2.548   0.675   7.523  1.0828  0.3904 -1.1142
   30MOL   H315 9653   2.632   0.472   7.422  2.1167 -0.7280 -0.0909
   30MOL   H316 9654   2.416   0.400   7.306  1.7178 -0.4096 -0.5117
   30MOL   H317 9655   2.521   0.273   7.313 -1.9722  0.6361 -1.9923
   30MOL   H318 9656   2.367   0.233   7.314  1.5081 -0.3511 -1.7137
   30MOL   H319 9657   2.284   0.249   7.638 -3.2667 -1.4736 -2.7108
   30MOL   H320 9658   2.429   0.146   7.640 -1.6554 -0.8927  0.4155
   30MOL   H321 9659   2.324   0.134   7.502 -1.3023 -0.5535  1.4477
   30MOL   H322 9660   2.723   0.433   7.558 -0.7518 -1.8719 -2.7694
   31MOL     C1 9661   4.309   0.935   2.919 -0.5646  0.4961  0.3783
   31MOL     C2 9662   4.228   0.973   2.792 -0.6560 -0.3742 -0.1785
   31MOL     C3 9663   4.076   0.992   2.811  0.0622  0.4246  0.0558
   31MOL     O4 9664   4.019   0.920   2.889  0.6219  0.5703 -0.7271
   31MOL     N5 9665   4.013   1.098   2.755 -0.2426  0.0113  0.4252
   31MOL     C6 9666   3.878   1.138   2.800  0.4841 -0.3267 -0.0258
   31MOL     C7 9667   4.072   1.169   2.639 -0.3947 -0.2488  0.1633
   31MOL     H8 9668   4.413   0.911   2.897 -0.2989  1.3400  0.7247
   31MOL     H9 9669   4.255   0.857   2.972  3.4158 -1.9851  0.9915
   31MOL    H10 9670   4.270   1.070   2.767 -0.4122 -0.9909 -2.2394
   31MOL    H11 9671   3.806   1.076   2.746 -0.7432  0.8969  0.1775
   31MOL    H12 9672   3.863   1.131   2.907  1.0475  1.6894  0.2033
   31MOL    H13 9673   3.866   1.245   2.786  3.3534  0.2853  1.7816
   31MOL    H14 9674   4.005   1.246   2.600 -0.3389  0.8871  2.2757
   31MOL    H15 9675   4.106   1.104   2.557 -0.4993 -1.0729  0.7663
   31MOL    H16 9676   4.158   1.227   2.672 -0.4128  0.7333 -1.4359
   31MOL    H17 9677   4.315   1.021   2.985  3.8962  1.4826 -1.1606
   31MOL    C18 9678   4.256   0.877   2.678 -0.1454  0.5963  0.7150
   31MOL    C19 9679   4.182   0.736   2.676  0.1126 -0.0277  0.0544
   31MOL    C20 9680   4.267   0.637   2.761  0.4373 -0.1320  0.1859
   31MOL    O21 9681   4.377   0.613   2.721  0.2997 -0.2650  0.5559
   31MOL    N22 9682   4.226   0.587   2.880  0.6701 -0.1281  0.3104
   31MOL    C23 9683   4.086   0.577   2.927 -0.7226 -0.3038 -0.1854
   31MOL    C24 9684   4.323   0.540   2.978 -0.1553  0.6481  0.8195
   31MOL    H25 9685   4.227   0.915   2.580 -1.9081 -0.5908  0.7409
   31MOL    H26 9686   4.364   0.869   2.664 -0.6760  0.4622 -4.6092
   31MOL    H27 9687   4.082   0.740   2.718  0.2490  0.3484  0.3516
   31MOL    H28 9688   4.050   0.673   2.965 -0.1399 -0.7278  1.4776
   31MOL    H29 9689   4.023   0.539   2.848  1.0359 -0.2811 -1.6328
   31MOL    H30 9690   4.085   0.519   3.019 -0.6413  1.0390  0.6837
   31MOL    H31 9691   4.395   0.621   2.985  2.4042 -1.5363  0.4835
   31MOL    H32 9692   4.365   0.443   2.949  0.0929  1.2237 -0.7621
   31MOL    H33 9693   4.297   0.543   3.084  0.2534  1.2579  0.9033
   31MOL    C34 9694   4.165   0.687   2.527  0.1408 -0.4255  0.1561
   31MOL    C35 9695   4.036   0.733   2.452  0.9621  0.0968  0.7253
   31MOL    C36 9696   3.913   0.664   2.498 -0.2175 -0.3094 -0.1806
   31MOL    O37 9697   3.930   0.551   2.545  0.3296 -0.1521  0.4974
   31MOL    N38 9698   3.790   0.718   2.490 -0.1542  0.0147  0.2501
   31MOL    C39 9699   3.757   0.857   2.459 -0.0185  0.8333 -0.4204
   31MOL    C40 9700   3.671   0.642   2.525  0.0406  0.5838 -0.2549
   31MOL    H41 9701   4.255   0.712   2.470 -0.4476 -2.5770 -1.7907
   31MOL    H42 9702   4.167   0.578   2.534  0.8089 -0.4079  0.2887
   31MOL    H43 9703   4.035   0.838   2.481 -0.6474  0.8005 -1.7218
   31MOL    H44 9704   3.659   0.892   2.490  0.8848  3.4253 -0.3417
   31MOL    H45 9705   3.823   0.928   2.510  0.4791  1.4255 -1.8446
   31MOL    H46 9706   3.766   0.875   2.352  2.7541  2.1960 -0.0204
   31MOL    H47 9707   3.629   0.680   2.619  0.3316  1.0819 -0.3211
   31MOL    H48 9708   3.684   0.534   2.527 -2.8041  0.1471 -2.0755
   31MOL    H49 9709   3.593   0.659   2.451 -0.5363  1.9418  0.6174
   31MOL    C50 9710   4.047   0.720   2.299  0.0439 -0.0113  0.2424
   31MOL    C51 9711   4.143   0.819   2.231  0.7697 -0.0695  0.3907
   31MOL    C52 9712   4.075   0.959   2.232  0.0023 -0.6440 -0.1361
   31MOL    O53 9713   3.954   0.968   2.216  0.1815  0.4313  0.5801
   31MOL    N54 9714   4.147   1.070   2.253 -0.5268 -0.4446  0.5158
   31MOL    C55 9715   4.078   1.199   2.268  0.0226 -0.5735  0.2071
   31MOL    C56 9716   4.290   1.089   2.215  0.0048  0.5568 -0.4725
   31MOL    H57 9717   4.081   0.619   2.277 -0.8312 -0.1161 -0.6758
   31MOL    H58 9718   3.949   0.719   2.250  0.9222  0.2731 -1.5658
   31MOL    H59 9719   4.236   0.827   2.288  1.0107  0.2679 -0.0510
   31MOL    H60 9720   3.992   1.188   2.335  1.1383  0.9705  1.9430
   31MOL    H61 9721   4.141   1.274   2.314 -2.2362  1.4425  0.0929
   31MOL    H62 9722   4.047   1.248   2.175  0.2720  0.3573  0.6169
   31MOL    H63 9723   4.338   1.173   2.265  1.4329  0.0632 -1.0003
   31MOL    H64 9724   4.297   1.113   2.109  0.7830 -0.8792 -0.7598
   31MOL    H65 9725   4.353   1.001   2.225 -0.4537  0.4368  1.6466
   31MOL    C66 9726   4.170   0.778   2.090 -0.2758  0.6319 -0.0261
   31MOL    C67 9727   4.271   0.668   2.068  0.1650 -0.0792 -0.3839
   31MOL    C68 9728   4.416   0.706   2.118  0.2767  0.9532  0.4197
   31MOL    O69 9729   4.458   0.820   2.083 -0.7994 -0.1393  0.0477
   31MOL    N70 9730   4.485   0.620   2.195  0.4359 -0.4090 -0.0461
   31MOL    C71 9731   4.430   0.491   2.245 -0.4376 -0.5498  0.2471
   31MOL    C72 9732   4.625   0.647   2.217 -0.0150  0.1806  0.1535
   31MOL    H73 9733   4.082   0.733   2.045 -1.1082  0.1114  2.0484
   31MOL    H74 9734   4.212   0.864   2.037 -2.0746  1.2755 -0.4485
   31MOL    H75 9735   4.237   0.591   2.138 -0.7744  2.1297  1.6668
   31MOL    H76 9736   4.381   0.488   2.342 -0.0921  2.6503  0.5732
   31MOL    H77 9737   4.372   0.428   2.178  0.4810  0.1380 -1.2176
   31MOL    H78 9738   4.522   0.433   2.250 -0.4125 -0.3126  3.4626
   31MOL    H79 9739   4.628   0.663   2.325 -1.1137  2.7597 -0.1607
   31MOL    H80 9740   4.668   0.732   2.165  1.4531 -0.5064  0.2239
   31MOL    H81 9741   4.689   0.563   2.190 -0.5805  0.5160 -2.3519
   31MOL    C82 9742   4.278   0.603   1.931 -0.3599 -1.0253 -0.9231
   31MOL    C83 9743   4.363   0.660   1.813 -0.1333  0.4416  0.4304
   31MOL    C84 9744   4.332   0.811   1.783  0.0764  0.1093  0.3315
   31MOL    O85 9745   4.213   0.838   1.768  0.2053  0.4901 -0.4140
   31MOL    N86 9746   4.433   0.901   1.757 -0.1312  0.1934 -0.1139
   31MOL    C87 9747   4.406   1.040   1.727  0.0970 -0.2053 -0.1253
   31MOL    C88 9748   4.571   0.866   1.745  0.0801 -0.4230  0.3000
   31MOL    H89 9749   4.321   0.504   1.945  1.2369  0.0241  2.1731
   31MOL    H90 9750   4.178   0.601   1.889  0.2754  0.5489 -2.6010
   31MOL    H91 9751   4.463   0.665   1.855 -0.5248 -0.5439  1.4914
   31MOL    H92 9752   4.481   1.102   1.777  1.3654  0.6515 -2.9913
   31MOL    H93 9753   4.391   1.054   1.620 -0.0764 -0.3837 -0.1243
   31MOL    H94 9754   4.312   1.072   1.771 -0.3766 -0.8766 -0.6302
   31MOL    H95 9755   4.585   0.782   1.677 -0.0727  1.8914 -2.6626
   31MOL    H96 9756   4.606   0.834   1.844  0.9909  1.1228  0.4992
   31MOL    H97 9757   4.636   0.941   1.700 -2.9600  1.7146 -0.6709
   31MOL    C98 9758   4.344   0.567   1.687 -0.4640  0.5070 -0.0173
   31MOL    C99 9759   4.422   0.435   1.706  0.2975  0.9645 -0.4372
   31MOL   C100 9760   4.565   0.443   1.763  0.6170  0.1221 -0.1766
   31MOL   O101 9761   4.642   0.520   1.707 -0.0694  0.0004  0.0142
   31MOL   N102 9762   4.608   0.358   1.860  0.1450  0.4257 -0.1922
   31MOL   C103 9763   4.520   0.290   1.957 -0.0146  0.3515 -0.5334
   31MOL   C104 9764   4.747   0.356   1.893 -0.6554  0.0822  0.1718
   31MOL   H105 9765   4.240   0.565   1.654 -0.1922  0.0599 -0.8524
   31MOL   H106 9766   4.390   0.623   1.606 -0.3161  1.0452  0.4354
   31MOL   H107 9767   4.366   0.364   1.767  0.7723  0.5580 -0.4703
   31MOL   H108 9768   4.427   0.340   1.982 -0.6144 -1.6185  1.3475
   31MOL   H109 9769   4.478   0.199   1.912 -1.6527  1.0576 -0.4722
   31MOL   H110 9770   4.572   0.263   2.049  1.0689 -2.4593 -1.8879
   31MOL   H111 9771   4.768   0.441   1.959 -0.0924 -0.4427  0.6791
   31MOL   H112 9772   4.800   0.368   1.799 -1.7816  3.9206 -0.0535
   31MOL   H113 9773   4.766   0.258   1.938  0.2767 -0.9289 -2.3388
   31MOL   C114 9774   4.418   0.364   1.561  0.5553  0.2110 -0.1247
   31MOL   C115 9775   4.456   0.214   1.536 -0.0818 -0.0399  0.5757
   31MOL   C116 9776   4.360   0.116   1.600 -0.4154  0.2054 -0.1233
   31MOL   O117 9777   4.373   0.075   1.715  0.0742 -0.3041  0.3575
   31MOL   N118 9778   4.265   0.061   1.522 -0.3186  0.5208 -0.5944
   31MOL   C119 9779   4.198   0.135   1.413  0.3440 -0.0835 -0.6525
   31MOL   C120 9780   4.201   7.785   1.554  0.0923 -0.4532 -0.2437
   31MOL   H121 9781   4.318   0.373   1.518  0.8594 -2.7226 -1.6343
   31MOL   H122 9782   4.479   0.424   1.494  0.2302  1.8823  1.0513
   31MOL   H123 9783   4.461   0.182   1.432 -0.0409  0.3876  0.4433
   31MOL   H124 9784   4.276   0.180   1.351 -0.4130  0.6826 -1.0508
   31MOL   H125 9785   4.157   0.063   1.342  0.2008 -0.6852  0.0331
   31MOL   H126 9786   4.122   0.202   1.452  0.3495 -0.3688 -0.1401
   31MOL   H127 9787   4.146   7.739   1.471  0.5161 -1.2624 -0.0877
   31MOL   H128 9788   4.133   7.806   1.637 -0.4088 -2.8373  0.0011
   31MOL   H129 9789   4.275   7.711   1.586  1.1526  0.1073 -1.3771
   31MOL   C130 9790   4.609   0.177   1.577  0.3488  0.3750 -0.8493
   31MOL   C131 9791   4.682   0.058   1.499 -0.1809  0.2709  0.5772
   31MOL   C132 9792   4.724   0.095   1.355  0.5176  0.7039 -0.2031
   31MOL   O133 9793   4.628   0.088   1.274  0.3061  0.0633 -0.0829
   31MOL   N134 9794   4.846   0.123   1.313 -0.6395  0.4917 -0.0060
   31MOL   C135 9795   4.945   0.155   1.416 -0.1158  0.2750 -0.8873
   31MOL   C136 9796   4.888   0.147   1.177 -0.9724 -0.0110  0.5721
   31MOL   H137 9797   4.665   0.269   1.558 -0.1407  0.7004 -0.7297
   31MOL   H138 9798   4.617   0.155   1.683 -1.9107 -2.1544 -1.1323
   31MOL   H139 9799   4.769   0.063   1.564 -0.0785  0.8319  0.3991
   31MOL   H140 9800   4.914   0.244   1.471 -1.0509 -0.1993 -0.6435
   31MOL   H141 9801   4.965   0.083   1.494 -1.2549 -2.4691 -3.0572
   31MOL   H142 9802   5.043   0.175   1.372  0.0518 -0.8267 -1.0128
   31MOL   H143 9803   4.990   0.111   1.158 -0.6402  0.8039  0.7807
   31MOL   H144 9804   4.890   0.253   1.150 -0.7631 -0.2540 -0.4094
   31MOL   H145 9805   4.823   0.093   1.108  0.2635 -0.2204 -0.4569
   31MOL   C146 9806   4.624   7.765   1.515 -0.0606 -0.5325 -0.2762
   31MOL   C147 9807   4.706   7.645   1.465  0.0922  0.3711 -0.3126
   31MOL   C148 9808   4.604   7.525   1.471 -0.6138  0.7585  0.1307
   31MOL   O149 9809   4.546   7.494   1.577 -0.3882 -0.2344  0.4458
   31MOL   N150 9810   4.583   7.447   1.362 -0.0647  0.3760 -0.3506
   31MOL   C151 9811   4.624   7.481   1.222 -0.4122 -0.2043 -0.6147
   31MOL   C152 9812   4.512   7.321   1.368  0.1997 -0.5055  0.2211
   31MOL   H153 9813   4.602   7.742   1.619 -1.8572  1.0777 -0.2676
   31MOL   H154 9814   4.527   7.765   1.466  0.6693 -0.5345 -1.7714
   31MOL   H155 9815   4.749   7.670   1.368  0.7658 -0.3541 -0.2092
   31MOL   H156 9816   4.605   7.398   1.154  1.4272 -1.6414  0.5755
   31MOL   H157 9817   4.574   7.567   1.176 -2.7894 -0.6737  0.9589
   31MOL   H158 9818   4.732   7.493   1.219 -0.6774  2.7216 -0.6102
   31MOL   H159 9819   4.471   7.309   1.468  1.3540  0.3502  0.7942
   31MOL   H160 9820   4.579   7.235   1.358  2.4554  1.2909 -0.6783
   31MOL   H161 9821   4.427   7.321   1.300 -0.8476  0.5555  1.5017
   31MOL   C162 9822   4.819   7.633   1.571 -0.1438  0.6223 -0.5448
   31MOL   C163 9823   4.938   7.558   1.514 -0.6050 -0.2080  0.0524
   31MOL   C164 9824   5.022   7.497   1.621  0.0768 -0.2491  0.7082
   31MOL   O165 9825   5.074   7.573   1.703 -0.3383  0.5964 -0.0360
   31MOL   N166 9826   5.030   7.359   1.630  0.1457 -0.8786 -1.1627
   31MOL   C167 9827   4.932   7.263   1.575 -0.1560  0.8300 -0.3998
   31MOL   C168 9828   5.135   7.296   1.713 -0.0444  0.4699 -0.5732
   31MOL   H169 9829   4.855   7.730   1.607  0.4084 -0.0092  0.6172
   31MOL   H170 9830   4.777   7.588   1.661  1.5896  1.2388  0.5894
   31MOL   H171 9831   4.896   7.487   1.442  1.1033  0.1492 -1.3270
   31MOL   H172 9832   4.846   7.321   1.543 -0.4469 -0.1169 -1.3284
   31MOL   H173 9833   4.955   7.188   1.499 -0.9088 -0.9570  1.0882
   31MOL   H174 9834   4.900   7.201   1.659  1.7636 -0.3426 -0.5002
   31MOL   H175 9835   5.135   7.346   1.810  0.6289  0.9019 -0.7938
   31MOL   H176 9836   5.228   7.306   1.656 -0.1675  0.1689 -0.8242
   31MOL   H177 9837   5.112   7.194   1.744  2.2269  0.0005 -0.3359
   31MOL   C178 9838   5.033   7.649   1.422  0.0847  0.6029 -0.4622
   31MOL   C179 9839   5.102   7.592   1.300 -0.4022 -0.2588 -0.0459
   31MOL   C180 9840   5.195   7.478   1.340  0.7877 -0.2051  0.1206
   31MOL   O181 9841   5.289   7.502   1.418  0.3865 -0.6420  0.5253
   31MOL   N182 9842   5.159   7.353   1.301 -0.0573  0.2875  0.3593
   31MOL   C183 9843   5.055   7.317   1.207 -0.1044  0.1316 -0.4516
   31MOL   C184 9844   5.249   7.237   1.327 -0.4145  0.1827  0.1892
   31MOL   H185 9845   4.959   7.709   1.369 -0.3817 -0.4285 -1.0124
   31MOL   H186 9846   5.105   7.714   1.471 -0.6397  1.1707 -0.1544
   31MOL   H187 9847   5.025   7.564   1.229  2.1115  0.3301 -3.1151
   31MOL   H188 9848   5.074   7.366   1.112  0.4722  1.2145  0.2188
   31MOL   H189 9849   5.039   7.209   1.197 -1.4576  0.3006 -0.2423
   31MOL   H190 9850   4.960   7.362   1.237  1.1848  1.8866  1.0677
   31MOL   H191 9851   5.193   7.143   1.329 -0.8448  0.4400  0.1941
   31MOL   H192 9852   5.302   7.226   1.421 -0.7224 -0.6513  0.2737
   31MOL   H193 9853   5.323   7.232   1.247  1.2502 -1.2069  1.7731
   31MOL   C194 9854   5.190   7.706   1.229 -0.2579 -0.0270  0.5502
   31MOL   C195 9855   5.181   7.730   1.082  0.1163  0.7895  0.5107
   31MOL   C196 9856   5.227   7.604   1.001  0.0408 -0.7214 -0.2527
   31MOL   O197 9857   5.319   7.532   1.050  0.4772  0.8761 -0.1161
   31MOL   N198 9858   5.180   7.585   0.879 -0.3553 -0.6377  0.3238
   31MOL   C199 9859   5.231   7.471   0.800 -0.3086  0.2533 -0.0297
   31MOL   C200 9860   5.059   7.657   0.829  0.1551 -0.3094 -0.1246
   31MOL   H201 9861   5.172   7.800   1.280 -0.0742 -1.3312  3.0597
   31MOL   H202 9862   5.296   7.683   1.243 -0.2399 -2.0687 -2.3845
   31MOL   H203 9863   5.076   7.750   1.061 -0.2048 -0.3715  0.9603
   31MOL   H204 9864   5.176   7.449   0.709  1.1115  2.4676 -1.5028
   31MOL   H205 9865   5.338   7.473   0.778 -0.3451  0.5409 -0.1925
   31MOL   H206 9866   5.217   7.390   0.871  0.8951  2.4458  2.8603
   31MOL   H207 9867   4.974   7.598   0.861 -1.7059  0.9359 -2.6274
   31MOL   H208 9868   5.057   7.639   0.722 -0.0404 -0.2746 -0.1275
   31MOL   H209 9869   5.053   7.761   0.862  0.1673 -0.5435  0.6384
   31MOL   C210 9870   5.259   0.000   1.035  0.2369  0.4082 -0.2239
   31MOL   C211 9871   5.413   0.002   1.050  0.5470  0.2613 -0.6266
   31MOL   C212 9872   5.454   0.030   1.197  0.9699 -0.6008 -0.1830
   31MOL   O213 9873   5.404   0.126   1.260 -0.2030  0.0099  0.2738
   31MOL   N214 9874   5.548   7.804   1.258  0.2084 -0.2318  0.1755
   31MOL   C215 9875   5.603   7.848   1.390 -0.0435  0.3830 -0.0352
   31MOL   C216 9876   5.591   7.669   1.217  0.4737  0.4071 -0.7124
   31MOL   H217 9877   5.233   0.022   0.932 -2.2018 -0.6981  0.1377
   31MOL   H218 9878   5.206   0.082   1.083 -2.3375 -0.0756 -2.1594
   31MOL   H219 9879   5.443   7.752   1.034 -0.2161  0.3545 -2.9021
   31MOL   H220 9880   5.685   7.795   1.438  1.7535  1.1457 -2.1478
   31MOL   H221 9881   5.623   0.102   1.400  0.8864  0.1377  0.9036
   31MOL   H222 9882   5.520   7.840   1.460 -1.3447 -0.3553 -1.6342
   31MOL   H223 9883   5.541   7.598   1.282  0.9559 -0.0106 -0.7924
   31MOL   H224 9884   5.695   7.663   1.249  1.0466 -2.2447 -2.8299
   31MOL   H225 9885   5.585   7.631   1.115 -1.5881  0.6665 -0.6966
   31MOL   C226 9886   5.491   0.081   0.949  0.0698  0.8104  0.1798
   31MOL   C227 9887   5.508   0.231   0.963  0.0994 -0.6149  0.7434
   31MOL   C228 9888   5.376   0.304   0.931  0.1671 -0.0235 -0.4323
   31MOL   O229 9889   5.332   0.298   0.810 -0.2669  0.0349  0.7919
   31MOL   N230 9890   5.316   0.377   1.033  0.4759 -0.3279 -0.3565
   31MOL   C231 9891   5.372   0.407   1.163 -0.2611 -0.5640 -0.3719
   31MOL   C232 9892   5.179   0.424   1.013 -0.3098 -0.0036  0.0271
   31MOL   H233 9893   5.589   0.034   0.939 -0.4534 -0.3232  0.2315
   31MOL   H234 9894   5.461   0.059   0.846 -0.5813 -1.3529  0.8043
   31MOL   H235 9895   5.540   0.257   1.064  2.0672 -0.1915  0.0283
   31MOL   H236 9896   5.341   0.350   1.251  1.4529  0.8939  1.2001
   31MOL   H237 9897   5.478   0.429   1.172  0.0491 -2.9884  2.4321
   31MOL   H238 9898   5.342   0.508   1.191  0.0103 -0.9409  1.2884
   31MOL   H239 9899   5.161   0.512   1.074  2.7030  1.9836 -1.8113
   31MOL   H240 9900   5.108   0.348   1.044 -1.0549  0.3659 -0.7423
   31MOL   H241 9901   5.153   0.445   0.909 -0.5271  0.8818  0.2584
   31MOL   C242 9902   5.620   0.293   0.873  0.1618 -0.3199  0.5074
   31MOL   C243 9903   5.770   0.265   0.906 -0.1726  0.7635 -0.0226
   31MOL   C244 9904   5.805   0.326   1.047 -0.0239 -0.0221 -0.3068
   31MOL   O245 9905   5.794   0.451   1.057 -0.2885 -0.3031 -0.0313
   31MOL   N246 9906   5.852   0.246   1.146  0.2343 -0.0624  0.3919
   31MOL   C247 9907   5.898   0.293   1.274 -0.0366  0.3035 -0.4851
   31MOL   C248 9908   5.861   0.097   1.132  0.5068  0.2056 -0.0300
   31MOL   H249 9909   5.597   0.268   0.770 -0.1430 -0.2285  0.5530
   31MOL   H250 9910   5.612   0.401   0.880  1.5739 -0.3024  2.1957
   31MOL   H251 9911   5.794   0.158   0.910 -0.4179  0.6632 -1.0737
   31MOL   H252 9912   6.006   0.296   1.286 -0.1738  2.6837  0.3674
   31MOL   H253 9913   5.850   0.390   1.286  0.5591  0.5768 -0.2818
   31MOL   H254 9914   5.855   0.232   1.354 -0.5328 -1.5038 -2.0973
   31MOL   H255 9915   5.899   0.046   1.220 -0.0089  1.5500  0.9939
   31MOL   H256 9916   5.936   0.091   1.053 -1.5554  1.1218 -2.1387
   31MOL   H257 9917   5.758   0.063   1.114  0.5783  0.2106 -0.4594
   31MOL   C258 9918   5.851   0.343   0.795 -0.7491 -0.5303 -0.7229
   31MOL   C259 9919   5.860   0.283   0.646 -0.6984  0.6142  0.9348
   31MOL   C260 9920   5.909   0.136   0.649  0.0487 -0.3964 -0.3041
   31MOL   O261 9921   6.030   0.123   0.685  0.2217  0.3001 -0.3139
   31MOL   N262 9922   5.831   0.036   0.601 -0.1972 -0.1594 -0.7716
   31MOL   C263 9923   5.686   0.039   0.605 -0.7226  0.2924 -0.0653
   31MOL   C264 9924   5.889   7.760   0.585 -0.3744 -0.5954  0.2047
   31MOL   H265 9925   5.806   0.442   0.780 -0.3114 -0.5074 -1.9261
   31MOL   H266 9926   5.951   0.377   0.823  0.0183 -2.2000 -1.3990
   31MOL   H267 9927   5.759   0.281   0.604 -0.2786 -1.0456 -0.0405
   31MOL   H268 9928   5.651   0.120   0.541 -0.4568  0.7972  0.4201
   31MOL   H269 9929   5.647   7.792   0.590 -0.0582 -0.0649  0.5475
   31MOL   H270 9930   5.660   0.069   0.707 -0.1199  2.0385 -0.4081
   31MOL   H271 9931   5.980   7.770   0.527 -1.0230 -3.5265 -1.4183
   31MOL   H272 9932   5.829   7.707   0.511 -1.7210  0.7396  0.3174
   31MOL   H273 9933   5.909   7.728   0.687 -1.5909 -1.5564  0.1532
   31MOL   C274 9934   5.956   0.369   0.560  0.2063  0.3602  0.1001
   31MOL   C275 9935   5.983   0.335   0.406  0.3682  0.3407  0.4531
   31MOL   C276 9936   6.095   0.434   0.358 -0.6587 -0.0999  0.4944
   31MOL   O277 9937   6.073   0.557   0.358 -0.2197 -0.7467 -0.1916
   31MOL   N278 9938   6.207   0.385   0.298  0.0317  0.3376 -0.0884
   31MOL   C279 9939   6.291   0.471   0.218 -0.1776  0.2943 -0.0415
   31MOL   C280 9940   6.245   0.246   0.296 -0.1857  0.3140  0.0374
   31MOL   H281 9941   5.922   0.471   0.575  2.7974  1.4315 -0.9342
   31MOL   H282 9942   6.046   0.365   0.622 -0.8911  0.1666  1.6882
   31MOL   H283 9943   6.016   0.231   0.399 -1.2731 -0.1599  0.1466
   31MOL   H284 9944   6.394   0.496   0.244 -1.0492  4.6715 -0.4245
   31MOL   H285 9945   6.300   0.429   0.117  0.5528 -0.9289  0.5282
   31MOL   H286 9946   6.250   0.567   0.189  0.5357  0.7911  0.5801
   31MOL   H287 9947   6.185   0.197   0.220  0.0740  1.9928 -1.2972
   31MOL   H288 9948   6.229   0.194   0.390 -0.6838 -0.6872 -0.5900
   31MOL   H289 9949   6.348   0.226   0.267 -0.0376 -0.1636  0.8861
   31MOL   C290 9950   5.852   0.359   0.327  0.2538 -0.4065  0.6102
   31MOL   C291 9951   5.853   0.302   0.183  0.1327 -0.2339  0.0366
   31MOL   C292 9952   5.782   0.395   0.091  0.5640 -0.7037  0.3449
   31MOL   O293 9953   5.690   0.461   0.137  0.0425 -0.3909  0.5389
   31MOL   N294 9954   5.820   0.409   7.816 -0.6029 -0.4183 -0.3993
   31MOL   C295 9955   5.932   0.342   7.757  0.0316  0.5879  0.7366
   31MOL   C296 9956   5.755   0.494   7.721  0.5011 -0.1944 -0.4226
   31MOL   H297 9957   5.765   0.333   0.388  0.8711 -1.6435  0.9732
   31MOL   H298 9958   5.837   0.467   0.328  0.9077 -0.3040 -0.4572
   31MOL   H299 9959   5.958   0.299   0.155  0.2164 -2.5901  0.5118
   31MOL   H300 9960   6.024   0.358   7.813  2.8763 -1.8871 -3.0046
   31MOL   H301 9961   5.924   0.234   7.764  1.4877  0.5292  1.7298
   31MOL   H302 9962   5.953   0.354   7.651 -0.3440 -4.5272 -0.0151
   31MOL   H303 9963   5.762   0.601   7.741  2.5936 -0.4260  0.2053
   31MOL   H304 9964   5.650   0.470   7.703  0.2683  1.5560 -1.4974
   31MOL   H305 9965   5.792   0.478   7.620 -1.7246  0.2993 -1.3438
   31MOL   C306 9966   5.806   0.157   0.173  0.5658 -0.3988 -0.3736
   31MOL   C307 9967   5.656   0.132   0.201  0.1095 -1.3180  0.0526
   31MOL   C308 9968   5.617   7.832   0.208 -0.2894 -0.6307 -0.0199
   31MOL   O309 9969   5.705   7.744   0.209 -0.1886 -0.1907  0.4910
   31MOL   N310 9970   5.485   7.799   0.194  0.0643 -0.0646  0.4095
   31MOL   C311 9971   5.375   0.046   0.172 -0.1526  0.0419 -0.1042
   31MOL   C312 9972   5.444   7.658   0.194  0.0991 -1.2545  0.0687
   31MOL   H313 9973   5.807   0.120   0.071 -1.6690  2.3004 -1.4300
   31MOL   H314 9974   5.870   0.093   0.234 -0.5267 -0.6205  0.5556
   31MOL   H315 9975   5.623   0.173   0.297 -1.8539  0.7705 -1.4655
   31MOL   H316 9976   5.292   0.019   0.236  0.6858  2.2607  1.9829
   31MOL   H317 9977   5.403   0.148   0.197  1.9343 -0.8385  1.3341
   31MOL   H318 9978   5.342   0.055   0.068 -1.5196 -3.2189 -0.0075
   31MOL   H319 9979   5.479   7.613   0.101 -1.3619 -2.9264  0.3011
   31MOL   H320 9980   5.336   7.643   0.186  0.1780 -0.8747 -1.9768
   31MOL   H321 9981   5.478   7.615   0.288 -1.5499 -0.3068  1.1058
   31MOL   H322 9982   5.599   0.187   0.125  1.4356 -1.5460 -1.1182
   32MOL     C1 9983   4.592   2.141   3.518 -0.2818 -0.2273 -0.3200
   32MOL     C2 9984   4.542   2.019   3.437  0.1574  0.7071 -0.7725
   32MOL     C3 9985   4.404   2.049   3.374 -0.8455  0.4055 -0.3848
   32MOL     O4 9986   4.322   2.116   3.437  0.5563  0.1080  0.5387
   32MOL     N5 9987   4.377   2.001   3.249  0.9098 -0.4740  0.4822
   32MOL     C6 9988   4.251   2.036   3.184  0.2323 -0.3759  0.1450
   32MOL     C7 9989   4.462   1.917   3.162 -0.0353  0.0718 -0.7203
   32MOL     H8 9990   4.540   2.144   3.614 -1.5749  0.0165 -1.0114
   32MOL     H9 9991   4.569   2.236   3.469  0.1347 -0.0877 -0.2448
   32MOL    H10 9992   4.612   2.000   3.356 -0.6935  4.8182 -2.5600
   32MOL    H11 9993   4.184   2.107   3.232  0.5707  0.0602 -0.0261
   32MOL    H12 9994   4.277   2.064   3.082 -0.5398 -0.7907 -0.1738
   32MOL    H13 9995   4.185   1.948   3.186 -0.3136  0.0257 -0.0055
   32MOL    H14 9996   4.510   1.830   3.207  2.9204  1.8454 -0.2749
   32MOL    H15 9997   4.538   1.971   3.106  2.6073 -0.8054  1.8424
   32MOL    H16 9998   4.400   1.867   3.087 -0.3406 -1.2052  0.3575
   32MOL    H17 9999   4.697   2.144   3.545  0.2252  1.9359 -2.3710
   32MOL    C1810000   4.526   1.893   3.526 -0.3852 -1.1815  0.0364
   32MOL    C1910001   4.663   1.831   3.574  0.0043 -0.1750  0.3552
   32MOL    C2010002   4.726   1.760   3.446 -0.3330 -0.1804 -0.5965
   32MOL    O2110003   4.679   1.658   3.387  0.0965 -0.1658 -0.1706
   32MOL    N2210004   4.843   1.808   3.400  0.9352 -0.0736  0.5170
   32MOL    C2310005   4.918   1.917   3.466  0.2506  0.2096  0.4974
   32MOL    C2410006   4.899   1.770   3.269 -0.0245  0.0484  0.4372
   32MOL    H2510007   4.468   1.924   3.612 -2.8081 -1.3525 -1.4740
   32MOL    H2610008   4.463   1.820   3.474 -0.0631 -0.0135 -2.0726
   32MOL    H2710009   4.719   1.915   3.615 -0.4265  0.1909  0.1899
   32MOL    H2810010   5.001   1.950   3.403 -1.1081  1.3473 -0.7426
   32MOL    H2910011   4.864   2.009   3.490  1.3042  0.8219  0.5321
   32MOL    H3010012   4.956   1.875   3.559  3.1250  0.3147 -0.6004
   32MOL    H3110013   4.897   1.661   3.266 -0.4226  0.0174  1.5851
   32MOL    H3210014   5.004   1.785   3.245 -0.5377 -0.5245 -2.3235
   32MOL    H3310015   4.834   1.814   3.194 -0.7548  0.3971  1.2744
   32MOL    C3410016   4.619   1.736   3.691  0.1463  0.2492  0.2153
   32MOL    C3510017   4.724   1.657   3.779  0.7905 -0.3265  0.5883
   32MOL    C3610018   4.795   1.761   3.870  0.4679 -0.4575 -0.0916
   32MOL    O3710019   4.869   1.839   3.809  0.1869  0.1110 -0.1647
   32MOL    N3810020   4.782   1.757   4.002  0.1393 -0.1077  0.5675
   32MOL    C3910021   4.862   1.833   4.090 -0.8084  1.0536 -0.2359
   32MOL    C4010022   4.686   1.676   4.072  0.0592  0.0600 -0.0946
   32MOL    H4110023   4.547   1.779   3.761 -1.1802  0.5941 -1.3364
   32MOL    H4210024   4.573   1.647   3.648  0.5136  0.4143 -0.5298
   32MOL    H4310025   4.660   1.593   3.839  1.1793 -1.8299 -0.5597
   32MOL    H4410026   4.942   1.893   4.046  1.1391 -1.3564 -0.0733
   32MOL    H4510027   4.796   1.906   4.138 -2.3752  0.3575 -1.2984
   32MOL    H4610028   4.908   1.769   4.166 -1.1553  0.6452 -0.3708
   32MOL    H4710029   4.691   1.569   4.049 -1.2800  0.0295 -0.2920
   32MOL    H4810030   4.586   1.685   4.030 -1.1587 -0.5641  2.5872
   32MOL    H4910031   4.690   1.697   4.178 -0.3091 -0.5265  0.0385
   32MOL    C5010032   4.827   1.567   3.706 -0.6415  0.2265  0.3206
   32MOL    C5110033   4.901   1.460   3.790 -0.0072  0.3710  0.2670
   32MOL    C5210034   4.798   1.357   3.831 -0.0913  0.4768 -0.0671
   32MOL    O5310035   4.733   1.371   3.931 -0.6772 -0.2773  0.5896
   32MOL    N5410036   4.790   1.238   3.763  0.6353 -0.6291 -0.0673
   32MOL    C5510037   4.875   1.189   3.654  0.0662 -0.4406  0.4366
   32MOL    C5610038   4.697   1.136   3.807 -0.3567 -0.1594 -0.0106
   32MOL    H5710039   4.777   1.513   3.625  2.4386 -1.6898 -0.3733
   32MOL    H5810040   4.889   1.637   3.649  0.9636 -0.2180  1.5008
   32MOL    H5910041   4.977   1.414   3.726  0.2107  0.7486  0.2522
   32MOL    H6010042   4.905   1.263   3.580  2.6073 -1.4155  0.4468
   32MOL    H6110043   4.962   1.145   3.703  0.1554  0.8112  1.4381
   32MOL    H6210044   4.826   1.109   3.599 -2.8330  0.9214  0.9303
   32MOL    H6310045   4.599   1.184   3.808  0.8290  2.3506 -1.2317
   32MOL    H6410046   4.728   1.099   3.905  3.5564  4.1452  0.5059
   32MOL    H6510047   4.684   1.052   3.738  1.2197  0.6443 -1.3031
   32MOL    C6610048   4.993   1.501   3.917 -0.5000  0.1792 -0.3925
   32MOL    C6710049   5.111   1.401   3.940  0.5220  0.0315  0.4436
   32MOL    C6810050   5.129   1.361   4.085  0.5123 -0.2440 -0.1317
   32MOL    O6910051   5.189   1.450   4.149  0.0600  0.5758 -0.7402
   32MOL    N7010052   5.070   1.247   4.142 -0.5374 -0.2102  0.4799
   32MOL    C7110053   4.996   1.144   4.068 -0.3198  0.4913  0.3278
   32MOL    C7210054   5.080   1.220   4.283  0.4556  0.1722  0.6709
   32MOL    H7310055   5.048   1.594   3.904  1.4225 -0.5618  2.0931
   32MOL    H7410056   4.932   1.502   4.007  0.6846 -0.5011  0.4240
   32MOL    H7510057   5.080   1.308   3.891  0.7082  0.5664 -0.7134
   32MOL    H7610058   4.910   1.179   4.011 -0.2413 -1.3067 -0.9459
   32MOL    H7710059   5.058   1.098   3.991 -0.8717  1.5313 -0.7524
   32MOL    H7810060   4.967   1.065   4.137  1.0780  0.7932  1.3004
   32MOL    H7910061   5.087   1.304   4.353 -0.3709  0.4790  0.3924
   32MOL    H8010062   5.155   1.145   4.310  0.2990 -0.0455  0.4994
   32MOL    H8110063   4.990   1.168   4.316  0.1944  1.0738  1.3896
   32MOL    C8210064   5.252   1.453   3.882  0.0667  0.1377  0.2420
   32MOL    C8310065   5.267   1.487   3.728  0.2598 -0.2286  0.2874
   32MOL    C8410066   5.251   1.359   3.641  0.2999  0.5820  0.4822
   32MOL    O8510067   5.301   1.256   3.697  0.3843 -0.0312  0.2160
   32MOL    N8610068   5.193   1.361   3.518 -0.1760 -0.4610 -0.7324
   32MOL    C8710069   5.132   1.485   3.464  0.1039  0.6936  0.5523
   32MOL    C8810070   5.177   1.241   3.444 -0.4620 -0.0390 -0.0579
   32MOL    H8910071   5.271   1.544   3.938  0.3906  1.8944 -2.6208
   32MOL    H9010072   5.339   1.391   3.904 -0.4768 -0.9415 -0.5767
   32MOL    H9110073   5.190   1.562   3.706 -1.0461 -1.5343  0.3101
   32MOL    H9210074   5.105   1.491   3.359 -1.2747 -1.0763  0.7791
   32MOL    H9310075   5.035   1.502   3.510 -1.8349  0.3580 -3.2497
   32MOL    H9410076   5.191   1.573   3.489 -0.1796  1.1107 -0.2630
   32MOL    H9510077   5.089   1.186   3.480 -0.3182  0.3261  0.8712
   32MOL    H9610078   5.261   1.177   3.472 -1.5684 -1.5167 -0.0056
   32MOL    H9710079   5.176   1.266   3.338 -0.4661 -2.0215 -0.5592
   32MOL    C9810080   5.403   1.548   3.700 -0.2699  0.2649 -0.1195
   32MOL    C9910081   5.433   1.694   3.743  0.0444  0.0791  0.1096
   32MOL   C10010082   5.339   1.795   3.674 -0.1935 -0.3660 -0.1492
   32MOL   O10110083   5.336   1.803   3.549  0.2082 -0.0153 -0.0061
   32MOL   N10210084   5.270   1.891   3.741  0.3322 -0.4899 -0.3087
   32MOL   C10310085   5.253   2.028   3.697 -0.5970 -0.3926 -0.4534
   32MOL   C10410086   5.195   1.871   3.867 -0.5653 -0.1517  0.8305
   32MOL   H10510087   5.483   1.480   3.732  0.2922  1.1392  0.3407
   32MOL   H10610088   5.409   1.553   3.591  0.2512  2.3039 -0.0075
   32MOL   H10710089   5.424   1.717   3.849  0.2988 -0.7500  0.3129
   32MOL   H10810090   5.148   2.042   3.673 -0.7742 -2.1883 -0.8004
   32MOL   H10910091   5.281   2.103   3.770  0.7604 -1.2678 -0.0573
   32MOL   H11010092   5.312   2.038   3.605  0.1434 -1.0436 -0.0571
   32MOL   H11110093   5.116   1.801   3.839  1.4656 -1.6254 -1.3423
   32MOL   H11210094   5.137   1.956   3.903 -0.9042  0.5578 -1.3590
   32MOL   H11310095   5.259   1.838   3.948  0.2439  2.0657  1.1102
   32MOL   C11410096   5.582   1.733   3.707  0.4064 -0.8956  0.1008
   32MOL   C11510097   5.692   1.672   3.798 -0.3630  0.7908  0.9481
   32MOL   C11610098   5.675   1.699   3.955 -0.1093  1.0220  0.3893
   32MOL   O11710099   5.667   1.816   3.993  0.2067  0.2644  0.2407
   32MOL   N11810100   5.655   1.596   4.042 -0.1257  0.6331  0.4915
   32MOL   C11910101   5.597   1.612   4.177  0.4003 -0.3807 -0.1633
   32MOL   C12010102   5.718   1.462   4.016  0.0243 -0.2744  0.4421
   32MOL   H12110103   5.590   1.707   3.602  1.5269  2.0656 -0.5999
   32MOL   H12210104   5.581   1.842   3.705  0.6415 -0.9201 -2.9426
   32MOL   H12310105   5.683   1.565   3.779 -1.2321  0.3621  3.5278
   32MOL   H12410106   5.672   1.643   4.250 -0.1830  1.3559 -0.2798
   32MOL   H12510107   5.500   1.660   4.195  0.3429 -1.1181  1.6238
   32MOL   H12610108   5.576   1.510   4.209 -1.2635  0.2842  1.0000
   32MOL   H12710109   5.750   1.426   4.114 -0.1281 -0.0720  0.5690
   32MOL   H12810110   5.808   1.480   3.958 -1.0949  0.2678 -1.1493
   32MOL   H12910111   5.660   1.391   3.958  0.0550 -0.2240  0.3493
   32MOL   C13010112   5.839   1.709   3.759 -0.2112  0.5511  0.3348
   32MOL   C13110113   5.909   1.628   3.646  0.3415 -0.0045  0.0723
   32MOL   C13210114   5.919   1.476   3.686 -0.8450 -0.1212 -0.6401
   32MOL   O13310115   5.972   1.458   3.797  0.2581 -0.4513 -0.1664
   32MOL   N13410116   5.857   1.377   3.618 -0.1661  0.5336  0.6877
   32MOL   C13510117   5.777   1.404   3.498  0.0163 -0.8506  0.0937
   32MOL   C13610118   5.856   1.243   3.675  0.4351  0.2798  0.2828
   32MOL   H13710119   5.830   1.815   3.737 -0.4220  0.8621  1.8520
   32MOL   H13810120   5.905   1.701   3.846 -0.3698  0.7565  0.4759
   32MOL   H13910121   5.838   1.647   3.566  1.7526  1.6390 -0.8132
   32MOL   H14010122   5.829   1.452   3.415 -2.6348  0.2205 -0.9886
   32MOL   H14110123   5.743   1.308   3.460  0.3107 -1.6467  1.7828
   32MOL   H14210124   5.688   1.462   3.520 -0.7490 -1.8436 -0.3765
   32MOL   H14310125   5.955   1.200   3.689  1.2008  1.4805 -1.3992
   32MOL   H14410126   5.800   1.170   3.616  1.8875 -1.6163  1.1695
   32MOL   H14510127   5.808   1.245   3.773  0.7026  2.9732  0.3971
   32MOL   C14610128   6.046   1.688   3.611 -0.1143  0.0840 -0.1755
   32MOL   C14710129   6.129   1.621   3.500  0.0073 -0.5134 -0.0192
   32MOL   C14810130   6.278   1.661   3.516 -0.3520  0.3157 -0.0927
   32MOL   O14910131   6.322   1.755   3.449  0.3492  0.5046 -0.3384
   32MOL   N15010132   6.358   1.585   3.595 -0.3765 -0.4621 -0.4764
   32MOL   C15110133   6.498   1.632   3.618  0.1512  0.0856 -0.6345
   32MOL   C15210134   6.318   1.481   3.687  0.0312  0.8196  0.0251
   32MOL   H15310135   6.035   1.795   3.593 -0.0807  0.5009  2.1261
   32MOL   H15410136   6.099   1.687   3.706  0.2365 -2.0801 -0.3755
   32MOL   H15510137   6.130   1.512   3.506 -1.8341 -0.3840  3.9110
   32MOL   H15610138   6.556   1.659   3.529 -0.1384  0.9074 -0.5731
   32MOL   H15710139   6.508   1.720   3.681  0.1923  0.9167 -1.7798
   32MOL   H15810140   6.565   1.565   3.672 -0.4658  0.9729  1.2652
   32MOL   H15910141   6.347   1.380   3.657  2.1299  0.9451  1.4688
   32MOL   H16010142   6.212   1.485   3.711 -0.2764 -4.2804  0.0156
   32MOL   H16110143   6.352   1.513   3.785  0.6442  1.9342 -0.5427
   32MOL   C16210144   6.073   1.653   3.360  0.6314 -0.4185  0.5112
   32MOL   C16310145   6.114   1.581   3.228 -1.3531 -0.0474  0.8929
   32MOL   C16410146   6.252   1.629   3.173 -0.2752  0.3395 -0.4898
   32MOL   O16510147   6.258   1.741   3.121  0.2261 -0.6635 -0.4206
   32MOL   N16610148   6.359   1.543   3.181 -0.4481 -0.1174  0.8402
   32MOL   C16710149   6.358   1.408   3.231 -0.0839  0.1094  0.2366
   32MOL   C16810150   6.490   1.601   3.148  0.6575 -0.1767  0.0712
   32MOL   H16910151   5.964   1.652   3.362  0.6184 -0.1125  0.1573
   32MOL   H17010152   6.089   1.760   3.346 -0.8911 -0.2482 -0.0334
   32MOL   H17110153   6.128   1.477   3.260  1.7372  1.1939  3.9276
   32MOL   H17210154   6.325   1.402   3.335  3.0569  1.3748  1.3871
   32MOL   H17310155   6.290   1.342   3.178 -1.1634  1.7099 -0.4264
   32MOL   H17410156   6.454   1.356   3.232 -0.0781  0.1062  3.1579
   32MOL   H17510157   6.487   1.635   3.045 -0.9062 -0.3476  0.0513
   32MOL   H17610158   6.576   1.538   3.171  1.3089  0.8455  0.4964
   32MOL   H17710159   6.502   1.684   3.218  1.7880  0.0661 -0.3939
   32MOL   C17810160   6.001   1.578   3.127 -0.6882 -0.3069 -0.4492
   32MOL   C17910161   6.024   1.492   3.005 -0.2316 -0.0846  0.1439
   32MOL   C18010162   5.928   1.537   2.892  0.0947 -0.3983  0.6338
   32MOL   O18110163   5.821   1.480   2.888 -0.2041 -0.0370 -0.5922
   32MOL   N18210164   5.963   1.627   2.800  0.0110  0.2007  0.0050
   32MOL   C18310165   5.866   1.668   2.697 -0.4669  0.1432 -0.2314
   32MOL   C18410166   6.087   1.714   2.812  0.7622  0.2970  0.0420
   32MOL   H18510167   5.911   1.540   3.175 -1.8252  5.2765  2.2647
   32MOL   H18610168   5.975   1.679   3.094 -1.4002 -0.3096  0.0759
   32MOL   H18710169   6.116   1.504   2.948 -0.9370  0.9085 -0.8204
   32MOL   H18810170   5.862   1.777   2.710 -1.1724 -0.0189  1.0269
   32MOL   H18910171   5.914   1.653   2.601  0.0573  0.3348 -0.0015
   32MOL   H19010172   5.773   1.616   2.675  0.9037 -1.8544 -1.4243
   32MOL   H19110173   6.052   1.782   2.889 -2.7704 -1.3146 -0.0513
   32MOL   H19210174   6.109   1.757   2.714  0.1179 -0.4897 -0.4564
   32MOL   H19310175   6.182   1.667   2.838 -0.5729 -0.9833  2.8602
   32MOL   C19410176   6.017   1.346   3.042  0.4672  0.2227  0.5612
   32MOL   C19510177   6.038   1.248   2.922  0.0995 -0.3064  1.1410
   32MOL   C19610178   5.946   1.123   2.933  0.0154  0.4532  0.0823
   32MOL   O19710179   5.973   1.042   3.026  0.6308  0.1925 -0.4470
   32MOL   N19810180   5.831   1.116   2.862  0.2902  0.0359  0.2427
   32MOL   C19910181   5.732   1.005   2.885 -0.0591 -0.0908 -0.1150
   32MOL   C20010182   5.800   1.198   2.748  0.8261 -0.1888  0.1525
   32MOL   H20110183   6.096   1.315   3.110 -0.1220  0.5587  1.4117
   32MOL   H20210184   5.929   1.326   3.103  0.0061 -1.4311 -0.5863
   32MOL   H20310185   6.034   1.300   2.827  0.4866  1.9282  2.3147
   32MOL   H20410186   5.631   1.045   2.884 -0.7090 -1.6784  0.5625
   32MOL   H20510187   5.750   0.928   2.810  2.7815  0.2568  0.1489
   32MOL   H20610188   5.741   0.962   2.985  3.3200  1.0181  0.1544
   32MOL   H20710189   5.892   1.234   2.702  1.3580 -1.1529  0.4434
   32MOL   H20810190   5.741   1.281   2.786  0.2320  0.0876 -1.3320
   32MOL   H20910191   5.725   1.163   2.677 -2.0062  2.6592  1.5908
   32MOL   C21010192   6.186   1.202   2.924  0.1856 -1.5557  0.1427
   32MOL   C21110193   6.253   1.132   2.808  0.6610 -0.4148 -0.4920
   32MOL   C21210194   6.165   1.120   2.681  0.1890 -0.3640 -0.3594
   32MOL   O21310195   6.098   1.018   2.681 -0.3029 -0.1329  1.6676
   32MOL   N21410196   6.160   1.228   2.597  1.0984 -0.2222  0.1846
   32MOL   C21510197   6.086   1.235   2.469  0.2625 -0.5089 -0.2462
   32MOL   C21610198   6.225   1.354   2.622 -0.2942  0.0988  0.2130
   32MOL   H21710199   6.243   1.290   2.952 -0.1803 -1.1973 -0.2366
   32MOL   H21810200   6.210   1.140   3.011 -0.3856 -1.7896  0.1380
   32MOL   H21910201   6.344   1.187   2.781 -0.0094  0.7056 -0.4840
   32MOL   H22010202   6.154   1.249   2.385 -1.7376  1.6120 -1.5812
   32MOL   H22110203   6.039   1.138   2.456 -1.3873  0.0753  1.0435
   32MOL   H22210204   6.020   1.322   2.475  0.2905 -0.5334  0.4570
   32MOL   H22310205   6.333   1.342   2.636 -0.3870  0.9068  1.7542
   32MOL   H22410206   6.187   1.407   2.709 -0.6921  0.8205 -0.4073
   32MOL   H22510207   6.219   1.418   2.534 -0.7690 -2.1232 -1.4072
   32MOL   C22610208   6.311   0.992   2.853 -0.6735  0.9819 -0.4592
   32MOL   C22710209   6.443   1.010   2.939  0.2798  0.3963  0.1027
   32MOL   C22810210   6.551   1.048   2.835 -0.6436  0.7014 -0.5489
   32MOL   O22910211   6.581   0.973   2.741  0.4226  0.2425 -0.3519
   32MOL   N23010212   6.625   1.161   2.857 -0.5355  0.5978  0.2852
   32MOL   C23110213   6.599   1.264   2.959  0.3201 -0.0826  0.4040
   32MOL   C23210214   6.750   1.180   2.784 -0.2652  0.2493  0.4072
   32MOL   H23310215   6.235   0.944   2.914 -0.1283 -0.2718 -0.7551
   32MOL   H23410216   6.322   0.928   2.766  3.8810 -1.4945  1.7281
   32MOL   H23510217   6.434   1.090   3.012  0.1336 -1.0946  1.7379
   32MOL   H23610218   6.494   1.293   2.967  0.6488  0.8585  1.4434
   32MOL   H23710219   6.626   1.227   3.058 -1.0666 -1.1165  0.4145
   32MOL   H23810220   6.668   1.345   2.936  0.3350 -0.6503 -1.6671
   32MOL   H23910221   6.831   1.185   2.856 -0.4804  1.2683  0.5976
   32MOL   H24010222   6.742   1.271   2.725 -0.6769 -0.9949 -1.4927
   32MOL   H24110223   6.778   1.100   2.716 -0.7240  0.9736 -0.6603
   32MOL   C24210224   6.464   0.882   3.022 -0.2098  0.5665 -0.3739
   32MOL   C24310225   6.584   0.898   3.119 -0.3373 -0.0103  0.1229
   32MOL   C24410226   6.647   0.768   3.166  1.0923 -0.0954  0.9330
   32MOL   O24510227   6.580   0.714   3.257 -0.3369  0.4946  0.0215
   32MOL   N24610228   6.766   0.733   3.124  1.2630  0.0959 -0.2156
   32MOL   C24710229   6.846   0.633   3.197  0.0468  0.7995  0.3608
   32MOL   C24810230   6.816   0.763   2.997 -0.5549  0.0213 -0.1398
   32MOL   H24910231   6.373   0.853   3.075 -0.1434  1.3494  0.1703
   32MOL   H25010232   6.495   0.815   2.941  1.9034  1.2418 -0.1511
   32MOL   H25110233   6.660   0.953   3.065  1.2091  0.1281  2.3579
   32MOL   H25210234   6.951   0.661   3.193  0.4118 -0.3164  1.6958
   32MOL   H25310235   6.802   0.615   3.295 -0.5329  0.6494  0.0731
   32MOL   H25410236   6.831   0.543   3.138 -0.0364  0.6561  0.5999
   32MOL   H25510237   6.861   0.863   3.000  1.5191 -0.9267  0.7642
   32MOL   H25610238   6.743   0.753   2.916 -0.8154  1.2886 -0.0803
   32MOL   H25710239   6.887   0.689   2.960  1.2767  2.2055 -1.1363
   32MOL   C25810240   6.545   0.997   3.232 -0.3085  0.8874  0.0957
   32MOL   C25910241   6.626   1.000   3.365 -0.6416 -0.2298 -0.8050
   32MOL   C26010242   6.551   1.079   3.466  0.6313  0.1326  0.1888
   32MOL   O26110243   6.565   1.202   3.464  0.6338  0.3519  0.2975
   32MOL   N26210244   6.495   1.023   3.566  0.4614  0.0917 -0.3943
   32MOL   C26310245   6.472   1.076   3.697 -0.1247  0.4008 -0.2074
   32MOL   C26410246   6.422   0.890   3.551  0.7209  0.1044 -0.1007
   32MOL   H26510247   6.534   1.099   3.195 -2.6394  0.1762 -1.3472
   32MOL   H26610248   6.439   0.977   3.253  0.0929 -1.6237 -0.1305
   32MOL   H26710249   6.628   0.901   3.411 -0.7838  0.7592  1.4072
   32MOL   H26810250   6.461   0.991   3.764  0.5974  0.6344  0.2068
   32MOL   H26910251   6.560   1.136   3.719 -1.9320  2.3690  1.9921
   32MOL   H27010252   6.383   1.140   3.696  0.7339  1.6217 -1.6355
   32MOL   H27110253   6.481   0.802   3.576  1.5386  0.2544 -1.4638
   32MOL   H27210254   6.385   0.874   3.450  0.3407 -0.2838  0.0955
   32MOL   H27310255   6.342   0.886   3.625  1.6999 -0.7025  0.9259
   32MOL   C27410256   6.775   1.038   3.345 -0.2502 -0.1422 -0.2182
   32MOL   C27510257   6.868   0.933   3.418  0.2184  0.7596  0.7613
   32MOL   C27610258   6.857   0.924   3.573  0.5171 -0.7375  0.6680
   32MOL   O27710259   6.865   1.036   3.628  0.5928  0.2451 -0.2101
   32MOL   N27810260   6.830   0.813   3.636  0.2695  0.4111 -0.3856
   32MOL   C27910261   6.831   0.685   3.565 -0.2555  0.0234 -0.1963
   32MOL   C28010262   6.814   0.806   3.780  0.4301  0.5651 -0.0080
   32MOL   H28110263   6.800   1.049   3.239  0.5577  1.6797  0.1574
   32MOL   H28210264   6.794   1.142   3.371  0.3715  0.2385 -2.0806
   32MOL   H28310265   6.846   0.835   3.375 -0.6746  2.2618 -2.3385
   32MOL   H28410266   6.836   0.597   3.629 -3.8260  0.6453  1.0316
   32MOL   H28510267   6.740   0.669   3.507  0.0154 -0.2380 -0.5492
   32MOL   H28610268   6.924   0.675   3.509 -0.0386  0.0947  0.1500
   32MOL   H28710269   6.709   0.780   3.792  0.4486  1.0883  1.3114
   32MOL   H28810270   6.823   0.902   3.831 -0.0370  1.9875 -2.5034
   32MOL   H28910271   6.887   0.739   3.826  0.2413  1.1704  1.1865
   32MOL   C29010272   7.013   0.965   3.375  0.6110  0.0126  0.5643
   32MOL   C29110273   7.126   0.874   3.432 -0.2439  0.0152  0.4983
   32MOL   C29210274   7.227   0.969   3.506 -0.4277  0.1702  0.2507
   32MOL   O29310275   7.288   1.055   3.445 -0.8938  0.7765 -0.0762
   32MOL   N29410276   7.241   0.953   3.642 -0.3458  0.0607  0.1558
   32MOL   C29510277   7.303   1.063   3.707  0.7234  0.9491  0.1514
   32MOL   C29610278   7.193   0.837   3.720 -0.2842 -0.1296 -0.5364
   32MOL   H29710279   7.028   0.973   3.267  1.5167  1.8819  0.8051
   32MOL   H29810280   7.029   1.067   3.409  2.5710  1.0244 -3.0665
   32MOL   H29910281   7.082   0.798   3.495 -1.2650 -0.2446 -0.5088
   32MOL   H30010282   7.259   1.065   3.807 -0.0552 -1.4609 -0.0997
   32MOL   H30110283   7.408   1.039   3.726  0.4851  0.0706  0.3784
   32MOL   H30210284   7.272   1.159   3.664 -1.2540 -1.0813 -3.2157
   32MOL   H30310285   7.210   0.855   3.826 -0.2108 -1.1637 -0.3729
   32MOL   H30410286   7.247   0.746   3.694 -0.3558 -0.1099 -0.7539
   32MOL   H30510287   7.086   0.817   3.713 -0.4139 -0.2828  1.7457
   32MOL   C30610288   7.189   0.790   3.323  0.1441 -0.6459  0.6363
   32MOL   C30710289   7.289   0.681   3.374 -0.4695  0.4388  0.5788
   32MOL   C30810290   7.234   0.547   3.408  0.1236 -0.4475  0.7512
   32MOL   O30910291   7.118   0.549   3.442 -0.6204  0.4893  0.4980
   32MOL   N31010292   7.301   0.434   3.411 -0.4359 -0.2779 -0.4211
   32MOL   C31110293   7.232   0.307   3.438 -0.7268  0.6327 -0.4091
   32MOL   C31210294   7.447   0.428   3.424  0.6437 -0.0066  0.7221
   32MOL   H31310295   7.120   0.746   3.250 -0.0381 -0.0215  0.4276
   32MOL   H31410296   7.251   0.855   3.262 -0.8625 -2.5743 -2.6179
   32MOL   H31510297   7.364   0.662   3.297 -2.2802  0.7345 -1.3135
   32MOL   H31610298   7.209   0.294   3.543 -1.9911  1.5957 -0.5542
   32MOL   H31710299   7.138   0.320   3.384 -0.2710  1.2918 -1.0669
   32MOL   H31810300   7.283   0.224   3.389 -0.6979 -0.9037  2.1862
   32MOL   H31910301   7.489   0.505   3.488  1.1560  0.1337  0.2244
   32MOL   H32010302   7.503   0.420   3.331  0.9161  1.8081  0.7103
   32MOL   H32110303   7.470   0.337   3.478 -0.8413 -0.1655  1.1110
   32MOL   H32210304   7.342   0.729   3.456  0.2555  0.8276 -0.1163
   33MOL     C110305   5.849   2.815   6.721  0.0111 -1.0511 -0.0235
   33MOL     C210306   5.716   2.822   6.800 -0.0053  0.4107 -0.4798
   33MOL     C310307   5.638   2.955   6.774 -0.0824  0.4474 -0.1451
   33MOL     O410308   5.684   3.061   6.813 -0.6221 -0.0490 -0.1916
   33MOL     N510309   5.511   2.956   6.712 -0.2265 -0.9544  0.1165
   33MOL     C610310   5.495   2.878   6.586  0.0021 -0.9451 -0.2077
   33MOL     C710311   5.418   3.067   6.741  0.0037 -0.6477 -0.9229
   33MOL     H810312   5.830   2.736   6.648 -2.2744 -0.6741  0.1253
   33MOL     H910313   5.940   2.794   6.776  0.6063 -1.2552 -1.0718
   33MOL    H1010314   5.649   2.739   6.776  0.2448 -0.3923  1.5689
   33MOL    H1110315   5.581   2.842   6.530  0.2634  2.6857 -2.3325
   33MOL    H1210316   5.422   2.800   6.607  0.0514 -1.0878 -0.5683
   33MOL    H1310317   5.458   2.945   6.508  2.3043  0.3474 -0.2670
   33MOL    H1410318   5.333   3.027   6.796  0.3321  1.8653  1.4864
   33MOL    H1510319   5.382   3.111   6.648  0.8974 -0.7614 -1.3248
   33MOL    H1610320   5.457   3.142   6.809  1.1765 -1.8764 -0.2137
   33MOL    H1710321   5.872   2.905   6.664  1.1529 -1.2253  0.1482
   33MOL    C1810322   5.747   2.814   6.950 -0.3103  0.1088 -0.7185
   33MOL    C1910323   5.638   2.804   7.051  0.3545  0.4531 -0.1304
   33MOL    C2010324   5.684   2.842   7.195  0.6742  0.4901  0.8624
   33MOL    O2110325   5.734   2.754   7.267 -0.3600 -0.0914  0.7755
   33MOL    N2210326   5.660   2.967   7.246 -0.5486 -0.2393 -0.3508
   33MOL    C2310327   5.614   3.079   7.161 -0.2281  0.3026  0.6290
   33MOL    C2410328   5.679   2.997   7.390  0.2427  0.3184 -0.2311
   33MOL    H2510329   5.809   2.728   6.975 -1.1628 -0.1768  0.4201
   33MOL    H2610330   5.807   2.901   6.975  2.1793 -1.6803 -0.3172
   33MOL    H2710331   5.556   2.864   7.012  0.7933 -0.8175 -3.1111
   33MOL    H2810332   5.678   3.086   7.072  0.4642 -0.4218  1.0615
   33MOL    H2910333   5.511   3.069   7.127 -0.6165  2.5224  1.0745
   33MOL    H3010334   5.625   3.170   7.220 -0.9809  0.0595  1.1444
   33MOL    H3110335   5.685   2.913   7.460 -2.6920 -0.6964 -1.0851
   33MOL    H3210336   5.603   3.064   7.430 -0.2401 -0.4393  0.1435
   33MOL    H3310337   5.776   3.042   7.408 -1.4290  3.0664  2.3883
   33MOL    C3410338   5.577   2.658   7.038  0.4281 -0.3694 -0.0020
   33MOL    C3510339   5.426   2.638   7.074  0.1326 -0.1097 -0.4377
   33MOL    C3610340   5.334   2.726   6.983 -0.0058  0.2935  0.4497
   33MOL    O3710341   5.309   2.834   7.034  0.4419 -0.6009  0.6222
   33MOL    N3810342   5.270   2.682   6.868 -0.1581  0.6412 -0.0003
   33MOL    C3910343   5.174   2.765   6.787  0.6727 -0.5007 -0.1631
   33MOL    C4010344   5.302   2.551   6.811 -0.2287 -0.0430  0.7171
   33MOL    H4110345   5.597   2.614   6.940 -0.1374  0.7294 -0.6105
   33MOL    H4210346   5.647   2.594   7.091  1.2534  0.9419  0.5102
   33MOL    H4310347   5.398   2.535   7.053  0.9660 -0.7150  1.2852
   33MOL    H4410348   5.222   2.810   6.701 -0.0427  0.4052 -0.0972
   33MOL    H4510349   5.099   2.697   6.746  1.0551 -1.1356  0.1703
   33MOL    H4610350   5.132   2.844   6.849 -1.3678 -1.8042  0.1640
   33MOL    H4710351   5.256   2.468   6.865  2.1267 -0.5662  1.9756
   33MOL    H4810352   5.408   2.528   6.804 -0.4995 -0.7312 -1.6288
   33MOL    H4910353   5.268   2.530   6.709  4.4744 -0.3929 -0.9038
   33MOL    C5010354   5.385   2.655   7.222 -0.1653  0.0153  0.1976
   33MOL    C5110355   5.450   2.561   7.330  0.2161  0.3980 -0.1381
   33MOL    C5210356   5.383   2.423   7.329 -0.3255  0.3526 -0.4553
   33MOL    O5310357   5.265   2.409   7.338 -0.8484  0.1521 -0.1815
   33MOL    N5410358   5.459   2.313   7.297  0.4498 -0.5266  0.1930
   33MOL    C5510359   5.410   2.174   7.290  0.1208 -0.5719  0.2240
   33MOL    C5610360   5.603   2.316   7.268 -0.1743 -0.3357 -0.0136
   33MOL    H5710361   5.422   2.752   7.254  0.7954 -0.3578  0.2393
   33MOL    H5810362   5.277   2.672   7.230 -0.0983  1.2613 -1.3157
   33MOL    H5910363   5.551   2.556   7.291  0.4621  0.9176  0.4220
   33MOL    H6010364   5.305   2.175   7.260  0.3020 -1.1800 -0.4344
   33MOL    H6110365   5.467   2.104   7.230  0.2388  0.2060 -0.5781
   33MOL    H6210366   5.402   2.136   7.392 -2.2500  0.1555  0.3567
   33MOL    H6310367   5.659   2.365   7.348 -0.3301 -0.1414 -0.0221
   33MOL    H6410368   5.622   2.375   7.178  0.7247  0.8958  0.9687
   33MOL    H6510369   5.649   2.221   7.242 -1.4589 -0.2644 -2.6895
   33MOL    C6610370   5.463   2.620   7.477  0.0737 -0.3309  0.3793
   33MOL    C6710371   5.556   2.550   7.581 -0.0484 -0.3462  0.8513
   33MOL    C6810372   5.483   2.503   7.707  0.0538 -0.1769  0.1255
   33MOL    O6910373   5.419   2.579   7.777 -0.2736  0.7533 -0.6168
   33MOL    N7010374   5.505   2.377   7.750 -0.2447 -0.2796 -0.1839
   33MOL    C7110375   5.471   2.343   0.036  0.1325 -0.2094 -0.1661
   33MOL    C7210376   5.561   2.263   7.681  0.4367 -0.3001  0.0477
   33MOL    H7310377   5.495   2.724   7.474  0.0732 -0.3654 -1.7211
   33MOL    H7410378   5.359   2.631   7.506 -0.1704 -1.9690  0.1983
   33MOL    H7510379   5.601   2.464   7.532 -0.1807 -0.4615  0.9322
   33MOL    H7610380   5.508   2.243   0.060 -1.9713 -1.9982 -3.9765
   33MOL    H7710381   5.512   2.422   0.098  2.3296 -0.4785 -1.2066
   33MOL    H7810382   5.363   2.347   0.049  0.4142 -0.5696  2.6009
   33MOL    H7910383   5.669   2.262   7.688  0.2644  0.3242  3.7584
   33MOL    H8010384   5.518   2.266   7.581 -0.3480 -0.1234  0.3794
   33MOL    H8110385   5.520   2.168   7.716 -0.4391 -0.9786 -2.6948
   33MOL    C8210386   5.682   2.645   7.615  0.1846 -1.0403  0.3220
   33MOL    C8310387   5.779   2.599   7.720  0.0355  1.0535  0.2173
   33MOL    C8410388   5.834   2.727   7.786  0.3993 -0.1508  0.3152
   33MOL    O8510389   5.937   2.776   7.733  0.2658  0.2493 -0.2716
   33MOL    N8610390   5.781   2.762   0.047  0.3421  0.9853 -0.2500
   33MOL    C8710391   5.846   2.876   0.122 -0.3183 -0.3827 -0.2020
   33MOL    C8810392   5.655   2.720   0.105  0.2970  0.1605  0.8765
   33MOL    H8910393   5.730   2.655   7.518  0.9856 -0.1025  0.8087
   33MOL    H9010394   5.653   2.749   7.632  3.4997  0.2645 -1.4676
   33MOL    H9110395   5.743   2.540   7.805 -3.8727  1.0241 -1.3875
   33MOL    H9210396   5.794   2.905   0.213 -0.6744 -0.5596 -0.3492
   33MOL    H9310397   5.951   2.865   0.152  0.1334  2.1062 -0.7274
   33MOL    H9410398   5.850   2.968   0.063  0.8359 -0.3908 -0.1625
   33MOL    H9510399   5.627   2.616   0.094 -0.6661  0.2810  2.0307
   33MOL    H9610400   5.576   2.792   0.082 -0.8359 -0.6444  2.1419
   33MOL    H9710401   5.657   2.742   0.212  1.6335  0.6569  0.7541
   33MOL    C9810402   5.893   2.521   7.648  0.1278 -0.0863 -0.4778
   33MOL    C9910403   5.989   2.444   7.738 -0.9057 -0.6108 -0.2655
   33MOL   C10010404   6.109   2.403   7.641  0.1954 -0.3675  0.5371
   33MOL   O10110405   6.086   2.304   7.569 -0.1914 -0.3086  0.0095
   33MOL   N10210406   6.226   2.474   7.630 -0.8797 -0.1771 -0.2837
   33MOL   C10310407   6.334   2.444   7.536  0.6568  0.3417 -0.0410
   33MOL   C10410408   6.257   2.581   7.725 -0.7090  0.4007 -0.1971
   33MOL   H10510409   5.846   2.448   7.582  0.2648 -1.6107  1.0674
   33MOL   H10610410   5.939   2.588   7.575 -1.5638  1.1366 -0.4650
   33MOL   H10710411   6.024   2.517   7.811 -0.6973 -0.0663 -0.8947
   33MOL   H10810412   6.374   2.536   7.492 -1.9545  2.3303  1.5609
   33MOL   H10910413   6.420   2.389   7.573  0.9305  0.8019  0.0108
   33MOL   H11010414   6.299   2.382   7.453  1.3232 -1.4142  0.9818
   33MOL   H11110415   6.360   2.613   7.710 -0.0500 -1.9991 -0.9395
   33MOL   H11210416   6.251   2.534   7.823  0.9968 -0.5778 -0.5398
   33MOL   H11310417   6.185   2.663   7.718 -0.4612  0.4946 -1.8610
   33MOL   C11410418   5.927   2.327   7.815 -0.6940  0.6237  0.0889
   33MOL   C11510419   5.999   2.291   0.089  0.3060  0.7104 -0.7354
   33MOL   C11610420   5.994   2.143   0.111 -0.4254  0.7479 -0.1337
   33MOL   O11710421   5.886   2.095   0.145  0.7849 -0.1095  0.1602
   33MOL   N11810422   6.104   2.071   0.087  0.5082 -0.2646 -0.4557
   33MOL   C11910423   6.233   2.122   0.031  0.6360  0.2112 -0.6215
   33MOL   C12010424   6.102   1.931   0.123  0.3410 -0.1225 -0.3648
   33MOL   H12110425   5.820   2.338   7.832 -0.7831 -0.5940  0.3459
   33MOL   H12210426   5.924   2.243   7.746 -0.6131  0.8993 -0.2549
   33MOL   H12310427   6.101   2.325   0.072 -0.6030  3.6742 -0.4142
   33MOL   H12410428   6.283   2.036   7.840 -0.9244 -1.4148  0.7034
   33MOL   H12510429   6.226   2.200   7.809  0.4173  0.1804 -0.6336
   33MOL   H12610430   6.303   2.156   0.108  0.6866  1.9258 -1.4020
   33MOL   H12710431   6.040   1.882   0.047 -0.3662 -0.2025  0.2658
   33MOL   H12810432   6.059   1.914   0.221  1.0326 -0.1128 -0.0619
   33MOL   H12910433   6.204   1.894   0.115  0.5964  0.4400  0.2546
   33MOL   C13010434   5.939   2.363   0.209  0.5129  0.5893 -0.2353
   33MOL   C13110435   6.025   2.410   0.322 -0.1309 -0.5444  0.4578
   33MOL   C13210436   6.131   2.510   0.268 -0.0166 -0.1392 -0.0364
   33MOL   O13310437   6.226   2.463   0.205 -0.3391 -0.5134  0.1975
   33MOL   N13410438   6.123   2.647   0.297  0.0042 -0.9249  0.4405
   33MOL   C13510439   6.208   2.742   0.228  0.4608  0.4801  0.2862
   33MOL   C13610440   6.048   2.700   0.401 -0.3918 -0.1711 -0.0920
   33MOL   H13710441   5.887   2.452   0.172 -0.0598 -0.0351 -0.9460
   33MOL   H13810442   5.862   2.302   0.257  0.9506 -0.7174 -1.1902
   33MOL   H13910443   5.954   2.456   0.391 -1.0959 -1.3022 -0.0239
   33MOL   H14010444   6.216   2.718   0.122 -0.2425  2.2375 -0.1847
   33MOL   H14110445   6.171   2.844   0.238 -0.3429  0.4226 -1.8842
   33MOL   H14210446   6.304   2.725   0.277 -0.8235 -0.7205  2.5171
   33MOL   H14310447   5.950   2.717   0.356  0.1533 -1.3739 -1.8229
   33MOL   H14410448   6.096   2.792   0.433 -0.7791 -0.1925  0.5554
   33MOL   H14510449   6.041   2.634   0.488 -1.2657 -0.5199 -0.4199
   33MOL   C14610450   6.091   2.293   0.402 -0.5747 -0.4865 -0.1743
   33MOL   C14710451   6.126   2.320   0.552  0.0757  0.3963 -0.0999
   33MOL   C14810452   6.259   2.403   0.574  0.7921  0.0063 -0.3569
   33MOL   O14910453   6.354   2.370   0.506 -0.2133  0.4357  0.5435
   33MOL   N15010454   6.263   2.500   0.670  0.4305 -0.1246 -0.7825
   33MOL   C15110455   6.178   2.505   0.787  0.3946 -0.7043 -0.0664
   33MOL   C15210456   6.368   2.609   0.666 -0.2077 -0.0557 -0.8770
   33MOL   H15310457   6.020   2.211   0.406 -0.1442 -0.7886  1.6325
   33MOL   H15410458   6.166   2.251   0.336 -1.5531 -1.8734 -0.4241
   33MOL   H15510459   6.046   2.386   0.586 -0.2837  0.4748 -1.0875
   33MOL   H15610460   6.111   2.421   0.807  2.6415 -1.9518  2.6188
   33MOL   H15710461   6.233   2.497   0.881 -1.2111 -1.3430  0.8370
   33MOL   H15810462   6.125   2.600   0.783  0.5995 -0.5795  0.1741
   33MOL   H15910463   6.468   2.576   0.635  0.8702  0.0747  2.2033
   33MOL   H16010464   6.394   2.634   0.769 -1.2260 -2.8920  0.1340
   33MOL   H16110465   6.346   2.698   0.608 -0.3078  0.8328  0.5091
   33MOL   C16210466   6.119   2.190   0.637  0.2736  0.2496  0.2116
   33MOL   C16310467   5.985   2.116   0.661 -0.0760  0.1037  0.0401
   33MOL   C16410468   5.882   2.219   0.713 -1.0110  1.2728 -0.1580
   33MOL   O16510469   5.915   2.286   0.812 -0.4115  0.2458  0.8410
   33MOL   N16610470   5.768   2.241   0.644  0.2057  0.0448 -0.5848
   33MOL   C16710471   5.707   2.145   0.550 -0.0738  0.2147  0.1724
   33MOL   C16810472   5.685   2.360   0.677 -0.3595 -0.6502 -0.3352
   33MOL   H16910473   6.181   2.115   0.590 -0.0584 -0.2207  0.5162
   33MOL   H17010474   6.165   2.210   0.734 -0.1327  0.7835  0.2979
   33MOL   H17110475   5.962   2.073   0.563 -1.8209  0.1610  0.4087
   33MOL   H17210476   5.603   2.117   0.568  0.3783 -0.7792  1.3079
   33MOL   H17310477   5.721   2.177   0.447  1.7146 -1.6236 -0.1881
   33MOL   H17410478   5.741   2.044   0.573 -0.8578 -0.0960 -0.0001
   33MOL   H17510479   5.726   2.445   0.731 -0.0218 -1.4583  0.6857
   33MOL   H17610480   5.606   2.330   0.745 -2.7316  3.2603 -1.2193
   33MOL   H17710481   5.637   2.408   0.591  1.2618  1.3659 -0.1672
   33MOL   C17810482   6.009   1.995   0.754  0.0025 -0.4900 -0.2089
   33MOL   C17910483   5.896   1.897   0.765  0.3975  0.7807 -0.6137
   33MOL   C18010484   5.899   1.830   0.903 -0.3415  0.0664 -0.4293
   33MOL   O18110485   5.984   1.740   0.929  0.0896 -0.0844 -0.7960
   33MOL   N18210486   5.809   1.881   0.997 -0.3860 -0.2543  0.0913
   33MOL   C18310487   5.714   1.989   0.975 -0.5228 -0.0100 -0.2858
   33MOL   C18410488   5.806   1.830   1.133 -0.1382  0.6132 -0.3212
   33MOL   H18510489   6.093   1.937   0.715 -0.9504 -1.0753 -1.4094
   33MOL   H18610490   6.053   2.022   0.850  1.1502 -0.7464 -0.6519
   33MOL   H18710491   5.801   1.948   0.745 -0.4611  0.4616  2.4510
   33MOL   H18810492   5.647   2.013   1.058 -0.2443  0.2899 -0.1417
   33MOL   H18910493   5.766   2.083   0.954 -0.0962  0.3467  2.1955
   33MOL   H19010494   5.641   1.957   0.901 -2.3215  1.3451  0.8460
   33MOL   H19110495   5.885   1.881   1.189 -0.0661  1.2207 -0.9742
   33MOL   H19210496   5.840   1.727   1.131  4.0800  1.9137 -1.3483
   33MOL   H19310497   5.706   1.838   1.174 -1.4162 -1.2625 -2.9698
   33MOL   C19410498   5.903   1.784   0.650 -0.1363  0.2172  0.2106
   33MOL   C19510499   5.784   1.680   0.628  1.1564 -0.4933 -0.5413
   33MOL   C19610500   5.836   1.590   0.515  0.6096 -0.3409  0.1162
   33MOL   O19710501   5.834   1.632   0.402 -0.0694  0.2241  0.4343
   33MOL   N19810502   5.880   1.465   0.539  0.6355 -0.4351 -0.1516
   33MOL   C19910503   5.940   1.383   0.436 -0.1614 -0.4327  0.0451
   33MOL   C20010504   5.872   1.407   0.674  0.7902  0.6080  0.7918
   33MOL   H20110505   5.922   1.838   0.556  1.4468  0.8427  0.8713
   33MOL   H20210506   5.993   1.729   0.678  0.9251  2.0881  0.5766
   33MOL   H20310507   5.772   1.624   0.720 -1.3912 -1.4312 -1.3962
   33MOL   H20410508   5.874   1.382   0.349  0.0929 -0.4710 -0.1452
   33MOL   H20510509   6.039   1.418   0.407  0.7859 -2.3049  0.9443
   33MOL   H20610510   5.970   1.281   0.461 -0.5821 -0.3773  0.8109
   33MOL   H20710511   5.765   1.399   0.693  1.3038  0.8030  3.9284
   33MOL   H20810512   5.923   1.467   0.750 -1.5248  1.2280  1.8832
   33MOL   H20910513   5.928   1.313   0.676  1.0456  0.6975 -1.0646
   33MOL   C21010514   5.649   1.740   0.594 -0.1355 -0.0086 -0.4405
   33MOL   C21110515   5.542   1.740   0.704  0.6205 -0.3054 -0.6068
   33MOL   C21210516   5.484   1.598   0.725  0.1276 -0.7627 -0.4354
   33MOL   O21310517   5.440   1.532   0.635  0.2325  0.0020  0.2715
   33MOL   N21410518   5.491   1.544   0.848 -0.1402 -0.0225  0.1706
   33MOL   C21510519   5.457   1.402   0.878  0.1600 -0.3032  0.1383
   33MOL   C21610520   5.531   1.613   0.967 -0.0664 -0.2083 -0.2562
   33MOL   H21710521   5.672   1.843   0.568 -0.3999  0.0133 -0.5827
   33MOL   H21810522   5.590   1.699   0.512 -3.1784 -0.6633  1.9712
   33MOL   H21910523   5.596   1.776   0.792 -0.6718 -1.5648  0.7338
   33MOL   H22010524   5.351   1.410   0.904  0.4882  1.2840  1.0682
   33MOL   H22110525   5.464   1.335   0.793  0.3571  1.3722 -1.1985
   33MOL   H22210526   5.516   1.370   0.964  1.5672  2.2541  0.1788
   33MOL   H22310527   5.507   1.559   1.058 -3.5695  2.1621  0.3117
   33MOL   H22410528   5.482   1.707   0.989  2.8462  0.9320  1.5179
   33MOL   H22510529   5.639   1.625   0.965  0.1240 -1.6942  0.2884
   33MOL   C22610530   5.428   1.845   0.682 -0.3746  0.1348 -0.4593
   33MOL   C22710531   5.330   1.832   0.564  0.0482  0.2251  0.1987
   33MOL   C22810532   5.312   1.972   0.493 -0.0766  0.0247 -0.2892
   33MOL   O22910533   5.251   2.055   0.554  0.9464 -0.2222  0.2310
   33MOL   N23010534   5.366   1.999   0.373  0.1650  0.2756  0.3999
   33MOL   C23110535   5.324   2.123   0.307 -0.1170 -0.0882  0.1141
   33MOL   C23210536   5.452   1.906   0.292 -0.3022 -0.4800  0.8142
   33MOL   H23310537   5.365   1.841   0.771  1.6721  1.0514  1.0530
   33MOL   H23410538   5.481   1.940   0.677 -2.5265  1.3076 -2.6660
   33MOL   H23510539   5.376   1.759   0.498 -0.0994 -0.2174  0.5816
   33MOL   H23610540   5.331   2.125   0.198 -0.4900 -1.6332  0.0450
   33MOL   H23710541   5.220   2.145   0.329  0.2596  1.1291  0.6984
   33MOL   H23810542   5.390   2.206   0.333  0.6982 -0.1526 -1.6067
   33MOL   H23910543   5.497   1.952   0.204  1.4569  0.4217  2.1475
   33MOL   H24010544   5.391   1.822   0.257 -0.8740 -0.6549  2.1998
   33MOL   H24110545   5.532   1.853   0.344  0.6471  0.2993  0.1531
   33MOL   C24210546   5.188   1.777   0.609  0.6897  0.2632  0.4734
   33MOL   C24310547   5.069   1.767   0.505  0.2854  0.6455  0.7318
   33MOL   C24410548   4.948   1.721   0.590  0.8744 -0.5440  0.1627
   33MOL   O24510549   4.936   1.606   0.620 -0.2789 -0.0613  0.3374
   33MOL   N24610550   4.862   1.807   0.639 -0.5080 -0.8719  0.6420
   33MOL   C24710551   4.751   1.759   0.723  0.7176 -0.1290 -0.7974
   33MOL   C24810552   4.873   1.957   0.615 -0.6319  0.4646 -0.4528
   33MOL   H24910553   5.205   1.681   0.657 -1.9547 -0.0831  0.7718
   33MOL   H25010554   5.162   1.833   0.698  0.3566 -2.1524  1.9419
   33MOL   H25110555   5.042   1.865   0.468 -1.2850  0.0409  0.2192
   33MOL   H25210556   4.667   1.735   0.658 -0.4234 -1.4782  1.1361
   33MOL   H25310557   4.768   1.664   0.774  0.4362 -0.1933 -0.8258
   33MOL   H25410558   4.730   1.837   0.796 -1.8616 -1.0261 -0.5510
   33MOL   H25510559   4.874   1.980   0.509 -3.3153  1.2685 -0.3403
   33MOL   H25610560   4.960   2.000   0.665  0.6869 -1.4674 -1.0243
   33MOL   H25710561   4.790   2.009   0.663  0.1030  1.0726  0.1731
   33MOL   C25810562   5.086   1.687   0.373 -0.3991 -0.1733 -0.0569
   33MOL   C25910563   5.068   1.768   0.241  0.4943 -0.4967 -0.3891
   33MOL   C26010564   4.918   1.778   0.202  0.6778  0.6460 -0.7362
   33MOL   O26110565   4.857   1.678   0.164 -0.6212 -1.0322 -0.6189
   33MOL   N26210566   4.850   1.898   0.202  0.2289 -0.1703 -0.2869
   33MOL   C26310567   4.906   2.028   0.233 -0.1326 -0.1459  0.5062
   33MOL   C26410568   4.703   1.894   0.160  0.5067  0.6158 -1.0972
   33MOL   H26510569   5.186   1.645   0.382 -0.4164  0.2013  2.1457
   33MOL   H26610570   5.026   1.596   0.372  0.1938 -0.6077  2.5944
   33MOL   H26710571   5.108   1.868   0.259 -1.0587  0.4716 -2.1942
   33MOL   H26810572   4.939   2.073   0.140  0.6363 -0.2334  0.7365
   33MOL   H26910573   4.824   2.095   0.261 -0.5354  0.8921 -2.9927
   33MOL   H27010574   4.983   2.036   0.310  0.9530 -0.3725 -0.5522
   33MOL   H27110575   4.672   1.896   0.056 -4.5534 -0.6148  0.2454
   33MOL   H27210576   4.644   1.973   0.208 -0.5949 -1.1748  0.5819
   33MOL   H27310577   4.662   1.806   0.210  1.2533  0.4647 -0.7504
   33MOL   C27410578   5.157   1.695   0.130 -0.0934  0.1528 -0.6007
   33MOL   C27510579   5.151   1.738   7.832  0.1997  0.3659  0.8712
   33MOL   C27610580   5.207   1.621   7.738 -0.0127  0.2523 -0.5051
   33MOL   O27710581   5.329   1.617   7.714  0.0617 -0.0780  0.0915
   33MOL   N27810582   5.128   1.530   7.685 -0.0701  0.3758 -0.6900
   33MOL   C27910583   4.983   1.537   7.711 -0.3551 -0.1300 -0.4279
   33MOL   C28010584   5.170   1.454   7.569 -0.3781  0.9788  0.3436
   33MOL   H28110585   5.261   1.698   0.164 -0.3548 -0.5598  0.2908
   33MOL   H28210586   5.129   1.590   0.137  2.1083 -0.3977  0.4822
   33MOL   H28310587   5.046   1.756   7.807 -0.1887  2.1281  3.5111
   33MOL   H28410588   4.952   1.628   7.659 -1.5145 -0.0045  0.4539
   33MOL   H28510589   4.930   1.447   7.680  1.1880 -1.3144  0.3190
   33MOL   H28610590   4.957   1.559   7.815  1.0709  2.5399 -0.6015
   33MOL   H28710591   5.225   1.362   7.590 -2.6887 -0.2626  1.1162
   33MOL   H28810592   5.228   1.519   7.503  1.0165 -0.6481 -0.0543
   33MOL   H28910593   5.085   1.415   7.513 -0.0153 -0.4892  0.7942
   33MOL   C29010594   5.226   1.871   7.819 -0.3564  0.4424  0.3256
   33MOL   C29110595   5.173   1.972   7.705  0.2667 -0.5908 -0.1371
   33MOL   C29210596   5.256   1.944   7.580  0.6302  1.4017  0.0387
   33MOL   O29310597   5.379   1.952   7.577 -0.7337 -0.0487 -0.0770
   33MOL   N29410598   5.191   1.907   7.467 -0.1142  0.3834  0.4966
   33MOL   C29510599   5.043   1.906   7.456 -0.6318 -0.0270  0.1182
   33MOL   C29610600   5.251   1.877   7.336 -0.8642  0.0945 -0.6582
   33MOL   H29710601   5.222   1.921   0.062  1.3751 -1.1563  1.2474
   33MOL   H29810602   5.333   1.858   7.808 -0.1400  3.2645 -1.4887
   33MOL   H29910603   5.066   1.951   7.703 -0.4461  2.8788 -2.1954
   33MOL   H30010604   5.011   2.009   7.470 -1.9453 -0.5881  1.3718
   33MOL   H30110605   5.009   1.867   7.360  1.0144 -1.7359  0.1864
   33MOL   H30210606   4.995   1.835   7.524  1.3962 -3.1514 -1.5783
   33MOL   H30310607   5.236   1.773   7.308  1.0759 -0.7200  1.1599
   33MOL   H30410608   5.359   1.892   7.328 -0.8922  0.2251 -0.7984
   33MOL   H30510609   5.211   1.953   7.268 -0.4472  2.1070  1.2989
   33MOL   C30610610   5.204   2.115   7.754 -0.1276 -0.0288 -0.2798
   33MOL   C30710611   5.145   2.220   7.658 -0.3952 -0.3499 -0.1112
   33MOL   C30810612   4.989   2.228   7.674 -0.0409  0.2896  0.2067
   33MOL   O30910613   4.938   2.142   7.746 -0.0642 -0.3649 -0.1826
   33MOL   N31010614   4.920   2.324   7.614 -0.5498 -0.2670 -0.0327
   33MOL   C31110615   4.967   2.432   7.525  0.2828 -0.1679  0.9352
   33MOL   C31210616   4.782   2.344   7.667  0.5324 -0.2798 -0.1135
   33MOL   H31310617   5.172   2.138   0.003 -0.8736  0.2488 -0.5766
   33MOL   H31410618   5.313   2.126   7.762 -0.3058  0.3219  2.4361
   33MOL   H31510619   5.178   2.320   7.683  0.2996 -0.5655 -0.1616
   33MOL   H31610620   4.900   2.516   7.508 -0.7100 -1.3406 -1.1859
   33MOL   H31710621   5.064   2.468   7.557  1.5680 -1.4261 -1.4325
   33MOL   H31810622   4.972   2.389   7.425  2.2252 -0.3396  1.0855
   33MOL   H31910623   4.780   2.421   7.745 -2.2863 -0.1752 -0.2554
   33MOL   H32010624   4.751   2.247   7.704  0.9017 -0.5427 -0.4873
   33MOL   H32110625   4.710   2.364   7.588  0.2651 -1.4782 -0.1799
   33MOL   H32210626   5.173   2.202   7.555 -1.5782 -1.1107 -0.3131
   34MOL     C110627   4.662   0.136   7.418  0.1230  0.0330  0.1010
   34MOL     C210628   4.700   0.213   7.548 -0.9154  0.7947 -0.2976
   34MOL     C310629   4.847   0.173   7.591  0.0540  0.4706  0.1003
   34MOL     O410630   4.884   0.056   7.568 -0.5270  0.0624 -0.3487
   34MOL     N510631   4.934   0.264   7.641 -0.3102  0.6008  0.4057
   34MOL     C610632   5.074   0.241   7.644 -0.2687  0.5560 -0.4498
   34MOL     C710633   4.889   0.390   7.691  0.2584 -0.3754  0.1217
   34MOL     H810634   4.753   0.143   7.357  0.2035  1.0878  0.3321
   34MOL     H910635   4.574   0.177   7.370 -0.0368 -1.1890 -0.6790
   34MOL    H1010636   4.690   0.320   7.531  1.2971  1.0601 -0.0278
   34MOL    H1110637   5.121   0.320   7.585  0.3327  0.1741 -0.4872
   34MOL    H1210638   5.114   0.239   7.745  0.4198  1.3001 -0.7008
   34MOL    H1310639   5.103   0.142   7.607  0.5899  0.8584 -0.5944
   34MOL    H1410640   4.786   0.400   7.725 -0.2439 -1.3257 -1.0972
   34MOL    H1510641   4.892   0.461   7.608  1.6938  2.6932  2.7042
   34MOL    H1610642   4.952   0.426   7.773 -0.0649 -2.5012  1.3455
   34MOL    H1710643   4.652   0.030   7.444 -0.3584  0.2894  0.9744
   34MOL    C1810644   4.604   0.178   7.656 -0.7377 -0.2973  0.0487
   34MOL    C1910645   4.467   0.244   7.664 -0.6711  0.0231 -0.5802
   34MOL    C2010646   4.475   0.398   7.686  0.4472  1.0189 -0.0413
   34MOL    O2110647   4.545   0.445   7.776 -0.6699  0.6852  0.2611
   34MOL    N2210648   4.394   0.478   7.606 -0.7467  0.2879  0.6461
   34MOL    C2310649   4.283   0.433   7.522  0.1717  0.8250  0.2311
   34MOL    C2410650   4.411   0.622   7.606  0.4827 -0.3185 -0.2900
   34MOL    H2510651   4.596   0.069   7.661  1.7793 -0.5010  0.6250
   34MOL    H2610652   4.652   0.210   7.748 -0.3049  0.5658 -0.4680
   34MOL    H2710653   4.414   0.214   7.574 -0.0905 -2.2512 -0.1886
   34MOL    H2810654   4.194   0.476   7.566 -0.2793  0.0871  0.0577
   34MOL    H2910655   4.293   0.479   7.424 -2.9920 -0.6489 -0.8608
   34MOL    H3010656   4.255   0.327   7.522  0.3275  0.7828  0.1531
   34MOL    H3110657   4.359   0.663   7.692  1.5171 -0.3262  0.3346
   34MOL    H3210658   4.365   0.671   7.520  2.2538  0.2167 -0.9543
   34MOL    H3310659   4.516   0.650   7.603 -0.2918  2.6937 -0.1877
   34MOL    C3410660   4.382   0.191   7.778  0.0670  0.1080  0.8654
   34MOL    C3510661   4.313   0.054   7.750  0.7942 -0.3787 -0.2628
   34MOL    C3610662   4.197   0.075   7.642 -0.0733 -0.5599 -0.2171
   34MOL    O3710663   4.116   0.167   7.661 -0.4373  0.2935  0.3514
   34MOL    N3810664   4.183   7.838   7.539  0.9064 -0.2366 -0.5127
   34MOL    C3910665   4.288   7.743   7.491 -0.0831 -0.4454  1.1054
   34MOL    C4010666   4.070   0.001   7.450  0.0812 -0.3245  0.5055
   34MOL    H4110667   4.441   0.194   0.016  0.3477  0.9021  0.6617
   34MOL    H4210668   4.296   0.253   7.803 -0.4122  0.2386 -0.9977
   34MOL    H4310669   4.390   7.838   7.715  1.1350 -1.7790  3.0685
   34MOL    H4410670   4.250   7.682   7.410  2.5535 -0.7514  0.0666
   34MOL    H4510671   4.368   7.798   7.442 -1.9210  0.2048 -1.2880
   34MOL    H4610672   4.324   7.674   7.567  1.4307  0.7106  1.4704
   34MOL    H4710673   3.987   0.056   7.495  0.6030 -1.2124  2.5853
   34MOL    H4810674   4.035   7.758   7.415 -3.9599  0.4389  2.1630
   34MOL    H4910675   4.101   0.072   7.373  0.4309 -1.6337 -0.5708
   34MOL    C5010676   4.248   0.010   0.030  1.1507 -0.2076  0.0018
   34MOL    C5110677   4.162   7.735   0.041  0.0511  0.8209 -0.3000
   34MOL    C5210678   4.083   7.721   0.171  0.4154 -0.2863  0.4364
   34MOL    O5310679   4.139   7.720   0.282 -0.6811  0.6205 -0.0104
   34MOL    N5410680   3.947   7.715   0.160 -0.0416  0.8238  0.3593
   34MOL    C5510681   3.868   7.707   0.279  0.0214  0.3363  0.5790
   34MOL    C5610682   3.870   7.689   0.042  0.0993  0.1350 -0.2577
   34MOL    H5710683   4.326   0.021   0.105  1.8324  2.3799 -1.0176
   34MOL    H5810684   4.182   0.091   0.059  2.2204  0.9747 -0.7927
   34MOL    H5910685   4.088   7.746   7.815  1.1611 -0.0720 -1.4832
   34MOL    H6010686   3.790   7.781   0.264  1.6245  1.7920 -0.7640
   34MOL    H6110687   3.827   7.608   0.299 -0.4066 -0.1462 -2.4907
   34MOL    H6210688   3.915   7.748   0.369  0.0002  1.3914  0.1183
   34MOL    H6310689   3.920   7.619   7.830 -1.0727 -0.1579 -0.8523
   34MOL    H6410690   3.838   7.771   7.831 -0.5387  0.1500  0.0726
   34MOL    H6510691   3.777   7.636   0.064  0.5126 -1.2836 -1.8846
   34MOL    C6610692   4.238   7.593   0.022 -0.0544  0.1760  0.6607
   34MOL    C6710693   4.358   7.547   0.114  0.6478  0.1907 -0.0281
   34MOL    C6810694   4.481   7.647   0.094 -0.5167  0.8009  0.2119
   34MOL    O6910695   4.527   7.664   7.832  0.1569 -0.2960 -0.1693
   34MOL    N7010696   4.548   7.704   0.197  0.4619 -0.3169  0.3000
   34MOL    C7110697   4.641   7.808   0.167 -0.4732 -0.3836  0.6567
   34MOL    C7210698   4.500   7.702   0.338 -0.0668  0.3775 -0.2502
   34MOL    H7310699   4.150   7.529   0.037 -0.4351  0.5169 -0.0959
   34MOL    H7410700   4.271   7.580   7.772 -2.1582 -3.9070  0.4107
   34MOL    H7510701   4.307   7.562   0.210  2.1934 -0.8373  0.9815
   34MOL    H7610702   4.684   0.009   0.251  1.4557  0.3619 -0.7857
   34MOL    H7710703   4.726   7.761   0.119 -0.3794 -0.2802  0.7217
   34MOL    H7810704   4.605   0.025   0.092  1.1999 -0.6924 -0.4605
   34MOL    H7910705   4.429   7.623   0.362 -0.4543  0.4791 -1.0302
   34MOL    H8010706   4.451   7.796   0.364  1.4630  0.7499  1.3311
   34MOL    H8110707   4.590   7.695   0.398  0.3517  1.4785 -0.7266
   34MOL    C8210708   4.406   7.398   0.086  0.5725  0.1025  0.3458
   34MOL    C8310709   4.439   7.315   0.215 -0.2228 -0.1333  0.5775
   34MOL    C8410710   4.593   7.318   0.235 -0.0388  0.1922 -0.7232
   34MOL    O8510711   4.667   7.287   0.137  0.4605 -0.5037  0.2783
   34MOL    N8610712   4.643   7.376   0.349 -0.3368  0.1697 -0.0822
   34MOL    C8710713   4.783   7.423   0.366 -0.4832 -0.4375  0.1865
   34MOL    C8810714   4.569   7.377   0.478 -0.5896 -0.3048 -0.0124
   34MOL    H8910715   4.330   7.346   0.027  0.6523  0.9121 -0.4753
   34MOL    H9010716   4.488   7.398   0.014 -0.8621  1.4573 -1.3142
   34MOL    H9110717   4.392   7.369   0.297 -1.3270 -0.1724 -0.0272
   34MOL    H9210718   4.851   7.439   0.282 -0.6136 -0.3571  0.0951
   34MOL    H9310719   4.789   7.511   0.430  1.6000 -2.0960  2.3364
   34MOL    H9410720   4.842   7.354   0.426  0.2413  0.2994  0.3498
   34MOL    H9510721   4.518   7.281   0.494 -1.4483  0.3366  1.2040
   34MOL    H9610722   4.492   7.452   0.491 -2.7743 -2.3426 -0.7236
   34MOL    H9710723   4.629   7.382   0.569  0.4784  0.9412 -0.7642
   34MOL    C9810724   4.391   7.162   0.206 -0.6458  0.1683  0.1570
   34MOL    C9910725   4.253   7.118   0.152  0.2863 -0.9888  0.8282
   34MOL   C10010726   4.139   7.217   0.190 -0.0995  0.7865 -0.7169
   34MOL   O10110727   4.155   7.282   0.292 -0.7745 -0.4957 -0.2122
   34MOL   N10210728   4.039   7.228   0.102  0.2174 -0.5874 -0.5755
   34MOL   C10310729   4.021   7.135   7.840  0.0781 -0.1107  0.2440
   34MOL   C10410730   3.934   7.328   0.109  0.0100  0.2841  0.4342
   34MOL   H10510731   4.464   7.111   0.143 -0.9101  2.4330 -2.1020
   34MOL   H10610732   4.393   7.124   0.308  0.2995 -0.9354 -0.2735
   34MOL   H10710733   4.264   7.131   0.044 -2.2700 -0.1198  0.6362
   34MOL   H10810734   3.918   7.109   7.818  0.3002  0.8146 -2.0413
   34MOL   H10910735   4.039   7.178   7.742  1.5765 -1.2953 -0.0376
   34MOL   H11010736   4.067   7.038   0.006 -0.2384 -0.1330  0.8693
   34MOL   H11110737   3.836   7.280   0.102  0.8695 -1.5858  1.0359
   34MOL   H11210738   3.925   7.399   0.027 -2.1682  1.7505  1.8922
   34MOL   H11310739   3.947   7.388   0.198 -1.7982  1.0520  0.2127
   34MOL   C11410740   4.229   6.976   0.196  0.7789  0.2760  0.2226
   34MOL   C11510741   4.322   6.858   0.126 -0.0633 -0.0562 -0.9442
   34MOL   C11610742   4.255   6.819   7.848  0.4335  0.6114 -0.3606
   34MOL   O11710743   4.136   6.781   0.003 -0.3875 -0.4820 -0.3348
   34MOL   N11810744   4.321   6.833   7.729  0.4353 -0.1562  0.0321
   34MOL   C11910745   4.456   6.895   7.722  0.4849 -0.4316  0.6678
   34MOL   C12010746   4.274   6.777   7.601 -0.2160 -0.4429  0.0935
   34MOL   H12110747   4.241   6.977   0.304  0.2028  5.2113  0.3623
   34MOL   H12210748   4.122   6.957   0.192  0.7163  0.3165  1.6614
   34MOL   H12310749   4.414   6.916   0.113  0.5083 -0.8453 -0.5286
   34MOL   H12410750   4.508   6.869   7.630  0.7274  2.5808 -0.0941
   34MOL   H12510751   4.457   7.004   7.728  2.6531 -0.3618 -0.6154
   34MOL   H12610752   4.532   6.855   7.789 -0.1993 -0.7457  1.2682
   34MOL   H12710753   4.227   6.847   7.531 -2.0389  0.0108  1.7281
   34MOL   H12810754   4.199   6.698   7.604 -0.3425 -0.4759 -2.4071
   34MOL   H12910755   4.363   6.729   7.561  0.1424 -0.7214  1.2244
   34MOL   C13010756   4.351   6.745   0.227  0.5049  0.0166  0.6080
   34MOL   C13110757   4.445   6.627   0.176  0.1041  0.0103 -0.1963
   34MOL   C13210758   4.390   6.499   0.249  0.9235  0.4167  0.5970
   34MOL   O13310759   4.418   6.485   0.372 -0.5893  0.2412  0.2871
   34MOL   N13410760   4.327   6.398   0.186  0.6823  0.5004 -1.2836
   34MOL   C13510761   4.330   6.377   0.041  0.0562  0.2780 -0.4662
   34MOL   C13610762   4.241   6.304   0.267  0.0087 -0.4942  0.1583
   34MOL   H13710763   4.388   6.782   0.323  0.4228 -0.7335  0.9379
   34MOL   H13810764   4.254   6.702   0.251  1.4331 -1.9529  0.9423
   34MOL   H13910765   4.416   6.627   0.071  2.1607  0.2709 -0.7956
   34MOL   H14010766   4.418   6.420   7.847  0.9015  0.5754  1.3297
   34MOL   H14110767   4.334   6.274   0.007 -1.0030  0.3353 -0.7694
   34MOL   H14210768   4.242   6.415   7.843 -0.0958 -0.7166 -0.9533
   34MOL   H14310769   4.301   6.236   0.327  3.4034  0.4636 -2.0348
   34MOL   H14410770   4.189   6.236   0.200  0.9490 -2.2633  1.1924
   34MOL   H14510771   4.178   6.355   0.341 -0.9742  0.1206 -1.0870
   34MOL   C14610772   4.598   6.665   0.200  0.6063  0.1490  0.7077
   34MOL   C14710773   4.714   6.586   0.119  0.3508  0.0590 -0.5503
   34MOL   C14810774   4.705   6.620   7.830  0.3887 -0.5568 -0.0932
   34MOL   O14910775   4.610   6.577   7.763 -0.0344  0.2649  0.4077
   34MOL   N15010776   4.803   6.699   7.780  0.3540  0.0608 -0.1589
   34MOL   C15110777   4.832   6.683   7.638 -0.1728  0.6153 -0.0756
   34MOL   C15210778   4.900   6.780   0.002  0.5654 -0.1356  0.0295
   34MOL   H15310779   4.622   6.771   0.193  0.9302  0.0347  0.0219
   34MOL   H15410780   4.617   6.647   0.306  2.6762  1.3037  0.5656
   34MOL   H15510781   4.808   6.626   0.157 -0.2364  2.1738 -1.2691
   34MOL   H15610782   4.888   6.767   7.596 -1.1495  1.3839  0.1307
   34MOL   H15710783   4.884   6.591   7.610 -1.6623  0.7660 -3.6910
   34MOL   H15810784   4.743   6.690   7.575  0.6969  0.4486 -1.3602
   34MOL   H15910785   4.947   6.857   7.794  1.7194 -1.3144 -0.5808
   34MOL   H16010786   4.965   6.704   0.045 -0.6551 -2.7271 -2.5589
   34MOL   H16110787   4.844   6.837   0.076 -1.6456 -2.4941  0.2268
   34MOL   C16210788   4.708   6.426   0.147 -0.0040 -0.5810 -0.1462
   34MOL   C16310789   4.810   6.320   0.100  0.0119  0.2021 -0.2570
   34MOL   C16410790   4.958   6.379   0.111  0.5071  0.1853  0.2755
   34MOL   O16510791   5.024   6.380   0.004  0.0728  0.5736 -0.3149
   34MOL   N16610792   5.005   6.422   0.229  0.3612  0.1604  0.0674
   34MOL   C16710793   5.145   6.475   0.232 -0.4915 -0.6059  0.2185
   34MOL   C16810794   4.938   6.400   0.356  0.4051 -0.0190 -0.3546
   34MOL   H16910795   4.683   6.415   0.253 -0.6828 -1.0989 -0.3490
   34MOL   H17010796   4.610   6.404   0.104 -0.8864  1.8575  0.5198
   34MOL   H17110797   4.819   6.232   0.164 -2.1651 -0.0005 -0.1934
   34MOL   H17210798   5.166   6.529   0.140 -0.1109 -3.6496 -1.5804
   34MOL   H17310799   5.162   6.550   0.309  1.2139 -0.3654 -0.3644
   34MOL   H17410800   5.224   6.399   0.234 -0.7696 -0.9845 -1.5777
   34MOL   H17510801   4.883   6.306   0.365 -1.1592  0.9172 -0.0778
   34MOL   H17610802   4.869   6.478   0.387  2.4814  1.5230  0.4503
   34MOL   H17710803   5.019   6.395   0.429 -0.0530 -0.6235  0.1232
   34MOL   C17810804   4.787   6.263   7.809 -0.3572 -0.3752 -0.4195
   34MOL   C17910805   4.683   6.142   7.804  0.6077  0.3120  0.0190
   34MOL   C18010806   4.719   6.026   0.053  0.6039  0.1894 -1.0218
   34MOL   O18110807   4.807   5.947   0.019 -0.0613 -0.3352  0.1845
   34MOL   N18210808   4.653   6.009   0.168  0.4025 -0.4401  0.3113
   34MOL   C18310809   4.530   6.077   0.201 -0.6533 -0.1042  0.0247
   34MOL   C18410810   4.707   5.916   0.267  0.2700  0.3851  0.6658
   34MOL   H18510811   4.764   6.347   7.743  0.5602  0.2040 -0.0079
   34MOL   H18610812   4.879   6.222   7.767 -0.1960 -2.6890  2.0691
   34MOL   H18710813   4.589   6.190   7.830  0.7925  0.3451  0.6313
   34MOL   H18810814   4.457   6.077   0.119  1.4416 -2.0755 -1.9001
   34MOL   H18910815   4.478   6.038   0.288  0.4628 -0.9508  0.3147
   34MOL   H19010816   4.556   6.181   0.221 -0.3171 -0.0212 -0.8091
   34MOL   H19110817   4.759   5.972   0.346  1.4661 -0.3709  0.4280
   34MOL   H19210818   4.775   5.840   0.229 -0.7574  0.5975 -1.7043
   34MOL   H19310819   4.625   5.865   0.317  0.5114 -0.6147  0.0446
   34MOL   C19410820   4.665   6.085   7.659  0.2732  0.2602 -0.0485
   34MOL   C19510821   4.515   6.037   7.621  0.2973 -0.1129  0.0919
   34MOL   C19610822   4.539   5.934   7.510  0.0451 -0.0279 -0.3328
   34MOL   O19710823   4.541   5.971   7.392  0.2331 -0.2092 -0.7609
   34MOL   N19810824   4.559   5.801   7.540 -0.7568  0.4637 -0.3941
   34MOL   C19910825   4.543   5.739   7.678 -0.3147  0.0475  0.2489
   34MOL   C20010826   4.580   5.719   7.424  0.0170  0.7610  0.1585
   34MOL   H20110827   4.688   6.162   7.585  2.5167 -1.5635 -1.3046
   34MOL   H20210828   4.727   5.997   7.648  1.9722  1.7300 -2.7786
   34MOL   H20310829   4.472   5.993   7.712  0.6513 -1.1198 -0.2256
   34MOL   H20410830   4.540   5.630   7.671 -0.7247  0.1874 -2.4057
   34MOL   H20510831   4.628   5.770   7.740  1.1543 -0.0940 -1.6318
   34MOL   H20610832   4.454   5.775   7.729 -1.3892 -0.1476 -1.4379
   34MOL   H20710833   4.599   5.621   7.468 -0.5449  2.2236  3.7877
   34MOL   H20810834   4.667   5.745   7.363  0.0180 -0.6438 -0.4665
   34MOL   H20910835   4.488   5.712   7.365 -2.5584  0.4053  4.0472
   34MOL   C21010836   4.426   6.156   7.583 -0.1776 -0.1420 -0.4511
   34MOL   C21110837   4.295   6.114   7.525  0.1281 -0.0145 -0.0522
   34MOL   C21210838   4.229   6.229   7.447  0.1774 -0.1561  0.1135
   34MOL   O21310839   4.190   6.335   7.502 -0.3586  0.2356 -0.4618
   34MOL   N21410840   4.211   6.219   7.310  0.6856  0.5700  0.0708
   34MOL   C21510841   4.227   6.093   7.238  0.1665  0.6930  0.3898
   34MOL   C21610842   4.154   6.336   7.233 -0.5372  0.6222 -0.6550
   34MOL   H21710843   4.408   6.224   7.666 -2.0050  0.5098 -1.3734
   34MOL   H21810844   4.478   6.221   7.512  1.2484  0.2965  0.9567
   34MOL   H21910845   4.298   6.020   7.471  2.9084 -0.8634  1.5140
   34MOL   H22010846   4.335   6.080   7.245  0.2729  1.8810  0.9991
   34MOL   H22110847   4.175   6.010   7.287  1.3863 -0.4029 -0.1436
   34MOL   H22210848   4.204   6.106   7.132 -0.6939 -0.1990  0.4633
   34MOL   H22310849   4.059   6.370   7.275 -0.8964  0.8867 -1.6868
   34MOL   H22410850   4.110   6.296   7.142 -2.5195  3.5585 -1.0500
   34MOL   H22510851   4.230   6.414   7.230  0.1845 -0.0663 -0.6569
   34MOL   C22610852   4.200   6.059   7.636  0.2353  0.2079 -0.5195
   34MOL   C22710853   4.107   5.939   7.595  0.1106  0.0150 -0.2875
   34MOL   C22810854   3.990   5.944   7.693  0.2119  0.5620 -0.7654
   34MOL   O22910855   4.006   5.896   7.807  0.0175 -0.3716  0.5689
   34MOL   N23010856   3.866   5.993   7.646  0.1076  0.1301 -0.0034
   34MOL   C23110857   3.850   6.073   7.522  0.1450 -0.0508 -0.6535
   34MOL   C23210858   3.745   5.964   7.719  0.1473  0.1489  0.5869
   34MOL   H23310859   4.258   6.030   7.724  0.1233  0.6870 -0.2831
   34MOL   H23410860   4.153   6.143   7.688  1.9853  1.7174 -1.3172
   34MOL   H23510861   4.066   5.952   7.495 -2.0702 -2.1322  0.2784
   34MOL   H23610862   3.760   6.133   7.537  0.2710 -0.3474  1.5041
   34MOL   H23710863   3.933   6.137   7.493  2.3049 -1.3025  2.4128
   34MOL   H23810864   3.828   6.002   7.443 -1.6870  0.1191 -0.3296
   34MOL   H23910865   3.734   6.026   7.808  1.4837  0.9823  0.1965
   34MOL   H24010866   3.754   5.860   7.750 -1.2222 -0.1100  0.1496
   34MOL   H24110867   3.647   5.958   7.671 -0.3848 -1.0300  1.7808
   34MOL   C24210868   4.178   5.802   7.591  0.2162  0.9419  0.3867
   34MOL   C24310869   4.090   5.677   7.566 -0.8432  0.6620 -0.3184
   34MOL   C24410870   4.181   5.553   7.600  0.2557  0.2995 -0.8239
   34MOL   O24510871   4.254   5.510   7.511  0.7421 -0.4973  0.2330
   34MOL   N24610872   4.168   5.487   7.717 -0.4819 -0.2534  0.4777
   34MOL   C24710873   4.074   5.528   7.827  0.1493  0.2620  0.3179
   34MOL   C24810874   4.242   5.361   7.732  0.0672  0.6100 -0.6301
   34MOL   H24910875   4.253   5.810   7.512 -0.1643 -0.2943 -0.1059
   34MOL   H25010876   4.243   5.789   7.678  0.9340  0.4485 -0.2127
   34MOL   H25110877   4.001   5.681   7.628  0.2839 -0.9453  1.4670
   34MOL   H25210878   4.125   5.514   0.069 -0.6783  0.6253  0.8124
   34MOL   H25310879   4.080   5.637   7.835  2.6266  0.0286  2.1978
   34MOL   H25410880   3.975   5.484   7.825  0.5901 -0.7667  0.9825
   34MOL   H25510881   4.240   5.291   7.649  3.4769 -0.7022  0.3245
   34MOL   H25610882   4.212   5.308   7.823 -0.7861  0.5781 -0.9324
   34MOL   H25710883   4.343   5.384   7.765 -0.7022 -1.5778  3.6926
   34MOL   C25810884   4.032   5.672   7.425  0.2311 -0.2192  0.0796
   34MOL   C25910885   3.914   5.581   7.400  0.1839 -0.7078  0.2981
   34MOL   C26010886   3.899   5.544   7.248 -0.1058 -0.2276 -0.3382
   34MOL   O26110887   3.860   5.635   7.173  0.0050  0.3194  0.1648
   34MOL   N26210888   3.941   5.424   7.202  0.7352  0.2992  0.1870
   34MOL   C26310889   4.013   5.329   7.295 -0.2745  0.2167  0.3769
   34MOL   C26410890   3.902   5.378   7.073 -0.4999  0.1790 -0.1409
   34MOL   H26510891   4.005   5.774   7.399 -0.4353 -0.1740  0.9352
   34MOL   H26610892   4.106   5.641   7.351 -0.9424 -1.7298 -0.5017
   34MOL   H26710893   3.921   5.495   7.467  1.0776 -1.6956 -1.0493
   34MOL   H26810894   3.962   5.292   7.384  0.7431 -0.4897  0.6738
   34MOL   H26910895   4.029   5.238   7.238 -1.8209  1.5384 -2.2927
   34MOL   H27010896   4.111   5.367   7.324  0.0714  0.4064 -1.0320
   34MOL   H27110897   3.794   5.366   7.056 -0.7023  0.3588  0.9649
   34MOL   H27210898   3.954   5.285   7.052 -1.8617 -0.8145  0.7748
   34MOL   H27310899   3.932   5.450   6.997 -0.7032  0.5100  0.0953
   34MOL   C27410900   3.783   5.654   7.450 -0.3092  0.2926  0.2028
   34MOL   C27510901   3.651   5.563   7.469 -0.2347 -0.0160 -0.5564
   34MOL   C27610902   3.684   5.438   7.555  0.3030  0.0377  0.2537
   34MOL   O27710903   3.722   5.335   7.489  0.2623  0.5929  0.4151
   34MOL   N27810904   3.674   5.437   7.689  0.0991  0.0341 -0.1119
   34MOL   C27910905   3.675   5.551   7.770 -0.3963  0.3545 -0.1424
   34MOL   C28010906   3.701   5.315   7.770 -0.3157 -0.6810  0.5703
   34MOL   H28110907   3.811   5.674   7.553  3.8377 -0.1947 -0.7117
   34MOL   H28210908   3.779   5.738   7.381  0.0367 -0.8196 -1.2178
   34MOL   H28310909   3.573   5.621   7.517  2.1895  1.1865  2.1239
   34MOL   H28410910   3.644   5.640   7.715 -0.6261  0.9066  0.8657
   34MOL   H28510911   3.608   5.546   0.003  0.0032  0.6213  0.1850
   34MOL   H28610912   3.770   5.584   7.810 -0.7438 -2.4922  3.3086
   34MOL   H28710913   3.791   5.340   7.826  0.5703 -0.4906 -0.9054
   34MOL   H28810914   3.725   5.227   7.709 -1.6368 -0.4395 -0.3318
   34MOL   H28910915   3.618   5.287   7.835 -1.6320 -1.4599 -1.3682
   34MOL   C29010916   3.590   5.528   7.324  0.6123 -0.5990 -0.6019
   34MOL   C29110917   3.525   5.645   7.251 -0.7011 -0.4216  0.1185
   34MOL   C29210918   3.408   5.717   7.325  0.7166  0.6710 -0.1122
   34MOL   O29310919   3.311   5.651   7.370 -0.3262 -0.5130  0.8029
   34MOL   N29410920   3.429   5.846   7.357  0.6341  0.4790  1.1186
   34MOL   C29510921   3.351   5.907   7.464  0.0751 -0.6349  0.4349
   34MOL   C29610922   3.534   5.925   7.300  1.0195 -0.9820  0.0518
   34MOL   H29710923   3.652   5.460   7.266  1.3278  1.5685 -2.4269
   34MOL   H29810924   3.505   5.460   7.333  0.7420 -0.7926 -0.8197
   34MOL   H29910925   3.602   5.713   7.215 -0.5841 -0.1396  0.8808
   34MOL   H30010926   3.248   5.874   7.459  0.4999 -2.0218  0.5665
   34MOL   H30110927   3.386   5.895   7.567  0.1386 -0.6467  0.4123
   34MOL   H30210928   3.338   6.015   7.450 -1.0166 -0.7273  0.7131
   34MOL   H30310929   3.518   6.031   7.321  1.0581 -1.1881  1.1690
   34MOL   H30410930   3.540   5.916   7.192  0.6693  0.3406 -0.0932
   34MOL   H30510931   3.632   5.901   7.341  1.2166  0.8879  0.7607
   34MOL   C30610932   3.455   5.583   7.125 -0.1884  0.4210 -0.4730
   34MOL   C30710933   3.564   5.569   7.015  0.1324 -0.3127 -0.1493
   34MOL   C30810934   3.508   5.532   6.874 -0.3538  0.4529  0.3409
   34MOL   O30910935   3.386   5.529   6.859  0.8899  0.6143  0.2725
   34MOL   N31010936   3.593   5.497   6.773 -0.3829 -0.5476  0.1031
   34MOL   C31110937   3.531   5.479   6.641 -0.0519  0.4055  0.3421
   34MOL   C31210938   3.739   5.470   6.780 -0.2021  0.1942 -0.0691
   34MOL   H31310939   3.395   5.494   7.145 -1.1609  1.1250 -0.2125
   34MOL   H31410940   3.400   5.668   7.084 -0.1229  0.4894 -0.4171
   34MOL   H31510941   3.633   5.653   7.010 -0.3704  0.0287 -2.1550
   34MOL   H31610942   3.484   5.382   6.623  1.3416 -0.6676  2.3045
   34MOL   H31710943   3.476   5.564   6.601  0.0525  0.7691  0.9708
   34MOL   H31810944   3.602   5.488   6.558 -0.8206 -0.1088 -0.3820
   34MOL   H31910945   3.750   5.377   6.835  0.8191  0.7459  0.6775
   34MOL   H32010946   3.782   5.551   6.840 -1.2814  0.3283  0.5298
   34MOL   H32110947   3.787   5.455   6.683 -1.9384  0.1856 -0.9293
   34MOL   H32210948   3.623   5.481   7.037  1.3084  0.9481  1.8679
   35MOL     C110949   1.911   1.735   2.006 -0.2124  0.3951  0.2917
   35MOL     C210950   1.763   1.701   2.035  0.1407  0.5269 -0.3982
   35MOL     C310951   1.677   1.755   1.923  0.6020 -0.5326  0.3298
   35MOL     O410952   1.645   1.874   1.928  0.1410 -0.1322  0.2344
   35MOL     N510953   1.634   1.677   1.825 -0.0074 -0.1829 -1.3288
   35MOL     C610954   1.671   1.534   1.811  0.2317  0.6816  0.2519
   35MOL     C710955   1.553   1.734   1.714 -0.1541  0.0648  0.4897
   35MOL     H810956   1.948   1.721   1.904 -0.9198 -4.2405  0.5930
   35MOL     H910957   1.973   1.672   2.069  1.5034  1.7649  0.0239
   35MOL    H1010958   1.748   1.594   2.052 -0.2207  0.7351  0.6199
   35MOL    H1110959   1.662   1.478   1.905  0.5523 -0.2590 -0.2685
   35MOL    H1210960   1.607   1.482   1.739  1.1512 -1.1526  0.7186
   35MOL    H1310961   1.771   1.526   1.768 -0.5556 -1.0932 -1.3279
   35MOL    H1410962   1.540   1.654   1.641  1.2737  1.9714 -1.9323
   35MOL    H1510963   1.601   1.821   1.669 -0.3900 -0.1909 -0.2778
   35MOL    H1610964   1.458   1.770   1.753 -1.5182 -1.3142 -1.4517
   35MOL    H1710965   1.930   1.839   2.035  0.7357 -0.5361  3.1274
   35MOL    C1810966   1.721   1.760   2.173 -0.3397  1.0218  0.0505
   35MOL    C1910967   1.575   1.727   2.213  0.5300  0.1128 -0.0878
   35MOL    C2010968   1.515   1.841   2.295  0.3330 -0.0402  0.7171
   35MOL    O2110969   1.577   1.871   2.396  0.0136 -0.2083 -0.3835
   35MOL    N2210970   1.400   1.909   2.263  0.1665  0.5381  0.2605
   35MOL    C2310971   1.325   1.888   2.136  0.0780 -0.1368  0.0811
   35MOL    C2410972   1.370   2.025   2.342  0.5851  0.1594  0.9298
   35MOL    H2510973   1.793   1.735   2.251 -0.6382 -0.0054 -0.0021
   35MOL    H2610974   1.724   1.869   2.171  1.8941  0.9903 -1.5068
   35MOL    H2710975   1.518   1.723   2.120  0.9685  0.7274 -0.3855
   35MOL    H2810976   1.228   1.937   2.137  0.7138  1.2007 -1.5949
   35MOL    H2910977   1.388   1.929   2.056 -1.7244  1.6420 -0.4680
   35MOL    H3010978   1.299   1.785   2.113  0.3580  0.3222 -2.4514
   35MOL    H3110979   1.410   2.113   2.291 -0.4095 -0.0788 -0.2911
   35MOL    H3210980   1.389   2.033   2.449 -1.0876  1.4766  1.1602
   35MOL    H3310981   1.264   2.045   2.327  0.5101 -1.2374 -0.5720
   35MOL    C3410982   1.557   1.580   2.280  0.1976 -0.6442  1.1058
   35MOL    C3510983   1.650   1.550   2.402  0.1486 -0.4606  0.1275
   35MOL    C3610984   1.780   1.478   2.357  0.1966 -0.2529  0.3955
   35MOL    O3710985   1.763   1.375   2.291  0.0533  0.7063 -0.4451
   35MOL    N3810986   1.903   1.533   2.378 -0.5244 -0.4681  0.3451
   35MOL    C3910987   2.020   1.484   2.310  0.0442  0.2714  0.5455
   35MOL    C4010988   1.941   1.623   2.488 -0.1834  0.5760 -0.9694
   35MOL    H4110989   1.451   1.567   2.301 -0.3937 -0.2709 -1.4355
   35MOL    H4210990   1.572   1.510   2.198 -1.4868  0.9391 -0.6116
   35MOL    H4310991   1.693   1.643   2.439  2.3503 -0.9968 -0.9665
   35MOL    H4410992   2.070   1.424   2.386 -0.0561 -0.5429 -0.0206
   35MOL    H4510993   1.992   1.426   2.222 -1.0630  1.3041  0.1995
   35MOL    H4610994   2.091   1.554   2.266 -0.5272  0.8863  0.5920
   35MOL    H4710995   2.043   1.608   2.523 -0.0390  0.0393 -1.6118
   35MOL    H4810996   1.870   1.607   2.569  0.4378 -1.5242 -0.7830
   35MOL    H4910997   1.942   1.719   2.437  2.4511  0.4065 -1.3385
   35MOL    C5010998   1.583   1.473   2.507 -0.4083  0.0315 -0.5647
   35MOL    C5110999   1.475   1.559   2.577  0.8189 -0.5849 -0.5350
   35MOL    C5211000   1.535   1.647   2.693  0.2523 -0.6511  0.6967
   35MOL    O5311001   1.641   1.610   2.747  0.2191 -0.1245 -0.1998
   35MOL    N5411002   1.471   1.766   2.725 -0.7035  0.4184  0.0657
   35MOL    C5511003   1.335   1.810   2.690  0.4251 -0.0923  0.1699
   35MOL    C5611004   1.540   1.863   2.805  0.7047  0.1792 -0.3889
   35MOL    H5711005   1.535   1.387   2.459 -0.0107  0.0649 -1.0288
   35MOL    H5811006   1.653   1.428   2.577 -1.1489 -0.1354  0.0760
   35MOL    H5911007   1.426   1.629   2.510 -0.1622 -2.3693 -1.7523
   35MOL    H6011008   1.275   1.764   2.768  2.5518 -0.2508  1.7541
   35MOL    H6111009   1.321   1.918   2.690  3.1195  0.2892 -0.3852
   35MOL    H6211010   1.305   1.788   2.587  1.1996  0.3864 -0.1670
   35MOL    H6311011   1.584   1.947   2.752  2.1440 -0.3979 -0.1107
   35MOL    H6411012   1.608   1.818   2.877  1.3760 -0.5751 -1.4838
   35MOL    H6511013   1.462   1.907   2.868  0.0519  0.2466 -1.2360
   35MOL    C6611014   1.360   1.472   2.648 -0.1014 -0.5917 -0.1491
   35MOL    C6711015   1.229   1.430   2.571  0.6149 -0.8325  0.4377
   35MOL    C6811016   1.146   1.546   2.507 -0.7424 -0.5865 -0.3184
   35MOL    O6911017   1.088   1.628   2.592 -0.2112 -0.2800 -0.3154
   35MOL    N7011018   1.133   1.564   2.374  0.1237 -0.0930  0.2056
   35MOL    C7111019   1.068   1.691   2.328  0.2138 -0.2080  0.0308
   35MOL    C7211020   1.143   1.465   2.276  0.2184 -0.4932  0.4365
   35MOL    H7311021   1.403   1.373   2.663 -0.2512 -0.7608 -0.7975
   35MOL    H7411022   1.333   1.513   2.745  0.8167 -1.2632  0.3890
   35MOL    H7511023   1.267   1.376   2.485 -0.6917  0.8634 -1.2342
   35MOL    H7611024   0.959   1.692   2.328  0.2149  0.3227  0.3343
   35MOL    H7711025   1.099   1.769   2.399 -0.4432 -1.2282  1.4515
   35MOL    H7811026   1.097   1.729   2.230 -0.9283  0.0934 -0.1887
   35MOL    H7911027   1.148   1.360   2.305 -0.4745  0.5979  4.8896
   35MOL    H8011028   1.221   1.483   2.202 -0.5075 -0.1915 -0.2662
   35MOL    H8111029   1.048   1.477   2.224  0.6446  1.7770  0.1401
   35MOL    C8211030   1.146   1.336   2.657 -0.0740 -0.1753  0.5527
   35MOL    C8311031   1.004   1.289   2.603 -0.1923  0.1294  0.6294
   35MOL    C8411032   0.900   1.270   2.722  0.4580  0.2288  0.2636
   35MOL    O8511033   0.918   1.174   2.796 -0.5196 -0.4191  0.3008
   35MOL    N8611034   0.795   1.356   2.733  0.2054 -0.2272  0.0972
   35MOL    C8711035   0.701   1.328   2.836  0.0423 -0.0911 -1.3289
   35MOL    C8811036   0.759   1.471   2.648  0.7612 -0.8144  0.5105
   35MOL    H8911037   1.213   1.257   2.691  0.8960  0.2122 -0.4462
   35MOL    H9011038   1.114   1.394   2.744 -2.5701 -1.5340  0.5960
   35MOL    H9111039   0.974   1.362   2.528  0.0071  3.5520  3.7553
   35MOL    H9211040   0.696   1.228   2.879 -1.7881  1.7795  3.1805
   35MOL    H9311041   0.726   1.396   2.917 -0.8086 -0.9599 -0.3179
   35MOL    H9411042   0.602   1.348   2.795 -0.5187 -1.0858 -0.4685
   35MOL    H9511043   0.750   1.469   2.540 -4.0955 -0.4072  0.7794
   35MOL    H9611044   0.829   1.553   2.666  0.3370 -0.0747 -1.1774
   35MOL    H9711045   0.662   1.506   2.684  0.2767  0.9210 -2.3231
   35MOL    C9811046   1.016   1.154   2.527  0.5827  0.0633  0.1235
   35MOL    C9911047   0.887   1.093   2.481 -0.3515 -0.1769  0.3944
   35MOL   C10011048   0.907   0.944   2.435 -0.4262  0.1563 -0.0197
   35MOL   O10111049   0.954   0.935   2.321  0.7543  0.0690  0.4685
   35MOL   N10211050   0.874   0.836   2.508 -0.8158 -0.3434 -0.0335
   35MOL   C10311051   0.889   0.703   2.449  0.3950 -0.3050 -0.8423
   35MOL   C10411052   0.827   0.850   2.640  0.2455 -0.4894 -0.9357
   35MOL   H10511053   1.089   1.168   2.447 -0.2098 -0.1749 -0.6472
   35MOL   H10611054   1.077   1.079   2.578  0.9982 -1.1996 -2.1522
   35MOL   H10711055   0.820   1.090   2.566  0.1902  1.1143  0.8717
   35MOL   H10811056   0.901   0.626   2.525 -0.8309  0.4111  0.0860
   35MOL   H10911057   0.804   0.685   2.383 -1.1141 -0.8086  1.1863
   35MOL   H11011058   0.980   0.682   2.392  2.5427  0.0772  2.3446
   35MOL   H11111059   0.813   0.751   2.683 -1.2122 -1.3842 -3.3447
   35MOL   H11211060   0.737   0.911   2.643  1.2036  0.9092  0.0171
   35MOL   H11311061   0.906   0.895   2.700  0.1589 -0.9843 -0.4432
   35MOL   C11411062   0.813   1.184   2.377 -0.3789  0.4410 -0.8423
   35MOL   C11511063   0.678   1.116   2.318 -0.1838 -0.2688 -0.1663
   35MOL   C11611064   0.656   1.186   2.180  0.0603 -0.0612 -0.0910
   35MOL   O11711065   0.596   1.291   2.182 -0.0869  0.1615 -0.1757
   35MOL   N11811066   0.685   1.124   2.063 -0.2531 -0.2774  0.2716
   35MOL   C11911067   0.728   0.987   2.051  0.4712 -0.0269  0.3961
   35MOL   C12011068   0.681   1.200   1.938  0.0398 -0.1434  0.1719
   35MOL   H12111069   0.783   1.280   2.417 -2.5072 -0.5371 -0.0077
   35MOL   H12211070   0.884   1.208   2.298  1.0277 -2.0175 -0.3858
   35MOL   H12311071   0.686   1.008   2.304  0.4697 -0.1625 -0.6507
   35MOL   H12411072   0.833   0.985   2.080  0.2888 -2.2533  0.9830
   35MOL   H12511073   0.673   0.918   2.115  1.2951 -2.5167 -1.5250
   35MOL   H12611074   0.720   0.944   1.951  1.3092  0.2546  0.2057
   35MOL   H12711075   0.681   1.145   1.844 -0.2212 -0.1821  0.1939
   35MOL   H12811076   0.761   1.274   1.928  0.5338 -0.8771 -1.6379
   35MOL   H12911077   0.595   1.266   1.929  0.3386  0.0439 -1.5402
   35MOL   C13011078   0.560   1.147   2.411  0.4839  0.0350  0.4513
   35MOL   C13111079   0.423   1.085   2.370 -0.2529  0.3147 -0.9313
   35MOL   C13211080   0.296   1.169   2.414 -0.3364  0.2097 -0.6860
   35MOL   O13311081   0.287   1.198   2.529  0.4124 -0.0783  0.1748
   35MOL   N13411082   0.210   1.226   2.319 -0.2509 -0.0189 -0.1719
   35MOL   C13511083   0.212   1.209   2.179  0.1570  0.2156  0.6422
   35MOL   C13611084   0.102   1.316   2.371 -1.2950 -0.5487 -0.5820
   35MOL   H13711085   0.574   1.113   2.513  2.8129 -0.1730  0.0821
   35MOL   H13811086   0.544   1.255   2.408 -0.7632 -0.1687 -1.3966
   35MOL   H13911087   0.415   1.082   2.262 -0.3354 -1.1000 -0.8998
   35MOL   H14011088   0.125   1.237   2.121 -0.6572  1.0479  2.2579
   35MOL   H14111089   0.299   1.260   2.137 -0.3329 -0.3476 -1.1448
   35MOL   H14211090   0.227   1.103   2.155  0.1893  0.4339 -0.3591
   35MOL   H14311091   0.035   1.355   2.294  2.2590  3.1632 -1.9904
   35MOL   H14411092   0.151   1.401   2.418 -1.3680 -0.3798 -0.8073
   35MOL   H14511093   0.043   1.256   2.440  0.2819 -2.4294 -0.8380
   35MOL   C14611094   0.419   0.936   2.419  0.3739 -0.6112 -0.2358
   35MOL   C14711095   0.325   0.848   2.341  0.1835 -0.5792 -0.3537
   35MOL   C14811096   0.293   0.713   2.412  0.2590  0.1107  0.4606
   35MOL   O14911097   0.379   0.630   2.427 -0.0945 -0.0149  0.3702
   35MOL   N15011098   0.167   0.682   2.455  0.5213 -0.4708  0.2769
   35MOL   C15111099   0.131   0.568   2.536 -0.1552  0.2131 -0.2371
   35MOL   C15211100   0.045   0.767   2.439  0.1299 -0.1646 -0.0604
   35MOL   H15311101   0.520   0.895   2.420  1.9989  3.2117  1.0495
   35MOL   H15411102   0.379   0.924   2.520  0.7462 -3.4322 -0.3717
   35MOL   H15511103   0.234   0.903   2.316  0.1870 -0.8605 -1.0048
   35MOL   H15611104   0.024   0.554   2.553  0.3952 -2.0712  1.6317
   35MOL   H15711105   0.154   0.484   2.471 -0.6595 -0.1692  0.0705
   35MOL   H15811106   0.186   0.578   2.629  0.6123 -1.5328 -0.4894
   35MOL   H15911107   7.821   0.717   2.381  1.1849 -1.3691 -0.4624
   35MOL   H16011108   0.057   0.864   2.392  0.2757 -0.2728 -0.2507
   35MOL   H16111109   0.008   0.787   2.539 -1.2273  0.8345 -0.7555
   35MOL   C16211110   0.405   0.800   2.210 -0.5248  0.3542 -0.6530
   35MOL   C16311111   0.331   0.724   2.091 -0.1188 -0.5096  0.6458
   35MOL   C16411112   0.211   0.814   2.042 -0.3991  0.0752 -0.3021
   35MOL   O16511113   0.107   0.803   2.108 -0.3292  0.0836  0.0902
   35MOL   N16611114   0.231   0.897   1.937  0.4945 -0.5356 -0.8009
   35MOL   C16711115   0.344   0.898   1.844 -0.5133  0.6574 -0.3823
   35MOL   C16811116   0.119   0.979   1.907  0.1744 -0.6695  0.1166
   35MOL   H16911117   0.459   0.880   2.159  1.4688 -2.0109 -2.3212
   35MOL   H17011118   0.489   0.735   2.233 -1.9224 -0.8457  1.2093
   35MOL   H17111119   0.405   0.717   2.011  0.8361 -0.5435  1.5156
   35MOL   H17211120   0.419   0.964   1.888  0.4611 -1.0087  0.4981
   35MOL   H17311121   0.373   0.799   1.811  0.5234  1.1663 -1.0235
   35MOL   H17411122   0.299   0.963   1.769  0.1714  3.1261  1.2601
   35MOL   H17511123   0.053   0.920   1.843 -0.3111  0.4606 -0.4425
   35MOL   H17611124   0.129   1.072   1.850 -0.0063  1.4328  3.4069
   35MOL   H17711125   0.063   1.023   1.990  3.2163  1.9156  0.8696
   35MOL   C17811126   0.290   0.576   2.111  0.6738  0.2988  0.9339
   35MOL   C17911127   0.240   0.490   1.992  1.0327 -0.4992 -0.4939
   35MOL   C18011128   0.179   0.357   2.047 -0.8321  0.4773  0.1215
   35MOL   O18111129   0.254   0.293   2.129  0.2503 -0.0079 -0.7828
   35MOL   N18211130   0.052   0.322   2.011 -0.3022  0.5484 -0.3558
   35MOL   C18311131   7.802   0.414   1.951  0.7477 -0.6359 -0.1168
   35MOL   C18411132   0.007   0.195   2.061 -1.4874  0.0903 -0.3778
   35MOL   H18511133   0.378   0.521   2.146  1.6102  0.1284 -1.5656
   35MOL   H18611134   0.203   0.564   2.176  0.5760  1.1836  0.9682
   35MOL   H18711135   0.164   0.552   1.945  1.0744  0.4072  0.6172
   35MOL   H18811136   7.805   0.506   2.009 -1.3184  0.5677 -1.8379
   35MOL   H18911137   7.839   0.437   1.851  0.3601 -0.9334 -0.3282
   35MOL   H19011138   7.697   0.386   1.945  0.9717 -1.0366 -2.4175
   35MOL   H19111139   0.063   0.104   2.042 -2.1585 -0.8042  1.7272
   35MOL   H19211140   7.755   0.176   2.041 -1.5731  1.6784 -1.5146
   35MOL   H19311141   0.008   0.208   2.169 -0.8644 -2.2934 -0.0708
   35MOL   C19411142   0.341   0.459   1.881 -0.3422 -0.7106 -0.3887
   35MOL   C19511143   0.283   0.410   1.741 -0.4026 -1.1581  0.2962
   35MOL   C19611144   0.283   0.258   1.737  0.2929  0.3560 -0.2034
   35MOL   O19711145   0.384   0.194   1.766  0.7944  0.6275  0.0593
   35MOL   N19811146   0.173   0.198   1.684 -0.2271  0.8956  0.4151
   35MOL   C19911147   0.173   0.053   1.665  0.5847 -0.5002 -0.1868
   35MOL   C20011148   0.047   0.257   1.636 -0.5607  0.6530  0.1714
   35MOL   H20111149   0.374   0.561   1.861 -0.3346 -0.7343 -0.4963
   35MOL   H20211150   0.428   0.402   1.913  0.2589  0.3910 -0.0215
   35MOL   H20311151   0.186   0.457   1.731  1.1395  2.0762  0.0442
   35MOL   H20411152   0.270   0.010   1.640  0.1798 -0.5027 -1.8646
   35MOL   H20511153   0.167   0.020   1.768  2.8083  1.1955  0.5225
   35MOL   H20611154   0.091   0.009   1.607  1.3399  0.3296 -1.9424
   35MOL   H20711155   7.841   0.189   1.575 -1.4875  1.2220  0.4379
   35MOL   H20811156   0.058   0.348   1.578  1.6000  1.0521  1.1560
   35MOL   H20911157   7.835   0.272   1.722 -0.9166  0.3604 -0.0466
   35MOL   C21011158   0.347   0.475   1.613  0.1132  1.2479 -0.3433
   35MOL   C21111159   0.499   0.451   1.592 -0.1419 -0.0839 -0.4630
   35MOL   C21211160   0.590   0.535   1.682  0.1494  0.1244 -0.4136
   35MOL   O21311161   0.583   0.657   1.680  0.3285  0.3177 -0.1917
   35MOL   N21411162   0.669   0.466   1.773  0.4657 -0.9863 -0.2706
   35MOL   C21511163   0.721   0.528   1.893 -0.2158 -0.7658  0.3309
   35MOL   C21611164   0.724   0.329   1.756 -0.9788  0.1358 -0.1213
   35MOL   H21711165   0.282   0.447   1.530  0.3944 -0.5265  0.0203
   35MOL   H21811166   0.327   0.581   1.632 -2.5182  0.7581 -0.1419
   35MOL   H21911167   0.515   0.352   1.634 -2.6315  0.8062  2.6929
   35MOL   H22011168   0.829   0.529   1.887 -0.0789  1.4399  2.4925
   35MOL   H22111169   0.692   0.630   1.918 -0.0058 -0.1644 -1.8128
   35MOL   H22211170   0.687   0.472   1.980 -1.0558 -1.0273 -0.1502
   35MOL   H22311171   0.812   0.302   1.813 -0.1844  2.5197 -0.1732
   35MOL   H22411172   0.755   0.322   1.651 -2.7565  2.2303 -0.8359
   35MOL   H22511173   0.643   0.257   1.769 -1.4484  0.6874  0.0379
   35MOL   C22611174   0.550   0.470   1.447 -0.3032  0.1997 -0.2205
   35MOL   C22711175   0.503   0.355   1.357  0.0952  0.2920  0.2315
   35MOL   C22811176   0.595   0.232   1.376  0.8116 -0.2276 -0.6317
   35MOL   O22911177   0.712   0.244   1.414 -0.1424  0.0316  0.2132
   35MOL   N23011178   0.549   0.107   1.338 -0.5631 -0.0189 -0.1528
   35MOL   C23111179   0.412   0.074   1.315  0.2982 -0.1636 -0.9310
   35MOL   C23211180   0.638   7.842   1.344 -0.1979  0.5496 -0.3015
   35MOL   H23311181   0.506   0.565   1.416 -1.4188  0.0641  0.8940
   35MOL   H23411182   0.658   0.485   1.452 -0.5462  1.8279  0.3613
   35MOL   H23511183   0.402   0.326   1.387  0.6294 -0.0658  1.7044
   35MOL   H23611184   0.395   0.098   1.211 -3.0432  0.6740 -0.2486
   35MOL   H23711185   0.395   7.820   1.329  1.5275 -0.5976 -2.6524
   35MOL   H23811186   0.335   0.128   1.371  1.2839  0.6550 -0.3504
   35MOL   H23911187   0.716   0.003   1.269 -0.8215  1.3976 -0.8047
   35MOL   H24011188   0.591   7.744   1.341  1.2509 -0.1844  0.7385
   35MOL   H24111189   0.676   7.835   1.446  0.9489  0.7171 -0.7067
   35MOL   C24211190   0.501   0.406   1.211  0.3612 -0.6092  0.0234
   35MOL   C24311191   0.370   0.463   1.171  0.5233  0.8088  0.1417
   35MOL   C24411192   0.282   0.353   1.096 -0.7493 -0.3526  0.3839
   35MOL   O24511193   0.334   0.317   0.993  0.0973  0.1379 -0.0252
   35MOL   N24611194   0.159   0.307   1.139  0.4541  0.0853  0.0408
   35MOL   C24711195   0.103   0.355   1.263  0.4621 -0.0034  0.1164
   35MOL   C24811196   0.072   0.230   1.048  0.1649 -0.1598 -0.1669
   35MOL   H24911197   0.588   0.469   1.192  1.3633 -1.1413  2.6137
   35MOL   H25011198   0.534   0.328   1.142  0.8627  1.4880 -2.1690
   35MOL   H25111199   0.316   0.488   1.262  1.2970 -2.6114  1.6384
   35MOL   H25211200   0.158   0.325   1.353 -0.2054  0.9325  0.8511
   35MOL   H25311201   0.105   0.463   1.253 -1.7337  0.2316  1.8188
   35MOL   H25411202   0.001   0.318   1.277  1.3278 -2.6677 -0.3679
   35MOL   H25511203   0.084   0.122   1.039  0.6384 -0.0960 -0.2894
   35MOL   H25611204   0.102   0.272   0.953 -2.1157  1.7165 -0.1012
   35MOL   H25711205   7.820   0.256   1.059  0.7621  2.6383 -0.7189
   35MOL   C25811206   0.379   0.585   1.078 -0.0685 -0.1099  0.5600
   35MOL   C25911207   0.415   0.716   1.153  0.3189 -0.2687 -0.3822
   35MOL   C26011208   0.290   0.768   1.231 -0.1959 -0.1379  0.1790
   35MOL   O26111209   0.179   0.767   1.175  0.8150  0.0540 -0.2024
   35MOL   N26211210   0.297   0.815   1.357 -0.1213 -0.0170 -0.6165
   35MOL   C26311211   0.177   0.858   1.439 -0.3876  0.1157  0.8478
   35MOL   C26411212   0.419   0.845   1.428  0.2335  0.6564  0.1886
   35MOL   H26511213   0.457   0.566   1.003  1.0135  1.5866  1.2158
   35MOL   H26611214   0.290   0.592   1.015 -0.9331 -0.1367  1.7666
   35MOL   H26711215   0.488   0.685   1.228  1.3904 -0.7515 -1.5802
   35MOL   H26811216   0.092   0.898   1.383 -1.8867 -3.7687  0.1801
   35MOL   H26911217   0.143   0.768   1.490 -0.5596  0.2925  1.0423
   35MOL   H27011218   0.193   0.912   1.532  0.9639 -0.4378  0.9370
   35MOL   H27111219   0.502   0.879   1.366  3.3034 -2.3119  2.4645
   35MOL   H27211220   0.459   0.763   1.488 -1.2274 -0.3603 -0.1795
   35MOL   H27311221   0.401   0.928   1.496 -0.5624  0.6330  0.0103
   35MOL   C27411222   0.468   0.824   1.052  0.4901  0.1409  0.3192
   35MOL   C27511223   0.610   0.791   0.996  0.0119  0.0727 -0.7435
   35MOL   C27611224   0.711   0.768   1.105 -0.0810  0.7232  0.0939
   35MOL   O27711225   0.707   0.846   1.199  0.2575 -0.0815 -0.6055
   35MOL   N27811226   0.786   0.656   1.105 -0.0724  0.2852  0.5325
   35MOL   C27911227   0.844   0.608   1.232  0.8525  0.0505 -0.0068
   35MOL   C28011228   0.811   0.565   0.992 -0.3453  0.2120 -0.1769
   35MOL   H28111229   0.389   0.816   0.977 -0.2387  0.4860  1.0377
   35MOL   H28211230   0.474   0.925   1.094 -0.3883  0.1649  0.3950
   35MOL   H28311231   0.594   0.695   0.945  0.9190 -0.7653  0.5367
   35MOL   H28411232   0.952   0.607   1.216  0.9753 -0.2883  0.8634
   35MOL   H28511233   0.839   0.668   1.322 -0.7606 -0.6978  0.4306
   35MOL   H28611234   0.821   0.503   1.252 -0.8672  0.2460 -0.8421
   35MOL   H28711235   0.771   0.465   1.011 -3.1497  1.0194 -1.6215
   35MOL   H28811236   0.919   0.550   0.984 -0.5591 -0.8914 -1.2920
   35MOL   H28911237   0.765   0.599   0.899  2.3610 -0.7225 -1.9372
   35MOL   C29011238   0.641   0.883   0.881  0.6623  0.1859  0.3277
   35MOL   C29111239   0.721   1.008   0.912 -0.4715  0.2527  0.0179
   35MOL   C29211240   0.655   1.132   0.847 -0.0251  0.3172  0.6323
   35MOL   O29311241   0.656   1.137   0.720  1.0440  0.3154 -0.8825
   35MOL   N29411242   0.598   1.219   0.925  0.5704  0.4309 -0.1910
   35MOL   C29511243   0.598   1.232   1.072 -0.1665  0.1411  0.1877
   35MOL   C29611244   0.529   1.330   0.864 -0.4404 -0.1837  0.4746
   35MOL   H29711245   0.697   0.825   0.808 -2.3581 -2.2341 -0.1670
   35MOL   H29811246   0.551   0.909   0.826  1.3394  3.7807  0.7939
   35MOL   H29911247   0.732   1.027   1.018 -2.3446  0.8924  0.1246
   35MOL   H30011248   0.702   1.247   1.101  0.3351  0.6483 -1.7934
   35MOL   H30111249   0.555   1.321   1.118  2.7885  1.3989  0.6424
   35MOL   H30211250   0.559   1.148   1.129 -0.4395 -1.2316 -1.9749
   35MOL   H30311251   0.598   1.410   0.836 -1.6791  0.2194 -1.4777
   35MOL   H30411252   0.459   1.378   0.933  1.1646  2.1209  0.5484
   35MOL   H30511253   0.483   1.308   0.768  1.5452  2.5071 -1.1510
   35MOL   C30611254   0.873   0.987   0.880 -0.3057 -0.1496  0.8072
   35MOL   C30711255   0.912   0.965   0.736  0.5803 -0.1886  0.3657
   35MOL   C30811256   1.059   0.921   0.716 -0.5017  0.5302  0.8729
   35MOL   O30911257   1.119   0.883   0.816 -0.2467  0.0197 -0.3261
   35MOL   N31011258   1.116   0.923   0.596 -0.1487  0.3872  0.7816
   35MOL   C31111259   1.255   0.890   0.578 -0.0188 -0.2338  0.1197
   35MOL   C31211260   1.054   0.991   0.474 -1.0775  0.6342 -0.3678
   35MOL   H31311261   0.931   1.071   0.916  0.1348  0.1424 -0.5412
   35MOL   H31411262   0.901   0.900   0.939  0.6615 -0.5875 -0.2772
   35MOL   H31511263   0.851   0.897   0.676  1.7499 -0.8258 -0.1066
   35MOL   H31611264   1.308   0.942   0.498  0.9840 -0.5060  0.5883
   35MOL   H31711265   1.312   0.911   0.669 -0.4059  2.6755 -0.2563
   35MOL   H31811266   1.264   0.785   0.550 -1.8200 -0.7994  1.5773
   35MOL   H31911267   1.116   1.073   0.436 -1.8365  1.4328  0.1026
   35MOL   H32011268   0.957   1.036   0.492 -1.0289  0.6739 -0.2037
   35MOL   H32111269   1.042   0.920   0.392 -1.3599  0.2129  0.0405
   35MOL   H32211270   0.902   1.066   0.695  0.8112  0.7136  2.4882
   36MOL     C111271   5.646   0.864   5.925 -0.8307 -0.3323 -0.3566
   36MOL     C211272   5.647   0.843   5.773 -0.1856 -0.2118  0.3836
   36MOL     C311273   5.542   0.733   5.750  0.7605  0.9274  0.2650
   36MOL     O411274   5.559   0.617   5.784  0.6923  0.1166 -0.0807
   36MOL     N511275   5.429   0.763   5.685  0.2882  0.1312 -0.0813
   36MOL     C611276   5.325   0.658   5.681  0.1201  0.1769  0.7201
   36MOL     C711277   5.415   0.869   5.589 -0.1155  0.8713 -0.4468
   36MOL     H811278   5.550   0.899   5.962 -0.9488  1.4971 -2.2699
   36MOL     H911279   5.732   0.927   5.944  0.2132 -1.5052 -1.0866
   36MOL    H1011280   5.616   0.941   5.738 -1.2440 -1.1844 -1.4726
   36MOL    H1111281   5.299   0.630   5.783 -1.6479  0.0950  0.2595
   36MOL    H1211282   5.224   0.684   5.650  0.9601  2.2040 -0.4485
   36MOL    H1311283   5.362   0.573   5.624 -0.0036  0.6910 -0.1506
   36MOL    H1411284   5.366   0.955   5.635 -3.6588 -1.1440 -0.2106
   36MOL    H1511285   5.343   0.843   5.512 -1.2788  0.7289  0.6599
   36MOL    H1611286   5.504   0.909   5.542 -0.2305  1.0693 -0.4972
   36MOL    H1711287   5.673   0.779   5.988  0.8258 -0.4417 -1.1741
   36MOL    C1811288   5.790   0.808   5.722  0.3595  0.7039 -0.1235
   36MOL    C1911289   5.872   0.926   5.675  0.3868  1.0708 -0.1338
   36MOL    C2011290   5.803   0.980   5.551 -0.2088  0.1182 -0.6993
   36MOL    O2111291   5.767   0.896   5.461  0.6258 -0.2280  0.2134
   36MOL    N2211292   5.759   1.109   5.536 -0.3752  0.3821 -0.3893
   36MOL    C2311293   5.681   1.145   5.419 -0.2100 -0.6858  0.1686
   36MOL    C2411294   5.799   1.218   5.614  0.0396 -0.0484 -0.4329
   36MOL    H2511295   5.845   0.778   5.811  2.9099  1.4796 -1.3800
   36MOL    H2611296   5.798   0.723   5.654  1.9062 -0.4021  1.4074
   36MOL    H2711297   5.880   1.000   5.754 -0.0280  1.0212 -0.0426
   36MOL    H2811298   5.639   1.246   5.417 -0.5119 -0.8225 -0.2222
   36MOL    H2911299   5.744   1.145   5.331  0.1558  4.1689  0.2589
   36MOL    H3011300   5.596   1.078   5.407 -1.3094  0.2933  2.1648
   36MOL    H3111301   5.900   1.255   5.596  1.3027 -2.8337  0.7203
   36MOL    H3211302   5.784   1.195   5.720  1.8244  0.5897 -0.0286
   36MOL    H3311303   5.740   1.308   5.594 -3.0638 -1.7920  0.6140
   36MOL    C3411304   6.019   0.897   5.627  0.4869  0.7234  0.0382
   36MOL    C3511305   6.120   0.853   5.734  0.4565  0.1332 -0.1092
   36MOL    C3611306   6.196   0.971   5.785 -0.2319 -1.5463  0.0812
   36MOL    O3711307   6.268   1.038   5.708  0.3617  0.0896  0.6146
   36MOL    N3811308   6.196   0.996   5.922 -0.0413  0.3930 -0.2070
   36MOL    C3911309   6.125   0.922   6.029  0.2228 -0.2030 -0.5601
   36MOL    C4011310   6.287   1.104   5.967 -0.0692  0.0710 -0.0841
   36MOL    H4111311   6.009   0.825   5.546 -0.8738  2.0956 -1.0468
   36MOL    H4211312   6.069   0.977   5.572  0.8070 -0.2966 -1.1625
   36MOL    H4311313   6.055   0.817   5.814  0.0656 -0.6231 -0.7457
   36MOL    H4411314   6.158   0.819   6.040  0.9438  0.2518  1.8614
   36MOL    H4511315   6.153   0.970   6.123  2.8162  0.0660 -1.4484
   36MOL    H4611316   6.016   0.922   6.021  0.0325 -1.7989  1.5636
   36MOL    H4711317   6.232   1.172   6.031  1.4301  2.3204 -1.1455
   36MOL    H4811318   6.353   1.149   5.893  0.6765 -0.8814 -0.0222
   36MOL    H4911319   6.369   1.070   6.031 -1.9170 -0.8562  1.8528
   36MOL    C5011320   6.215   0.736   5.705 -0.1046 -1.0116  0.3318
   36MOL    C5111321   6.155   0.604   5.649 -0.9295  0.9036 -0.0907
   36MOL    C5211322   6.055   0.546   5.747 -0.3693 -0.2895  0.1752
   36MOL    O5311323   6.076   0.562   5.869 -0.2783  0.2027  0.5730
   36MOL    N5411324   5.948   0.481   5.694 -0.1726 -0.3181 -0.3606
   36MOL    C5511325   5.923   0.468   5.547  0.0532  0.2536  1.2731
   36MOL    C5611326   5.852   0.403   5.769  0.1841  0.2629  0.4879
   36MOL    H5711327   6.306   0.767   5.655 -1.1452  0.8074 -0.4880
   36MOL    H5811328   6.260   0.709   5.801  0.2292 -1.3538  0.0802
   36MOL    H5911329   6.109   0.618   5.552 -2.4779 -0.8012  0.3661
   36MOL    H6011330   5.841   0.399   5.523  0.7038 -1.1022  2.9211
   36MOL    H6111331   5.904   0.561   5.492 -0.6001  0.2895  1.5542
   36MOL    H6211332   6.010   0.416   5.506  0.3320  1.5021  0.2380
   36MOL    H6311333   5.829   0.463   5.858 -0.1115  0.4439  0.2902
   36MOL    H6411334   5.875   0.300   5.796  0.3833  0.5055  1.2739
   36MOL    H6511335   5.759   0.415   5.713  0.4578 -0.1942 -0.0576
   36MOL    C6611336   6.263   0.498   5.631 -0.7649  0.5059  0.8661
   36MOL    C6711337   6.360   0.523   5.518 -0.1130 -0.0545  0.5744
   36MOL    C6811338   6.290   0.543   5.379  1.1995 -0.1621 -0.0773
   36MOL    O6911339   6.224   0.449   5.334 -0.2195  0.2822  0.3837
   36MOL    N7011340   6.297   0.655   5.315 -0.2605 -0.3417  0.1640
   36MOL    C7111341   6.353   0.785   5.363  0.0165  0.1247 -0.6087
   36MOL    C7211342   6.269   0.656   5.169  0.1181  0.2396  0.1450
   36MOL    H7311343   6.303   0.471   5.729  0.9583 -1.1030 -0.2646
   36MOL    H7411344   6.215   0.407   5.596  0.8943 -0.1039  0.1330
   36MOL    H7511345   6.409   0.619   5.531  1.0660 -0.2666 -2.0079
   36MOL    H7611346   6.366   0.856   5.281 -1.1870  0.3059 -0.6385
   36MOL    H7711347   6.283   0.824   5.436  0.6345  1.7897 -0.8720
   36MOL    H7811348   6.447   0.773   5.417 -0.2705 -0.1582 -0.1698
   36MOL    H7911349   6.261   0.759   5.133 -0.9168  0.5824  1.3115
   36MOL    H8011350   6.180   0.596   5.152  0.7733 -0.8783  0.6465
   36MOL    H8111351   6.333   0.591   5.109  0.9862  1.2666 -0.0818
   36MOL    C8211352   6.477   0.422   5.504 -0.4519 -0.3226 -0.0036
   36MOL    C8311353   6.454   0.262   5.496  0.3280 -0.4872  0.1722
   36MOL    C8411354   6.423   0.197   5.632 -0.1342 -0.5516  0.1531
   36MOL    O8511355   6.509   0.201   5.721 -0.0712  0.1913 -0.0454
   36MOL    N8611356   6.306   0.136   5.643  0.2269 -0.5813 -0.3919
   36MOL    C8711357   6.262   0.096   5.779 -0.9114  0.2845 -0.3898
   36MOL    C8811358   6.209   0.113   5.541 -0.4440 -0.5262  0.2634
   36MOL    H8911359   6.531   0.455   5.416  1.1406 -2.1823  0.2529
   36MOL    H9011360   6.553   0.446   5.578 -1.4652  2.4412  0.2125
   36MOL    H9111361   6.369   0.249   5.429  0.4371 -2.1893  0.3619
   36MOL    H9211362   6.185   0.020   5.779 -0.8856  0.2560 -1.6593
   36MOL    H9311363   6.340   0.039   5.829 -0.5333  0.3901 -0.8628
   36MOL    H9411364   6.224   0.181   5.836 -1.3127 -0.0547 -0.1500
   36MOL    H9511365   6.153   0.199   5.505 -1.1961 -1.3691 -0.5907
   36MOL    H9611366   6.131   0.048   5.582 -0.6760 -0.8914 -0.7515
   36MOL    H9711367   6.248   0.050   5.461  1.3681  1.9419 -0.8575
   36MOL    C9811368   6.574   0.192   5.440 -1.0997  0.0980  0.0883
   36MOL    C9911369   6.542   0.082   5.329  0.7711 -0.9020  0.1520
   36MOL   C10011370   6.511   7.801   5.401 -0.1005 -0.2111  1.0122
   36MOL   O10111371   6.561   7.775   5.506 -0.2938 -0.8053 -0.2838
   36MOL   N10211372   6.440   7.706   5.337  0.1166 -0.0934  0.2477
   36MOL   C10311373   6.355   7.733   5.225  0.0680 -0.4106  0.6353
   36MOL   C10411374   6.473   7.564   5.345 -0.0478 -0.0438  0.0347
   36MOL   H10511375   6.640   0.272   5.407 -0.2493 -0.9248 -0.7265
   36MOL   H10611376   6.642   0.155   5.517 -1.6481 -0.1301  0.4714
   36MOL   H10711377   6.451   0.106   5.274  1.1161 -0.8412 -0.3920
   36MOL   H10811378   6.275   7.659   5.211  0.8126 -0.7741 -2.0054
   36MOL   H10911379   6.310   7.832   5.214  1.1862 -0.1959 -2.6521
   36MOL   H11011380   6.419   7.733   5.137 -0.7533 -2.7328 -0.0102
   36MOL   H11111381   6.534   7.534   5.260 -0.4412  0.7651 -0.5406
   36MOL   H11211382   6.381   7.509   5.330 -0.6011  0.6003  1.0393
   36MOL   H11311383   6.527   7.534   5.435 -0.3885  2.3791  1.0880
   36MOL   C11411384   6.663   0.068   5.221 -0.8464  0.1770 -0.9011
   36MOL   C11511385   6.660   0.171   5.109 -0.0679 -0.2477 -0.8317
   36MOL   C11611386   6.568   0.111   5.005  0.5117  0.2203  0.6826
   36MOL   O11711387   6.603   0.006   4.949 -0.2901 -0.4537 -0.5795
   36MOL   N11811388   6.445   0.166   4.971 -0.2148 -0.4379 -0.2976
   36MOL   C11911389   6.364   0.101   4.859 -0.7115 -0.5415  0.5086
   36MOL   C12011390   6.381   0.280   5.030 -0.1621  0.5116  0.4112
   36MOL   H12111391   6.758   0.064   5.274 -0.2917 -0.3056 -1.9320
   36MOL   H12211392   6.660   7.822   5.178  2.8221 -0.1254 -0.5909
   36MOL   H12311393   6.628   0.273   5.129 -0.6937 -0.4547 -0.7742
   36MOL   H12411394   6.280   0.046   4.902 -0.1196 -0.1792  2.1560
   36MOL   H12511395   6.313   0.170   4.792 -1.2517 -1.4595 -0.0441
   36MOL   H12611396   6.411   0.029   4.792  3.5613  3.9845 -1.6324
   36MOL   H12711397   6.457   0.355   5.054  0.3613 -0.5236  2.1045
   36MOL   H12811398   6.340   0.243   5.124  0.6815 -0.1918  0.5126
   36MOL   H12911399   6.312   0.336   4.968  0.3094  1.4328  0.6984
   36MOL   C13011400   6.802   0.186   5.043  0.3593  0.1396  0.7538
   36MOL   C13111401   6.927   0.251   5.117 -0.8087  0.0544  0.0447
   36MOL   C13211402   6.890   0.378   5.196 -0.2514 -0.1815  0.0662
   36MOL   O13311403   6.822   0.459   5.134  0.1393 -0.5687 -0.3951
   36MOL   N13411404   6.914   0.392   5.323  0.3452 -0.0045 -0.9726
   36MOL   C13511405   6.992   0.299   5.402  0.8917 -0.2838 -0.0607
   36MOL   C13611406   6.881   0.523   5.389  0.2477  0.1187 -0.2377
   36MOL   H13711407   6.841   0.098   4.993  0.1803 -0.9378  2.4636
   36MOL   H13811408   6.790   0.253   4.958 -0.9305  1.0487  1.6359
   36MOL   H13911409   6.948   0.169   5.185 -1.9437 -0.5248 -0.2877
   36MOL   H14011410   6.921   0.217   5.409  0.0127  0.5325  0.8512
   36MOL   H14111411   7.086   0.269   5.355  1.8504  2.2165  0.1783
   36MOL   H14211412   7.009   0.330   5.505 -1.7409  2.8641 -0.4943
   36MOL   H14311413   6.910   0.607   5.325  1.6242 -1.8027 -2.2475
   36MOL   H14411414   6.944   0.533   5.477  1.5106  0.8733 -1.1869
   36MOL   H14511415   6.773   0.526   5.402  0.2693  1.0909 -0.1934
   36MOL   C14611416   7.043   0.267   5.014  0.2368 -0.7974 -0.4049
   36MOL   C14711417   7.185   0.320   5.061  0.4216  0.4539  0.2819
   36MOL   C14811418   7.190   0.471   5.059 -0.1252 -0.6417 -0.2885
   36MOL   O14911419   7.154   0.523   4.954 -0.2942 -0.0092  0.4066
   36MOL   N15011420   7.251   0.537   5.165  0.7100 -0.2465  0.3247
   36MOL   C15111421   7.293   0.673   5.149  1.0311 -0.0853 -0.5112
   36MOL   C15211422   7.331   0.480   5.274 -0.6297  0.3430 -0.1415
   36MOL   H15311423   7.054   0.167   4.973  0.4298 -0.6612 -0.6936
   36MOL   H15411424   7.003   0.322   4.929 -0.1713 -0.8881 -0.2678
   36MOL   H15511425   7.193   0.279   5.161  1.0920  0.9662  0.4400
   36MOL   H15611426   7.205   0.735   5.168 -0.0161 -2.0553  1.2713
   36MOL   H15711427   7.363   0.711   5.224  1.4642 -0.3750 -0.7690
   36MOL   H15811428   7.330   0.690   5.048 -0.6410  0.5617 -1.0337
   36MOL   H15911429   7.301   0.376   5.291 -1.6412  0.4238 -1.3208
   36MOL   H16011430   7.332   0.534   5.368  1.2106 -0.7241  0.4820
   36MOL   H16111431   7.434   0.475   5.239 -0.4395 -0.3168  0.4907
   36MOL   C16211432   7.297   0.266   4.966  0.3893 -0.2983  0.3041
   36MOL   C16311433   7.371   0.128   5.000 -0.5787 -0.5608 -0.2571
   36MOL   C16411434   7.432   0.125   5.140 -0.0090 -0.1652 -0.7632
   36MOL   O16511435   7.534   0.182   5.160 -0.0487 -0.1609 -0.0192
   36MOL   N16611436   7.376   0.048   5.234  0.5661  0.0966 -0.7986
   36MOL   C16711437   7.239   7.845   5.226 -0.1723  0.1677  0.0338
   36MOL   C16811438   7.458   7.850   5.350 -0.6423  0.0857 -0.8536
   36MOL   H16911439   7.264   0.273   4.862  1.9355  3.1411 -0.0420
   36MOL   H17011440   7.373   0.342   4.982 -0.7202  0.6736  1.0000
   36MOL   H17111441   7.300   0.048   4.984 -1.6105  0.6530 -1.8667
   36MOL   H17211442   7.209   7.830   5.330  1.6624  0.0267  0.5645
   36MOL   H17311443   7.158   0.054   5.189  0.0655  0.5898  0.2182
   36MOL   H17411444   7.239   7.750   5.172  0.7174  1.8454 -3.0555
   36MOL   H17511445   7.493   7.749   5.333  0.1141 -0.0660  1.4620
   36MOL   H17611446   7.410   0.005   5.447 -0.2074  1.4328 -0.7435
   36MOL   H17711447   7.547   0.058   5.365 -1.8540  1.7382 -0.3206
   36MOL   C17811448   7.481   0.115   4.887  0.2925  0.5892 -0.1481
   36MOL   C17911449   7.564   7.837   4.849 -0.0204  0.7284 -0.2649
   36MOL   C18011450   7.470   7.712   4.850  0.2692 -0.0107  0.2468
   36MOL   O18111451   7.459   7.655   4.957 -0.3188  0.7397  0.4605
   36MOL   N18211452   7.388   7.676   4.746  0.9795  0.4772  0.0429
   36MOL   C18311453   7.283   7.578   4.766 -0.1100 -0.1356 -0.0129
   36MOL   C18411454   7.399   7.728   4.611 -0.7712  0.4518 -0.0514
   36MOL   H18511455   7.430   0.148   4.797 -1.5817  2.2282  1.4675
   36MOL   H18611456   7.548   0.197   4.911  0.0784 -0.0634  2.9566
   36MOL   H18711457   7.588   7.848   4.743 -2.1327 -2.0207 -1.0633
   36MOL   H18811458   7.312   7.485   4.716  0.8898 -0.3597  0.9818
   36MOL   H18911459   7.256   7.558   4.869  0.1700 -0.9722 -0.0969
   36MOL   H19011460   7.193   7.619   4.718 -0.8280 -0.8457  0.7113
   36MOL   H19111461   7.359   7.829   4.613  0.6044  0.9858  1.4941
   36MOL   H19211462   7.341   7.664   4.545 -1.2331  1.7733 -0.9641
   36MOL   H19311463   7.501   7.739   4.574 -1.0380  1.4616 -0.5096
   36MOL   C19411464   7.704   7.828   4.930 -0.4295 -0.5055 -0.3498
   36MOL   C19511465   7.810   7.735   4.872  0.1004 -0.0632 -0.3426
   36MOL   C19611466   0.018   7.804   4.745  0.3772 -0.2133 -0.4486
   36MOL   O19711467   7.824   7.770   4.635 -0.4179  0.2688  0.3646
   36MOL   N19811468   0.129   0.031   4.754  0.5324 -0.8083  0.1315
   36MOL   C19911469   0.195   0.065   4.883  0.2771  0.4313 -0.0659
   36MOL   C20011470   0.190   0.084   4.631 -0.6835  0.9257 -0.1579
   36MOL   H20111471   7.751   0.072   4.941 -2.0461  0.2972 -0.3034
   36MOL   H20211472   7.688   7.811   5.037 -0.4770  0.8262 -0.1280
   36MOL   H20311473   0.038   7.736   4.945 -1.4584 -1.6610  1.4956
   36MOL   H20411474   0.281   0.126   4.854  0.7456  0.4673  1.3822
   36MOL   H20511475   0.148   0.125   4.960  3.0632  2.9217 -0.2314
   36MOL   H20611476   0.238   7.834   4.937  4.3319  2.4225 -0.0019
   36MOL   H20711477   0.113   0.095   4.555 -2.9201 -2.2775  1.4627
   36MOL   H20811478   0.261   0.010   4.593 -1.7710 -0.6971  0.8612
   36MOL   H20911479   0.233   0.182   4.650 -0.3286  0.8181 -0.4154
   36MOL   C21011480   7.772   7.586   4.854 -0.1970 -0.7935 -0.1162
   36MOL   C21111481   0.047   7.487   4.847 -0.1626  1.2463  0.3912
   36MOL   C21211482   7.844   7.354   4.797  0.2947  0.1435  0.0969
   36MOL   O21311483   7.827   7.263   4.882  0.0631  0.0057  0.1697
   36MOL   N21411484   7.801   7.338   4.667  0.1968  0.2060 -0.0045
   36MOL   C21511485   7.840   7.431   4.556  0.3562 -0.0714 -0.1178
   36MOL   C21611486   7.734   7.210   4.624 -0.1022 -0.5943 -1.0225
   36MOL   H21711487   7.713   7.546   4.937  0.3390  0.4248  0.8691
   36MOL   H21811488   7.701   7.574   4.772 -1.7460 -1.0049  1.2317
   36MOL   H21911489   0.110   7.526   4.767  0.3604 -1.9240 -0.8144
   36MOL   H22011490   7.818   7.405   4.452  2.1141  0.4441 -0.6501
   36MOL   H22111491   7.799   7.531   4.566  1.8206  0.2873  2.9218
   36MOL   H22211492   0.095   7.439   4.561  0.5599 -2.3779 -0.1116
   36MOL   H22311493   7.802   7.126   4.609  2.4550  0.9537  1.3616
   36MOL   H22411494   7.664   7.213   4.541  0.4534 -0.9197 -1.5080
   36MOL   H22511495   7.671   7.185   4.710 -1.2271  1.5870 -1.1730
   36MOL   C22611496   0.127   7.470   4.984  0.1755  0.6065  0.3376
   36MOL   C22711497   0.256   7.392   4.987 -0.5860 -0.2390 -0.0445
   36MOL   C22811498   0.283   7.361   5.137 -0.2498  0.0297 -0.1078
   36MOL   O22911499   0.312   7.461   5.202 -1.1287 -0.3642  0.2001
   36MOL   N23011500   0.280   7.240   5.196 -0.4460  0.0593  0.3635
   36MOL   C23111501   0.219   7.124   5.126 -0.3777  0.2695 -0.4681
   36MOL   C23211502   0.290   7.229   5.338  0.4504 -0.0035 -0.1325
   36MOL   H23311503   0.147   7.572   5.016  0.5490  0.5922  0.1476
   36MOL   H23411504   0.057   7.429   5.057 -2.7966  1.8190 -1.7266
   36MOL   H23511505   0.249   7.298   4.933  0.5341 -0.4053  0.0983
   36MOL   H23611506   0.254   7.033   5.174 -0.8167  0.3979  0.0966
   36MOL   H23711507   0.111   7.135   5.134 -0.3016  0.9124 -0.2686
   36MOL   H23811508   0.245   7.115   5.021  0.0352  1.8401 -0.5151
   36MOL   H23911509   0.354   7.146   5.369  0.7834  0.1688 -0.3633
   36MOL   H24011510   0.191   7.221   5.383 -0.7048 -0.4896 -2.6716
   36MOL   H24111511   0.338   7.311   5.390 -2.1669 -0.6037  3.4141
   36MOL   C24211512   0.365   7.477   4.915  0.0625 -0.5602 -0.4770
   36MOL   C24311513   0.487   7.392   4.874  0.3657  0.0149  0.5081
   36MOL   C24411514   0.611   7.486   4.862 -0.5089 -0.4820  0.1486
   36MOL   O24511515   0.635   7.540   4.756  0.1029 -0.0840  0.8435
   36MOL   N24611516   0.701   7.485   4.965 -0.8033 -0.3983 -0.5023
   36MOL   C24711517   0.688   7.421   5.097  0.2034 -0.0604  0.0932
   36MOL   C24811518   0.822   7.565   4.959  0.1182 -0.2262  0.3603
   36MOL   H24911519   0.321   7.524   4.828 -3.8319 -0.4062  1.4738
   36MOL   H25011520   0.397   7.552   4.987 -1.4320 -0.0407 -0.3401
   36MOL   H25111521   0.505   7.310   4.943 -1.0359 -1.0461 -0.3640
   36MOL   H25211522   0.603   7.473   5.142  0.2890  0.1322  0.0319
   36MOL   H25311523   0.665   7.315   5.092  0.8574 -0.2048  0.1036
   36MOL   H25411524   0.767   7.428   5.172 -0.6319  0.2574  0.9674
   36MOL   H25511525   0.904   7.494   4.948  0.7382  0.4475  0.5816
   36MOL   H25611526   0.839   7.620   5.052 -2.3169  0.2580  0.5674
   36MOL   H25711527   0.829   7.637   4.878 -0.1000 -1.1137 -0.4483
   36MOL   C25811528   0.455   7.330   4.741  0.0363  0.6976  0.6839
   36MOL   C25911529   0.518   7.191   4.697  0.4994 -0.1395  0.1808
   36MOL   C26011530   0.466   7.082   4.793  0.1660 -0.0987 -0.3795
   36MOL   O26111531   0.533   7.065   4.895 -0.4847 -0.5458 -0.6022
   36MOL   N26211532   0.355   7.012   4.769 -0.0064 -0.2934  0.3697
   36MOL   C26311533   0.348   6.878   4.823 -0.1390  0.5906 -0.4047
   36MOL   C26411534   0.240   7.073   4.699  0.2336  0.3348 -0.0646
   36MOL   H26511535   0.349   7.307   4.750  0.5076 -2.8567 -1.6034
   36MOL   H26611536   0.464   7.400   4.658  2.0432  0.6476  0.8184
   36MOL   H26711537   0.482   7.172   4.595 -0.7817 -0.4182  0.6693
   36MOL   H26811538   0.282   6.876   4.910 -0.6217 -0.9321 -0.7854
   36MOL   H26911539   0.316   6.798   4.756 -0.2177  0.1239  0.1824
   36MOL   H27011540   0.438   6.833   4.864 -0.3413  1.5810  1.1325
   36MOL   H27111541   0.263   7.092   4.595  1.7469 -0.3132  0.1380
   36MOL   H27211542   0.206   7.171   4.732 -0.2444  0.5537 -1.1901
   36MOL   H27311543   0.152   7.009   4.709  0.9850 -0.6125  0.7206
   36MOL   C27411544   0.675   7.201   4.685  1.0398  0.1618  0.9290
   36MOL   C27511545   0.730   7.097   4.584 -0.1301 -0.8325 -0.1573
   36MOL   C27611546   0.734   6.954   4.640 -0.4285 -0.1328 -0.2392
   36MOL   O27711547   0.795   6.933   4.746  0.7360 -0.0655  0.5414
   36MOL   N27811548   0.674   6.850   4.572  0.1179  0.0980  0.4617
   36MOL   C27911549   0.560   6.862   4.484 -0.5462  0.2852  1.1602
   36MOL   C28011550   0.701   6.717   4.617 -0.2396 -0.1079  0.3115
   36MOL   H28111551   0.700   7.304   4.660  0.2504 -0.1565 -1.3250
   36MOL   H28211552   0.726   7.186   4.780  1.1979  1.5007  1.0618
   36MOL   H28311553   0.662   7.108   4.500  0.3603 -1.4622 -0.6358
   36MOL   H28411554   0.511   6.767   4.461  1.4238 -0.8364  1.4613
   36MOL   H28511555   0.477   6.931   4.499  0.4480  1.0005  3.6431
   36MOL   H28611556   0.602   6.881   4.385  0.3246  1.2523  1.7120
   36MOL   H28711557   0.687   6.638   4.543 -2.6492  0.7768 -0.2264
   36MOL   H28811558   0.643   6.684   4.704 -1.3207  1.1859  0.0892
   36MOL   H28911559   0.809   6.714   4.632  0.0756 -0.6071 -1.8720
   36MOL   C29011560   0.864   7.154   4.530 -0.2222 -0.1534 -0.9038
   36MOL   C29111561   0.951   7.064   4.434 -0.8789 -0.4697  0.3411
   36MOL   C29211562   1.090   7.131   4.420 -0.3924 -0.4969  0.1448
   36MOL   O29311563   1.093   7.246   4.368 -0.7172 -0.4070  0.0434
   36MOL   N29411564   1.195   7.087   4.496 -0.5558 -0.0812  0.0501
   36MOL   C29511565   1.322   7.149   4.493 -1.0049  0.1571  0.9073
   36MOL   C29611566   1.198   6.958   4.560  0.1567 -0.3693  0.0982
   36MOL   H29711567   0.850   7.254   4.488  0.8987 -0.0401 -1.0304
   36MOL   H29811568   0.921   7.150   4.624 -1.7614 -1.4972 -0.0126
   36MOL   H29911569   0.954   6.968   4.485 -1.1813 -1.8733 -2.2069
   36MOL   H30011570   1.377   7.100   4.413 -0.4476  2.0984  0.0551
   36MOL   H30111571   1.307   7.257   4.494 -1.8331  0.0350  1.8501
   36MOL   H30211572   1.370   7.145   4.590  1.3432  0.2652 -0.2019
   36MOL   H30311573   1.167   6.874   4.498  0.2390 -1.3290  1.3433
   36MOL   H30411574   1.126   6.950   4.642  0.3759 -3.5138  0.0350
   36MOL   H30511575   1.294   6.923   4.596  0.9243 -1.9536 -3.3238
   36MOL   C30611576   0.878   7.061   4.292 -0.4323  0.3507  0.3985
   36MOL   C30711577   0.917   6.956   4.185  0.6217 -0.2653  0.1174
   36MOL   C30811578   0.906   6.807   4.240  0.4017  0.2698 -0.2229
   36MOL   O30911579   0.969   6.776   4.344  1.0114  0.6940  0.2514
   36MOL   N31011580   0.808   6.723   4.187 -0.1198  0.4171 -0.0552
   36MOL   C31111581   0.746   6.736   4.057  0.2343 -0.1019 -0.9681
   36MOL   C31211582   0.790   6.592   4.251 -0.0147  0.1139  0.2621
   36MOL   H31311583   0.770   7.051   4.304 -0.9148 -0.3128 -3.6584
   36MOL   H31411584   0.867   7.158   4.244 -0.7615 -0.3972 -1.0581
   36MOL   H31511585   0.861   6.987   4.096 -1.2379  1.1770  1.7233
   36MOL   H31611586   0.823   6.783   3.995 -2.1590  0.8408 -3.3360
   36MOL   H31711587   0.729   6.644   4.001 -1.7944  0.0328 -0.5935
   36MOL   H31811588   0.664   6.808   4.060 -0.7116 -1.1994  0.1628
   36MOL   H31911589   0.682   6.579   4.259 -0.1888 -0.7320 -2.8660
   36MOL   H32011590   0.818   6.581   4.356  1.8297 -3.3075 -0.5173
   36MOL   H32111591   0.835   6.503   4.206  0.5447  0.3146  0.4191
   36MOL   H32211592   1.022   6.966   4.159  0.6201  1.5191  0.6731
   37MOL     C111593   5.256   7.046   4.956  0.1344 -0.9172  0.0018
   37MOL     C211594   5.377   6.945   4.978  0.0446 -0.4196 -0.2790
   37MOL     C311595   5.362   6.848   5.089  0.2132 -0.0336  0.3331
   37MOL     O411596   5.317   6.895   5.194  0.0428  0.1637 -0.0949
   37MOL     N511597   5.389   6.719   5.068  0.5071 -0.0138 -0.4534
   37MOL     C611598   5.348   6.620   5.162 -0.1098 -0.0176 -0.2992
   37MOL     C711599   5.463   6.665   4.952 -0.0900 -0.6805 -0.8828
   37MOL     H811600   5.166   6.985   4.950 -1.2643  1.1131 -0.3303
   37MOL     H911601   5.250   7.100   4.861 -1.1277  0.2074  0.7042
   37MOL    H1011602   5.370   6.881   4.890  0.4526  0.9603 -1.3351
   37MOL    H1111603   5.381   6.517   5.151  1.7527  0.3190  1.8024
   37MOL    H1211604   5.368   6.653   5.264  0.8704  0.6633 -0.7090
   37MOL    H1311605   5.241   6.620   5.137 -0.7050 -1.4642  2.1194
   37MOL    H1411606   5.409   6.651   4.858 -2.4157  0.5254  0.2223
   37MOL    H1511607   5.515   6.571   4.971 -0.2620 -1.0737 -2.2741
   37MOL    H1611608   5.543   6.736   4.934 -0.9695  0.8763  1.2721
   37MOL    H1711609   5.248   7.115   5.040  0.7150  0.0847 -0.7502
   37MOL    C1811610   5.512   7.020   4.978  0.3404  0.2002  0.5363
   37MOL    C1911611   5.557   7.079   4.840  0.2082 -0.0957 -0.4637
   37MOL    C2011612   5.615   6.962   4.759 -0.4052 -0.7487  0.3012
   37MOL    O2111613   5.725   6.918   4.795 -0.7721 -0.2808  0.1636
   37MOL    N2211614   5.541   6.898   4.666 -0.0157 -0.1591  0.4100
   37MOL    C2311615   5.425   6.954   4.597 -0.5625  0.2794  0.2091
   37MOL    C2411616   5.599   6.767   4.618  0.2405  0.1039  0.2341
   37MOL    H2511617   5.506   7.097   5.054  0.3321 -0.0031  0.7444
   37MOL    H2611618   5.590   6.954   5.016 -0.0865 -0.2761  0.6074
   37MOL    H2711619   5.470   7.113   4.785 -0.3897 -2.8824 -1.3204
   37MOL    H2811620   5.430   6.906   4.499  2.0714  0.2877  0.2880
   37MOL    H2911621   5.341   6.916   4.655  0.4007 -3.7563 -0.8737
   37MOL    H3011622   5.427   7.060   4.572 -0.1147 -0.5888 -3.7798
   37MOL    H3111623   5.678   6.797   4.550 -0.0757 -1.0484 -0.6472
   37MOL    H3211624   5.524   6.707   4.566  1.5468 -1.2278 -0.1417
   37MOL    H3311625   5.642   6.710   4.700  2.4377  0.3343 -0.7276
   37MOL    C3411626   5.652   7.201   4.835 -0.0262 -0.1643 -0.3430
   37MOL    C3511627   5.590   7.341   4.828  0.1390 -0.4055 -0.3823
   37MOL    C3611628   5.517   7.347   4.686 -0.3470 -0.1567  0.0089
   37MOL    O3711629   5.588   7.319   4.589  0.0015  0.6636 -0.0387
   37MOL    N3811630   5.386   7.372   4.674  0.2246  0.5119  0.0926
   37MOL    C3911631   5.295   7.406   4.788 -0.3868  0.2581 -0.6997
   37MOL    C4011632   5.325   7.373   4.539 -0.1503 -0.0075 -0.0359
   37MOL    H4111633   5.705   7.194   4.931  1.3135 -1.5778 -1.1452
   37MOL    H4211634   5.724   7.179   4.757  1.6083 -0.1313  1.1069
   37MOL    H4311635   5.515   7.339   4.907 -0.1225  0.2233 -0.6069
   37MOL    H4411636   5.198   7.435   4.746 -1.5849 -0.1859  1.6910
   37MOL    H4511637   5.274   7.329   4.862 -1.5718 -0.0535 -1.3517
   37MOL    H4611638   5.335   7.492   4.842  0.3895 -1.3952  1.4105
   37MOL    H4711639   5.388   7.379   4.451 -1.5878  0.6620 -1.0412
   37MOL    H4811640   5.252   7.454   4.542  2.1789  2.3191 -2.7328
   37MOL    H4911641   5.269   7.279   4.530 -0.8173  0.3465  0.3427
   37MOL    C5011642   5.687   7.457   4.839 -0.3385  0.0399 -0.9016
   37MOL    C5111643   5.702   7.516   4.985  0.0773  0.5113  0.5157
   37MOL    C5211644   5.574   7.583   5.037 -0.2976  0.2882 -0.2342
   37MOL    O5311645   5.555   7.707   5.010  0.2327  0.3428  0.3788
   37MOL    N5411646   5.490   7.519   5.127  0.3714  0.5247 -0.2257
   37MOL    C5511647   5.499   7.380   5.183 -0.2122  0.1434  0.6528
   37MOL    C5611648   5.378   7.593   5.181 -0.0023 -0.2206 -0.1800
   37MOL    H5711649   5.782   7.422   4.797  0.3973  0.5544  0.2989
   37MOL    H5811650   5.661   7.540   4.773 -2.0998  0.0190 -0.2443
   37MOL    H5911651   5.725   7.430   5.048  0.8285  1.9264  2.2127
   37MOL    H6011652   5.402   7.332   5.169 -0.8856  1.9625 -1.1659
   37MOL    H6111653   5.571   7.314   5.135  1.4812  3.8335 -2.0386
   37MOL    H6211654   5.531   7.403   5.285  0.9251  1.3535  0.0303
   37MOL    H6311655   5.290   7.530   5.193  0.1185 -0.5052 -0.7799
   37MOL    H6411656   5.339   7.674   5.120 -1.5039  1.3085  2.7010
   37MOL    H6511657   5.388   7.641   5.278  2.9279 -0.0352 -0.5419
   37MOL    C6611658   5.813   7.625   4.979  0.4994 -0.5483  0.2017
   37MOL    C6711659   5.867   7.668   5.116 -0.1698 -0.4882  0.6477
   37MOL    C6811660   5.948   7.795   5.091 -0.5647 -0.8118 -0.2243
   37MOL    O6911661   6.057   7.776   5.035  0.4532 -0.2755 -0.4616
   37MOL    N7011662   5.912   0.061   5.139  0.8290 -0.2864  0.0811
   37MOL    C7111663   6.006   0.172   5.119  0.8673 -0.4662  0.2007
   37MOL    C7211664   5.786   0.081   5.206  0.5990  0.1752 -0.5547
   37MOL    H7311665   5.897   7.588   4.920  0.3140 -1.8707  0.7426
   37MOL    H7411666   5.774   7.717   4.935 -0.1981 -0.1585  1.5827
   37MOL    H7511667   5.786   7.689   5.185  0.6503  0.5724  1.3213
   37MOL    H7611668   5.962   0.271   5.108  3.5570  0.6257 -1.3327
   37MOL    H7711669   6.061   0.183   5.212 -0.8864 -0.9980  1.3357
   37MOL    H7811670   6.075   0.157   5.036  0.7797 -0.9329  0.2113
   37MOL    H7911671   5.785   0.184   5.240  0.1601  0.7718 -2.3500
   37MOL    H8011672   5.786   0.007   5.286  0.0030  2.4144  1.5851
   37MOL    H8111673   5.696   0.059   5.149 -0.2772  0.3533  0.7537
   37MOL    C8211674   5.956   7.556   5.174  0.2936 -0.8991 -0.4833
   37MOL    C8311675   5.933   7.524   5.328 -0.1064  0.0420 -0.2789
   37MOL    C8411676   5.945   7.649   5.420  0.0045 -0.5674  0.0321
   37MOL    O8511677   6.045   7.720   5.402 -0.3102  0.2943  0.8085
   37MOL    N8611678   5.844   7.693   5.494 -0.0684  0.3961 -0.6422
   37MOL    C8711679   5.710   7.628   5.513  0.3093  0.1600 -0.0401
   37MOL    C8811680   5.852   7.826   5.561 -0.3276 -0.1979 -0.2584
   37MOL    H8911681   5.940   7.462   5.121 -1.3772 -1.7486  1.4604
   37MOL    H9011682   6.061   7.580   5.157  0.1177 -1.3104 -2.3448
   37MOL    H9111683   5.834   7.480   5.342 -0.0745  0.4535  1.3195
   37MOL    H9211684   5.713   7.521   5.536 -0.3031  0.5378  1.8179
   37MOL    H9311685   5.666   7.677   5.600  1.2473  2.2503 -0.7041
   37MOL    H9411686   5.651   7.657   5.426  0.1087  1.2087  0.4484
   37MOL    H9511687   5.754   0.020   5.568 -0.4941 -0.8347  2.1273
   37MOL    H9611688   5.906   0.051   5.507 -2.0333  1.2237  0.0346
   37MOL    H9711689   5.897   7.825   5.660  0.8196 -1.0486 -0.7757
   37MOL    C9811690   6.044   7.419   5.366 -0.0824 -0.0737 -0.4408
   37MOL    C9911691   6.001   7.268   5.381  0.4441 -0.3405 -1.0420
   37MOL   C10011692   5.949   7.203   5.246 -0.3192  0.1976 -0.0133
   37MOL   O10111693   5.838   7.233   5.202 -0.2778 -0.5962 -1.0272
   37MOL   N10211694   6.013   7.100   5.183  0.2788 -0.4338 -0.9912
   37MOL   C10311695   6.151   7.070   5.213  0.2377  0.4461  0.2534
   37MOL   C10411696   5.958   7.038   5.055 -0.0885  0.0281 -0.1792
   37MOL   H10511697   6.125   7.432   5.293 -0.3336  0.2809 -0.6625
   37MOL   H10611698   6.086   7.439   5.465  0.2619  0.2380 -0.6424
   37MOL   H10711699   6.092   7.222   5.420 -0.4641 -0.5818  0.8353
   37MOL   H10811700   6.216   7.157   5.220 -1.3833  1.6797  0.3893
   37MOL   H10911701   6.147   7.026   5.312 -1.3107 -0.8688 -0.3781
   37MOL   H11011702   6.205   6.998   5.151 -2.2849 -1.0419 -0.2853
   37MOL   H11111703   5.880   6.975   5.097 -0.0389 -0.4713 -0.8312
   37MOL   H11211704   6.032   6.984   4.995  0.2742 -1.4708  1.5810
   37MOL   H11311705   5.917   7.117   4.992  0.7698  0.1939 -0.5469
   37MOL   C11411706   5.897   7.227   5.495  0.3841 -0.1523  0.0412
   37MOL   C11511707   5.941   7.208   5.643 -0.6496 -0.0067 -0.3736
   37MOL   C11611708   5.941   7.338   5.729 -0.8834  0.1434 -0.0492
   37MOL   O11711709   6.002   7.434   5.686 -0.2386 -0.1545  0.2922
   37MOL   N11811710   5.870   7.345   5.845  0.1020 -0.4653 -0.0787
   37MOL   C11911711   5.853   7.471   5.915 -0.3714 -0.2756  0.3377
   37MOL   C12011712   5.788   7.236   5.900  0.7358  0.5621  0.2302
   37MOL   H12111713   5.817   7.300   5.490 -0.7514 -1.2617  1.5430
   37MOL   H12211714   5.838   7.145   5.457 -0.0332 -0.2360  0.8480
   37MOL   H12311715   5.856   7.152   5.683 -2.9127  3.2181 -0.5396
   37MOL   H12411716   5.807   7.543   5.846 -0.6426 -0.3022  0.4899
   37MOL   H12511717   5.806   7.467   6.013 -2.4956 -1.3731 -0.6950
   37MOL   H12611718   5.946   7.525   5.933  0.4533 -1.3118 -0.7595
   37MOL   H12711719   5.836   7.139   5.908 -0.9939 -0.2608  0.9893
   37MOL   H12811720   5.703   7.239   5.832 -1.1502  0.8731  2.5149
   37MOL   H12911721   5.752   7.262   6.000  1.5999 -0.4917  0.8219
   37MOL   C13011722   6.067   7.112   5.659  0.7661  0.4861 -0.0606
   37MOL   C13111723   6.200   7.185   5.682 -0.0561 -0.2196  0.3259
   37MOL   C13211724   6.309   7.091   5.618  0.2492 -0.1513 -0.5060
   37MOL   O13311725   6.322   6.968   5.657  0.2294  0.4324 -0.1182
   37MOL   N13411726   6.379   7.141   5.517 -0.9692  0.1844  0.1243
   37MOL   C13511727   6.464   7.044   5.444 -0.1518  0.7041 -0.2489
   37MOL   C13611728   6.390   7.274   5.460  0.0495  0.4367 -0.1898
   37MOL   H13711729   6.045   7.047   5.744  1.2380  1.1067  0.5448
   37MOL   H13811730   6.065   7.045   5.573 -0.0545 -2.1924  1.9735
   37MOL   H13911731   6.197   7.282   5.632  1.6950  0.8580  2.2303
   37MOL   H14011732   6.565   7.045   5.486  1.1206  0.4101 -3.2060
   37MOL   H14111733   6.434   6.940   5.446 -0.8361  0.9149  1.7740
   37MOL   H14211734   6.488   7.064   5.340  2.4344  0.1124  0.1967
   37MOL   H14311735   6.304   7.300   5.398 -0.8590 -0.9018  0.4576
   37MOL   H14411736   6.478   7.279   5.397  0.9874 -2.4841  0.7622
   37MOL   H14511737   6.385   7.358   5.529 -0.0298  0.0777  0.2477
   37MOL   C14611738   6.215   7.201   5.840  0.0623 -0.4229  0.5751
   37MOL   C14711739   6.263   7.344   5.887 -0.0059 -0.8428  0.2399
   37MOL   C14811740   6.410   7.368   5.862  0.0332  0.8292 -0.3823
   37MOL   O14911741   6.487   7.282   5.905 -0.2501  1.1975  0.4374
   37MOL   N15011742   6.448   7.473   5.786 -0.5290  0.3780 -0.0344
   37MOL   C15111743   6.580   7.472   5.732 -0.5637 -0.3103 -0.2434
   37MOL   C15211744   6.368   7.595   5.760  0.2840  0.0069  0.6571
   37MOL   H15311745   6.125   7.181   5.899  0.0043  1.7279  1.2611
   37MOL   H15411746   6.281   7.134   5.896 -0.8093 -0.8851  1.0570
   37MOL   H15511747   6.194   7.410   5.835 -0.1122 -0.5478  0.7488
   37MOL   H15611748   6.662   7.489   5.802 -0.2364 -1.4970 -0.3214
   37MOL   H15711749   6.589   7.378   5.678 -3.1688  0.5394 -2.2601
   37MOL   H15811750   6.601   7.549   5.658  1.6811 -3.0139 -2.5355
   37MOL   H15911751   6.426   7.675   5.716 -0.6795  1.4151  1.9078
   37MOL   H16011752   6.345   7.629   5.861  0.8560 -0.4128  0.9317
   37MOL   H16111753   6.274   7.573   5.710  0.3754  1.7780 -0.3185
   37MOL   C16211754   6.232   7.377   6.039  0.2438 -0.1643  0.7767
   37MOL   C16311755   6.247   7.269   6.145 -0.0630  0.0786 -0.3973
   37MOL   C16411756   6.120   7.191   6.182 -0.3982  0.2429  0.2446
   37MOL   O16511757   6.028   7.260   6.222 -0.1090 -0.5125 -0.1160
   37MOL   N16611758   6.105   7.058   6.170 -0.1726  0.1424 -0.1062
   37MOL   C16711759   6.218   6.962   6.152 -0.7531 -0.2290  0.3860
   37MOL   C16811760   5.967   7.000   6.189 -0.0111  0.3526 -0.1571
   37MOL   H16911761   6.300   7.456   6.073  0.8858  0.2226 -1.3148
   37MOL   H17011762   6.133   7.424   6.041  1.5247  2.7461 -0.1150
   37MOL   H17111763   6.315   7.195   6.102  1.2027 -0.8338  3.0239
   37MOL   H17211764   6.196   6.856   6.160  0.0883 -0.5630 -1.5387
   37MOL   H17311765   6.245   6.986   6.049  0.8550 -0.5967  0.7105
   37MOL   H17411766   6.303   6.980   6.219 -1.4388  1.1633  0.9077
   37MOL   H17511767   5.936   6.983   6.292 -1.1829  1.2261 -0.3593
   37MOL   H17611768   5.967   6.903   6.139 -1.0505 -0.4553  1.3767
   37MOL   H17711769   5.895   7.065   6.139  0.5722  1.4659  0.4218
   37MOL   C17811770   6.319   7.313   6.274 -0.8715 -0.1002 -0.3890
   37MOL   C17911771   6.474   7.315   6.272  0.2314  0.1419 -0.7124
   37MOL   C18011772   6.532   7.165   6.296 -0.1875 -0.5123  0.6870
   37MOL   O18111773   6.464   7.087   6.372 -0.0433  0.2586 -0.5975
   37MOL   N18211774   6.635   7.122   6.214 -0.0960 -0.6320  0.0347
   37MOL   C18311775   6.725   7.224   6.155  0.6365  0.0110  0.1648
   37MOL   C18411776   6.687   6.986   6.208  0.3708 -0.0249 -0.3330
   37MOL   H18511777   6.289   7.415   6.297  1.8573  0.5883  0.2464
   37MOL   H18611778   6.287   7.261   6.365 -0.9336  1.0778  0.2677
   37MOL   H18711779   6.505   7.349   6.173  1.3360  2.0448  0.2619
   37MOL   H18811780   6.829   7.193   6.143  0.0168 -1.9227 -0.3719
   37MOL   H18911781   6.691   7.236   6.052  0.4799 -5.3922 -0.5278
   37MOL   H19011782   6.733   7.321   6.205 -0.1564  1.2163 -1.9729
   37MOL   H19111783   6.690   6.966   6.101  0.0625 -0.8717 -0.1868
   37MOL   H19211784   6.620   6.918   6.260  1.1322 -0.1543  0.4833
   37MOL   H19311785   6.782   6.976   6.260 -1.5347 -1.9717  2.9086
   37MOL   C19411786   6.529   7.416   6.382 -0.1606 -0.2221  0.3711
   37MOL   C19511787   6.511   7.569   6.345  0.0360  0.3509 -0.1475
   37MOL   C19611788   6.552   7.608   6.200 -0.0554 -0.3473  0.6905
   37MOL   O19711789   6.639   7.538   6.144  0.7519 -0.1979  0.4831
   37MOL   N19811790   6.498   7.721   6.140 -0.2026  0.5766  0.0798
   37MOL   C19911791   6.554   7.763   6.015 -0.5232  0.2150 -0.3835
   37MOL   C20011792   6.387   7.796   6.207 -0.2493  0.3095  0.4656
   37MOL   H20111793   6.477   7.394   6.476 -0.7169 -0.7903 -0.0684
   37MOL   H20211794   6.632   7.391   6.407  0.1729  0.1125 -0.6410
   37MOL   H20311795   6.408   7.604   6.357  0.3237  1.4426 -0.8079
   37MOL   H20411796   6.649   7.817   6.020 -0.2126 -0.3844  0.2417
   37MOL   H20511797   6.569   7.678   5.947 -0.4528 -0.0105 -0.0851
   37MOL   H20611798   6.486   7.834   5.968  0.9561  2.5791  0.9732
   37MOL   H20711799   6.298   7.735   6.222  1.2757 -1.3838  2.9990
   37MOL   H20811800   6.336   0.017   6.146 -1.6324  0.9714  2.3845
   37MOL   H20911801   6.406   7.844   6.303 -0.7453 -0.6359  1.0472
   37MOL   C21011802   6.600   7.650   6.430 -0.7257  0.2197 -0.6441
   37MOL   C21111803   6.592   7.645   6.579 -0.1582  0.3238 -0.6294
   37MOL   C21211804   6.463   7.715   6.634  0.2070  0.9865  0.3173
   37MOL   O21311805   6.443   7.820   6.581 -0.0826 -0.3271 -0.3667
   37MOL   N21411806   6.384   7.653   6.723 -0.1946 -0.4566  0.1828
   37MOL   C21511807   6.431   7.533   6.798 -0.1228 -0.4289 -0.5416
   37MOL   C21611808   6.248   7.706   6.754  0.3385  0.1921  0.0396
   37MOL   H21711809   6.699   7.611   6.406 -0.0819  1.3789  0.0809
   37MOL   H21811810   6.627   7.750   6.397 -0.1148 -0.3337 -1.8723
   37MOL   H21911811   6.591   7.537   6.593  0.9546  0.0475 -2.5207
   37MOL   H22011812   6.476   7.457   6.735 -0.7575 -0.0824 -1.4265
   37MOL   H22111813   6.498   7.556   6.881 -1.4598  0.3218  0.3554
   37MOL   H22211814   6.345   7.479   6.839  0.6648 -0.5062  1.0533
   37MOL   H22311815   6.172   7.685   6.679 -0.2775 -0.0302  0.7292
   37MOL   H22411816   6.247   7.813   6.778  0.1653  0.2263 -0.1176
   37MOL   H22511817   6.210   7.674   6.851  2.7914  2.4960  1.8438
   37MOL   C22611818   6.723   7.708   6.645  0.1794 -0.4209  0.3778
   37MOL   C22711819   6.832   7.622   6.706  0.5593  0.2499 -0.5110
   37MOL   C22811820   6.904   7.516   6.617 -0.3243  0.4019  0.2575
   37MOL   O22911821   6.837   7.427   6.560  0.4914 -0.0437  0.0046
   37MOL   N23011822   7.039   7.514   6.603  0.6331  0.3546 -0.1125
   37MOL   C23111823   7.129   7.609   6.667 -0.9615 -0.3872  0.1137
   37MOL   C23211824   7.108   7.413   6.527 -0.3342  0.6975  0.1152
   37MOL   H23311825   6.774   7.773   6.574 -0.2575 -1.3437 -0.7856
   37MOL   H23411826   6.694   7.782   6.720  0.9108  0.4228 -0.1649
   37MOL   H23511827   6.900   7.695   6.748  1.5650 -0.2470 -1.2601
   37MOL   H23611828   7.121   7.715   6.643 -2.8233 -0.2286  1.3478
   37MOL   H23711829   7.123   7.619   6.775 -2.0253  0.3806 -0.0135
   37MOL   H23811830   7.232   7.574   6.660 -0.0744  2.2006 -0.6330
   37MOL   H23911831   7.174   7.453   6.450  0.5206 -1.0005 -0.0418
   37MOL   H24011832   7.038   7.353   6.469  1.9397 -0.7451 -1.1833
   37MOL   H24111833   7.165   7.345   6.590  0.3468  0.2068 -1.0244
   37MOL   C24211834   6.759   7.555   6.832  0.3109 -0.0643 -0.1379
   37MOL   C24311835   6.852   7.533   6.946  0.7166 -0.4804  0.5847
   37MOL   C24411836   6.844   7.386   6.986  0.6613  0.0615  0.0468
   37MOL   O24511837   6.742   7.355   7.044  0.2000  0.2657 -0.3118
   37MOL   N24611838   6.947   7.298   6.968 -0.0177  0.6302  0.2673
   37MOL   C24711839   6.925   7.151   6.992 -0.1112 -0.3112  0.3386
   37MOL   C24811840   7.069   7.315   6.895 -0.6214  0.0177  0.3556
   37MOL   H24911841   6.690   7.623   6.881 -0.3432 -0.4599 -0.5094
   37MOL   H25011842   6.700   7.471   6.796  0.1129 -0.0615  0.1819
   37MOL   H25111843   6.958   7.552   6.924 -0.0787  1.0620 -2.1829
   37MOL   H25211844   6.837   7.131   7.053 -0.2008  0.7762  0.5763
   37MOL   H25311845   6.898   7.096   6.903 -3.5583 -0.0313  1.1550
   37MOL   H25411846   7.009   7.094   7.033  0.1577 -0.8155 -0.9150
   37MOL   H25511847   7.075   7.410   6.842  1.3674 -0.3485 -0.1243
   37MOL   H25611848   7.093   7.236   6.825  0.9262 -0.2699  1.1980
   37MOL   H25711849   7.149   7.324   6.968 -1.4232 -0.0457  1.2473
   37MOL   C25811850   6.824   7.628   7.070  0.1826  0.0136 -0.2784
   37MOL   C25911851   6.846   7.783   7.042 -0.1262 -0.2870 -0.0713
   37MOL   C26011852   6.992   7.813   6.997  0.5468  0.0496  0.0263
   37MOL   O26111853   7.084   7.741   7.033  0.3077  0.1142 -0.1054
   37MOL   N26211854   7.007   0.059   6.906  0.4003 -0.6435 -0.5835
   37MOL   C26311855   7.139   0.098   6.865  0.3433  0.1189 -0.2195
   37MOL   C26411856   6.903   0.143   6.846 -0.0826  0.6350 -0.2100
   37MOL   H26511857   6.727   7.610   7.115  0.4932  0.0339  0.4085
   37MOL   H26611858   6.900   7.599   7.142 -1.0862  1.9000  1.8849
   37MOL   H26711859   6.772   7.820   6.971  1.7029 -1.3497 -2.5820
   37MOL   H26811860   7.137   0.205   6.847  1.1465  0.5431  2.0133
   37MOL   H26911861   7.216   0.089   6.943 -0.2777  0.8464  0.4843
   37MOL   H27011862   7.169   0.045   6.775  1.6740 -1.7602  1.2760
   37MOL   H27111863   6.859   0.209   6.920 -3.4059 -3.5452  1.7503
   37MOL   H27211864   6.812   0.097   6.807 -0.9471  0.0800  2.3895
   37MOL   H27311865   6.929   0.208   6.762 -0.9692  0.3341 -0.7289
   37MOL   C27411866   6.821   0.010   7.177 -0.3034 -0.6860 -0.9644
   37MOL   C27511867   6.677   0.039   7.219 -0.2055 -0.6387 -0.2893
   37MOL   C27611868   6.625   0.153   7.134 -0.0973 -0.0745 -0.1583
   37MOL   O27711869   6.680   0.261   7.150 -0.0611  0.0153  0.0201
   37MOL   N27811870   6.528   0.125   7.043  0.3240 -0.1312 -0.2325
   37MOL   C27911871   6.472   0.245   6.971  0.0858 -0.1142 -0.4598
   37MOL   C28011872   6.451   0.000   7.026  0.2531 -1.0915 -0.7347
   37MOL   H28111873   6.890   7.818   7.249  1.5473  0.7373 -1.8019
   37MOL   H28211874   6.874   0.106   7.171 -2.5978  0.5659 -1.7621
   37MOL   H28311875   6.618   7.803   7.201  0.4414 -1.3070  0.8189
   37MOL   H28411876   6.401   0.289   7.042  1.0589 -1.3598  1.3133
   37MOL   H28511877   6.541   0.328   6.957  0.7206 -1.0697 -3.3007
   37MOL   H28611878   6.423   0.232   6.875  1.7613  1.2138 -1.5305
   37MOL   H28711879   6.504   7.759   7.042 -1.0277 -1.3752  1.9777
   37MOL   H28811880   6.417   0.007   6.923 -1.2668  2.2680 -0.0619
   37MOL   H28911881   6.363   0.002   7.089  0.6149  2.6868 -0.1935
   37MOL   C29011882   6.662   0.074   7.374 -0.5905 -0.0686 -0.0603
   37MOL   C29111883   6.526   0.030   7.445  0.0330  0.2435  0.3921
   37MOL   C29211884   6.487   0.140   7.549  0.8497 -0.1309 -0.4230
   37MOL   O29311885   6.526   0.135   7.666  0.1715  0.1549  0.4010
   37MOL   N29411886   6.397   0.237   7.512  0.2575 -0.2463  0.2134
   37MOL   C29511887   6.347   0.259   7.378  0.5760  0.0885  0.1798
   37MOL   C29611888   6.346   0.338   7.610  0.9170  0.2541  0.2049
   37MOL   H29711889   6.739   0.030   7.437 -1.6587  0.8983  1.9815
   37MOL   H29811890   6.674   0.182   7.390 -2.1043  0.0591  0.2831
   37MOL   H29911891   6.444   0.018   7.374 -1.6052  0.4136  2.2347
   37MOL   H30011892   6.398   0.208   7.296 -0.8180 -1.3016  0.1587
   37MOL   H30111893   6.240   0.238   7.367  1.0492 -2.2914 -0.0904
   37MOL   H30211894   6.364   0.365   7.364 -1.1923  0.5340  1.1940
   37MOL   H30311895   6.340   0.311   7.715  0.6501  1.9094  0.6372
   37MOL   H30411896   6.241   0.361   7.592  1.2374 -0.6812 -3.1852
   37MOL   H30511897   6.406   0.429   7.603 -2.3978  2.6738  1.8508
   37MOL   C30611898   6.526   7.747   7.513 -0.8103  0.2344  0.0872
   37MOL   C30711899   6.529   7.616   7.427 -0.0068  0.5002 -0.4882
   37MOL   C30811900   6.398   7.591   7.349 -0.5504  0.1884  0.1051
   37MOL   O30911901   6.302   7.664   7.360 -0.1808  0.2759 -0.2823
   37MOL   N31011902   6.395   7.481   7.268 -0.7207 -0.5548  0.7506
   37MOL   C31111903   6.289   7.454   7.181 -0.6396  0.6777 -0.5660
   37MOL   C31211904   6.486   7.368   7.257  0.4710  1.0498 -0.3251
   37MOL   H31311905   6.611   7.741   7.582 -0.2132  0.4617 -0.6264
   37MOL   H31411906   6.440   7.734   7.579 -1.1633  2.4089  0.0906
   37MOL   H31511907   6.613   7.610   7.358 -1.6069  0.1323 -2.4384
   37MOL   H31611908   6.319   7.397   7.093  2.8437 -0.0626  1.0529
   37MOL   H31711909   6.215   7.396   7.236 -2.0269  0.5412 -2.5270
   37MOL   H31811910   6.236   7.540   7.139  0.5986  1.7565  0.0515
   37MOL   H31911911   6.436   7.273   7.274  1.3481  0.8382  1.1700
   37MOL   H32011912   6.559   7.365   7.338  0.4128 -1.7487 -0.3248
   37MOL   H32111913   6.539   7.364   7.162  0.5769  0.4144 -0.2425
   37MOL   H32211914   6.545   7.531   7.494 -1.0041  1.1244  0.5525
   38MOL     C111915   0.705   7.186   0.831  0.2240  0.3190 -0.0229
   38MOL     C211916   0.673   7.040   0.802  0.1129  0.4442 -0.3372
   38MOL     C311917   0.798   6.955   0.810 -1.0156 -0.6001  0.5135
   38MOL     O411918   0.863   6.932   0.708 -0.6233  0.6503  0.0316
   38MOL     N511919   0.833   6.884   0.924 -0.0984  0.4242 -0.2169
   38MOL     C611920   0.943   6.794   0.924 -0.0332  0.1987  0.5335
   38MOL     C711921   0.771   6.904   1.061 -0.4437  0.6473  0.5756
   38MOL     H811922   0.782   7.187   0.908 -0.2164  2.0371  0.4170
   38MOL     H911923   0.620   7.245   0.866  1.2451  1.3871  0.7328
   38MOL    H1011924   0.610   7.024   0.890 -0.2209 -1.4312 -0.8867
   38MOL    H1111925   0.949   6.723   1.007 -0.9069  0.9300  1.2214
   38MOL    H1211926   0.935   6.724   0.840 -0.0388  2.2106 -1.1685
   38MOL    H1311927   1.040   6.843   0.924  0.4716 -0.7570 -1.2115
   38MOL    H1411928   0.839   6.864   1.137 -2.5797  0.0930  2.2388
   38MOL    H1511929   0.667   6.873   1.069 -0.1655 -0.8083 -1.2894
   38MOL    H1611930   0.761   7.009   1.090  2.3093  0.8151  1.0835
   38MOL    H1711931   0.749   7.239   0.747  0.4905 -2.6998 -1.8441
   38MOL    C1811932   0.589   7.009   0.684 -0.4264 -0.3040 -0.0620
   38MOL    C1911933   0.437   7.045   0.693  0.2903 -0.1818  0.9269
   38MOL    C2011934   0.362   6.942   0.781 -1.0517  0.2880  0.0382
   38MOL    O2111935   0.383   6.824   0.753  0.3930 -0.3462 -0.2282
   38MOL    N2211936   0.274   6.987   0.875 -0.3377  0.4211 -0.2607
   38MOL    C2311937   0.247   7.121   0.915  0.7169 -0.1971 -0.1210
   38MOL    C2411938   0.200   6.879   0.947  0.3231  0.1364 -0.1296
   38MOL    H2511939   0.624   7.070   0.601  1.6384  0.9259  1.6525
   38MOL    H2611940   0.593   6.904   0.656  0.9901 -0.3438  0.2305
   38MOL    H2711941   0.426   7.146   0.733  0.6992  0.7611 -1.2708
   38MOL    H2811942   0.189   7.188   0.852  1.8475 -0.3903 -1.4012
   38MOL    H2911943   0.217   7.133   1.019 -0.4843  3.0774 -0.7883
   38MOL    H3011944   0.340   7.177   0.921  0.7166 -0.4746  3.6353
   38MOL    H3111945   0.263   6.835   1.025 -1.4008 -4.0642 -0.9901
   38MOL    H3211946   0.168   6.794   0.888 -2.3727  0.3235  0.9976
   38MOL    H3311947   0.121   6.925   1.006  0.9698  0.3372  0.6034
   38MOL    C3411948   0.365   7.050   0.552  0.0558  0.2315 -0.4670
   38MOL    C3511949   0.387   7.182   0.468 -0.6375 -0.9998  1.1109
   38MOL    C3611950   0.308   7.305   0.525  0.5950 -0.3041 -0.3959
   38MOL    O3711951   0.188   7.299   0.518 -0.2164  0.2044  0.3600
   38MOL    N3811952   0.366   7.420   0.579  0.4858  0.5229 -0.5434
   38MOL    C3911953   0.281   7.537   0.598 -0.3989  0.2229 -0.6612
   38MOL    C4011954   0.500   7.432   0.619  0.5004  0.4058  0.6090
   38MOL    H4111955   0.393   6.968   0.486 -1.5916 -1.4622  0.9012
   38MOL    H4211956   0.259   7.030   0.563 -0.4646  1.4677 -2.9287
   38MOL    H4311957   0.494   7.200   0.477 -0.9752  1.1569  1.1321
   38MOL    H4411958   0.181   7.511   0.632 -0.5323  0.1468 -1.0985
   38MOL    H4511959   0.328   7.604   0.670 -0.1549  1.1866 -1.7104
   38MOL    H4611960   0.268   7.590   0.504 -0.7161  0.3315 -0.5533
   38MOL    H4711961   0.525   7.338   0.668  2.8961 -0.6102 -2.4092
   38MOL    H4811962   0.515   7.511   0.692  0.1372  0.9361  0.1124
   38MOL    H4911963   0.569   7.446   0.536 -1.0484  6.1024  0.0819
   38MOL    C5011964   0.353   7.153   0.321 -0.2345 -0.5238  0.1533
   38MOL    C5111965   0.332   7.271   0.217  0.0539 -1.0842  0.3219
   38MOL    C5211966   0.270   7.215   0.082 -0.4600  0.2329  0.1878
   38MOL    O5311967   0.352   7.173   7.851  0.2990 -0.3970 -0.4743
   38MOL    N5411968   0.140   7.242   0.052 -0.1534  0.4856  0.3268
   38MOL    C5511969   0.086   7.203   7.772  0.0017 -0.2902  0.1532
   38MOL    C5611970   0.045   7.284   0.147  0.2094 -0.2177  0.4872
   38MOL    H5711971   0.427   7.091   0.270 -0.1031  0.0345 -0.3410
   38MOL    H5811972   0.257   7.101   0.322 -0.9067  0.7197  0.4534
   38MOL    H5911973   0.253   7.329   0.265  0.5800  0.9858 -1.2488
   38MOL    H6011974   0.136   7.113   7.736  0.0154  0.1868 -1.0343
   38MOL    H6111975   7.832   7.187   7.764  0.3568 -1.3219 -3.3909
   38MOL    H6211976   0.110   7.284   7.703 -0.4069 -0.1289  0.1982
   38MOL    H6311977   7.798   7.279   0.105  0.6692 -1.6264 -0.4583
   38MOL    H6411978   0.060   7.390   0.168 -4.4977  1.1895 -2.4762
   38MOL    H6511979   0.036   7.220   0.235 -1.5404  3.0869  2.8517
   38MOL    C6611980   0.453   7.373   0.197 -0.2875  0.6721 -0.7144
   38MOL    C6711981   0.602   7.339   0.144  0.9002  0.3318 -0.4584
   38MOL    C6811982   0.681   7.260   0.247  0.5970  0.5558 -0.1189
   38MOL    O6911983   0.696   7.318   0.358 -0.3242  0.1763  1.0872
   38MOL    N7011984   0.720   7.132   0.220  0.0838 -0.2326  0.6664
   38MOL    C7111985   0.720   7.074   0.085  0.1958 -0.1354 -0.7957
   38MOL    C7211986   0.794   7.056   0.324  0.2679  0.3610  0.0234
   38MOL    H7311987   0.423   7.435   0.112  1.7835  2.1094 -0.4220
   38MOL    H7411988   0.461   7.439   0.283  1.6579 -0.3560 -0.0752
   38MOL    H7511989   0.582   7.293   0.047 -0.2823  1.6284 -0.8416
   38MOL    H7611990   0.782   6.984   0.078  1.4642  0.5839  0.9996
   38MOL    H7711991   0.618   7.049   0.054 -0.2317  2.1355 -1.3085
   38MOL    H7811992   0.762   7.142   0.011  0.5374  0.6374  0.1048
   38MOL    H7911993   0.719   6.997   0.376  1.3312 -0.8378  0.2177
   38MOL    H8011994   0.844   7.120   0.397 -0.9506  0.9111  0.3906
   38MOL    H8111995   0.863   6.991   0.270 -0.3545 -0.4195  0.1512
   38MOL    C8211996   0.670   7.480   0.118 -0.0689  0.5475 -0.4182
   38MOL    C8311997   0.827   7.482   0.081 -0.2992 -0.4925  0.2016
   38MOL    C8411998   0.904   7.613   0.118  0.2827 -0.5691  0.6558
   38MOL    O8511999   0.864   7.714   0.055 -0.8627  0.5106 -0.2760
   38MOL    N8612000   1.017   7.608   0.189  0.1920 -1.1302 -0.3316
   38MOL    C8712001   1.038   7.513   0.290  0.6826 -0.8524 -0.3474
   38MOL    C8812002   1.122   7.710   0.174 -0.2277 -0.5848 -0.6718
   38MOL    H8912003   0.607   7.537   0.050  0.9343  2.1361 -0.0432
   38MOL    H9012004   0.663   7.542   0.207 -1.3385  1.3215 -1.0482
   38MOL    H9112005   0.870   7.391   0.124 -0.6889 -0.7505  0.0504
   38MOL    H9212006   1.087   7.422   0.254  0.2083 -1.9169  1.6189
   38MOL    H9312007   1.088   7.558   0.376 -1.5780  1.4570 -0.2092
   38MOL    H9412008   0.943   7.483   0.333  0.4539 -2.1974 -1.7613
   38MOL    H9512009   1.209   7.700   0.237 -0.6951 -1.2334 -0.1279
   38MOL    H9612010   1.082   7.812   0.178 -0.0701 -0.4925 -1.2781
   38MOL    H9712011   1.154   7.696   0.070 -1.6036 -0.1276 -1.1740
   38MOL    C9812012   0.848   7.443   7.789 -0.7238  0.0833 -0.8576
   38MOL    C9912013   0.770   7.515   7.679 -0.2087 -0.2778  0.7899
   38MOL   C10012014   0.625   7.472   7.651 -0.7479  0.0415  0.0447
   38MOL   O10112015   0.613   7.356   7.622  0.1334 -0.3459 -0.0052
   38MOL   N10212016   0.520   7.553   7.644  0.0559 -0.2910  0.2788
   38MOL   C10312017   0.381   7.501   7.636 -0.2824  0.0891  0.3458
   38MOL   C10412018   0.521   7.696   7.659 -0.1249 -0.8537  0.0741
   38MOL   H10512019   0.954   7.441   7.764 -0.7357 -1.8446 -0.8638
   38MOL   H10612020   0.830   7.336   7.774 -0.4490  0.1461 -1.6415
   38MOL   H10712021   0.775   7.620   7.707 -2.6638  0.7237 -2.2118
   38MOL   H10812022   0.372   7.462   7.534 -0.0966  1.3195 -0.1627
   38MOL   H10912023   0.379   7.420   7.708 -0.1960 -0.1111  0.1234
   38MOL   H11012024   0.295   7.568   7.646  0.0669  0.7200 -0.7046
   38MOL   H11112025   0.430   7.750   7.683  0.0325 -0.3258 -0.5159
   38MOL   H11212026   0.572   7.745   7.576 -3.7495  1.3803 -0.9423
   38MOL   H11312027   0.585   7.720   7.745 -0.2273  2.5771 -0.7504
   38MOL   C11412028   0.840   7.494   7.544 -0.0355 -0.1632 -0.2455
   38MOL   C11512029   0.947   7.603   7.499 -0.0139  0.0723  0.3240
   38MOL   C11612030   0.888   7.743   7.473 -0.7120 -0.9685  0.0915
   38MOL   O11712031   0.797   7.760   7.386 -0.3764  0.3625  0.1295
   38MOL   N11812032   0.955   7.852   7.520 -0.6628 -0.0579 -0.1529
   38MOL   C11912033   1.071   7.851   7.615 -0.7916  0.2487  0.7936
   38MOL   C12012034   0.921   0.127   7.464  0.2905  0.5531 -0.3993
   38MOL   H12112035   0.886   7.396   7.555 -0.7361 -0.5013 -0.2867
   38MOL   H12212036   0.765   7.492   7.465 -0.5099  0.5213  0.1892
   38MOL   H12312037   1.015   7.610   7.584  0.3705  2.5320 -0.1472
   38MOL   H12412038   1.069   0.087   7.677  0.5487  0.8645 -0.0484
   38MOL   H12512039   1.071   7.772   7.690 -0.0052 -0.6955 -0.1763
   38MOL   H12612040   1.169   0.004   7.568 -1.3607  0.8621 -0.3244
   38MOL   H12712041   0.995   0.203   7.487  1.5036 -0.7148 -0.0400
   38MOL   H12812042   0.822   0.156   7.501  0.8008  0.2338  1.2468
   38MOL   H12912043   0.921   0.118   7.355 -2.0547  0.7928 -0.4592
   38MOL   C13012044   1.029   7.549   7.379  0.0805 -0.5412  0.4746
   38MOL   C13112045   0.983   7.539   7.225  0.0503  0.0120  0.7767
   38MOL   C13212046   0.863   7.442   7.217 -0.6887  0.1601 -0.4158
   38MOL   O13312047   0.883   7.325   7.243  0.3332  0.3645 -0.1839
   38MOL   N13412048   0.735   7.481   7.191 -0.8186 -0.3101  0.0861
   38MOL   C13512049   0.631   7.382   7.203 -0.4111 -0.3458  0.3791
   38MOL   C13612050   0.688   7.605   7.135  0.1050 -0.7172  0.0382
   38MOL   H13712051   1.113   7.617   7.369 -0.0896 -0.5430 -1.0855
   38MOL   H13812052   1.065   7.449   7.401  0.5546 -0.6404 -0.7260
   38MOL   H13912053   0.954   7.639   7.193  1.5506 -0.3113 -1.6184
   38MOL   H14012054   0.630   7.331   7.299 -2.5231 -1.7153 -0.3206
   38MOL   H14112055   0.537   7.431   7.177 -0.3500 -0.3113  0.2241
   38MOL   H14212056   0.645   7.302   7.130 -0.3578  0.7531 -0.8293
   38MOL   H14312057   0.765   7.634   7.064 -0.2168  1.9013  0.7298
   38MOL   H14412058   0.670   7.672   7.220  1.2184 -2.0060  1.3233
   38MOL   H14512059   0.590   7.593   7.088  0.8407  0.0211 -1.7050
   38MOL   C14612060   1.093   7.495   7.135 -0.7719  0.3811  0.0186
   38MOL   C14712061   1.215   7.582   7.095  0.2086 -0.4577 -0.1083
   38MOL   C14812062   1.325   7.596   7.205  0.0271  0.2978 -0.5497
   38MOL   O14912063   1.313   7.690   7.280  0.0717 -0.9706  0.2665
   38MOL   N15012064   1.428   7.507   7.221  0.6282 -0.2360 -0.1487
   38MOL   C15112065   1.532   7.529   7.330 -0.3329 -0.9749 -0.1429
   38MOL   C15212066   1.462   7.408   7.122  0.6232 -0.0072  0.0247
   38MOL   H15312067   1.129   7.399   7.172 -0.5196  0.0600 -1.0655
   38MOL   H15412068   1.044   7.485   7.038 -0.4542 -0.8199 -0.0270
   38MOL   H15512069   1.255   7.525   7.011 -0.4609 -1.2315  0.0942
   38MOL   H15612070   1.611   7.590   7.288 -0.2613 -1.7008 -1.0940
   38MOL   H15712071   1.486   7.577   7.417 -1.2194 -0.5765 -0.8255
   38MOL   H15812072   1.579   7.435   7.360  0.8673 -0.6273 -0.8868
   38MOL   H15912073   1.536   7.335   7.156  1.3127  0.5530 -0.2409
   38MOL   H16012074   1.516   7.449   7.036 -1.9383  2.3385 -0.5271
   38MOL   H16112075   1.375   7.346   7.102  1.6409 -1.6770  0.7039
   38MOL   C16212076   1.171   7.724   7.039 -0.3890 -0.1769 -0.9466
   38MOL   C16312077   1.290   7.825   6.994 -0.2250  0.4719 -0.3307
   38MOL   C16412078   1.228   0.100   6.922  0.3060 -0.3120 -0.5235
   38MOL   O16512079   1.209   0.102   6.800 -0.0163 -0.1783 -0.4015
   38MOL   N16612080   1.203   0.208   7.001 -0.0890 -0.3963  0.0038
   38MOL   C16712081   1.211   0.221   7.146  0.2004  0.0309 -0.2509
   38MOL   C16812082   1.162   0.331   6.941  0.5719 -0.2922  0.4463
   38MOL   H16912083   1.121   7.712   6.943 -2.2080  0.1136 -0.0589
   38MOL   H17012084   1.098   7.775   7.102 -0.3812 -1.7810  0.3899
   38MOL   H17112085   1.340   7.852   7.087  1.9168 -3.7216 -0.1215
   38MOL   H17212086   1.133   0.291   7.178  0.5779  1.8907 -3.2894
   38MOL   H17312087   1.184   0.130   7.200 -3.9879  0.2709 -1.7625
   38MOL   H17412088   1.306   0.252   7.189 -0.2843 -0.1602  0.9804
   38MOL   H17512089   1.202   0.411   7.003 -0.9011 -1.0018  2.3521
   38MOL   H17612090   1.053   0.327   6.946  0.6983 -1.2706  2.8469
   38MOL   H17712091   1.197   0.347   6.839  0.4083 -1.3684  0.2194
   38MOL   C17812092   1.414   7.764   6.917 -0.3389 -0.4267 -0.0735
   38MOL   C17912093   1.547   7.839   6.926  0.4686 -0.3282  0.0571
   38MOL   C18012094   1.614   0.009   6.791 -0.1402  0.1539 -0.6677
   38MOL   O18112095   1.678   7.768   6.743 -0.6492 -0.4439  0.8184
   38MOL   N18212096   1.623   0.129   6.737  0.3855 -0.6132  0.6787
   38MOL   C18312097   1.562   0.253   6.783 -0.1969 -0.0323  0.3975
   38MOL   C18412098   1.730   0.149   6.639  0.3549  0.5585  0.6608
   38MOL   H18512099   1.429   7.658   6.939  0.2994 -0.3763 -0.2380
   38MOL   H18612100   1.385   7.779   6.813  1.9086 -0.4389 -0.7279
   38MOL   H18712101   1.518   0.086   6.957 -1.0144 -0.7551  0.1135
   38MOL   H18812102   1.454   0.248   6.798 -0.0926  2.0908  2.0354
   38MOL   H18912103   1.597   0.278   6.882 -2.5625 -2.6598  1.9761
   38MOL   H19012104   1.567   0.340   6.717 -1.3341  0.4944  0.9841
   38MOL   H19112105   1.828   0.110   6.669  0.5453  0.1684 -0.4470
   38MOL   H19212106   1.729   0.251   6.603 -0.0710  0.2219 -0.3026
   38MOL   H19312107   1.692   0.085   6.559 -0.9969  0.5558  1.2885
   38MOL   C19412108   1.639   7.779   7.034 -0.2922  0.2809  0.0219
   38MOL   C19512109   1.782   7.841   7.056 -0.0007  0.4291  0.0667
   38MOL   C19612110   1.854   7.754   7.163  0.2621  0.1849  0.1451
   38MOL   O19712111   1.811   7.758   7.274 -1.6195 -0.0787 -0.1347
   38MOL   N19812112   1.965   7.684   7.133 -0.7043  0.0470  0.2149
   38MOL   C19912113   2.001   7.664   6.996  0.6746 -0.6236  0.3000
   38MOL   C20012114   2.040   7.613   7.239  0.6359  0.1935 -0.3918
   38MOL   H20112115   1.592   7.788   7.132  1.1195  1.0662  0.6483
   38MOL   H20212116   1.646   7.671   7.033  1.7628  0.4008 -0.3013
   38MOL   H20312117   1.832   7.850   6.960 -0.6694  0.9857 -0.2323
   38MOL   H20412118   2.019   7.759   6.946  4.7589 -1.0024  0.8431
   38MOL   H20512119   2.095   7.608   7.000  0.2241 -1.5092 -1.2295
   38MOL   H20612120   1.941   7.597   6.934  0.2287  1.1521 -1.2396
   38MOL   H20712121   1.970   7.545   7.289 -0.3816  2.2594  1.0680
   38MOL   H20812122   2.071   7.687   7.313  0.5252  0.1663 -0.3188
   38MOL   H20912123   2.130   7.559   7.211  1.1226  0.5603  0.4351
   38MOL   C21012124   1.777   0.136   7.105 -0.2725  0.6647 -0.1841
   38MOL   C21112125   1.900   0.221   7.111 -0.0415 -0.2083 -0.3194
   38MOL   C21212126   1.877   0.330   7.219  0.1809 -0.6690  0.5453
   38MOL   O21312127   1.790   0.413   7.199  0.5500 -0.7950 -0.3953
   38MOL   N21412128   1.955   0.332   7.330  0.4431 -0.7139 -0.0393
   38MOL   C21512129   1.955   0.435   7.431  0.0590  1.0229  0.2285
   38MOL   C21612130   2.051   0.232   7.381 -0.2489 -0.5539 -0.0829
   38MOL   H21712131   1.694   0.192   7.064  0.5396  1.2275 -1.0831
   38MOL   H21812132   1.752   0.127   7.211 -1.3185  0.0743 -0.4745
   38MOL   H21912133   1.991   0.168   7.139  1.0206  2.0193  0.5629
   38MOL   H22012134   2.044   0.445   7.492  0.9794  2.8989 -1.3684
   38MOL   H22112135   1.936   0.527   7.377  1.0920  0.9866 -0.2089
   38MOL   H22212136   1.869   0.430   7.497  1.5750 -0.0864  2.1576
   38MOL   H22312137   2.069   0.233   7.488 -1.1073  1.3278  0.0656
   38MOL   H22412138   2.149   0.253   7.338 -0.0627  1.6631  1.3260
   38MOL   H22512139   2.026   0.128   7.360 -1.1354 -0.7003  1.6529
   38MOL   C22612140   1.935   0.273   6.967  0.3604 -0.0513  0.5234
   38MOL   C22712141   2.069   0.355   6.950  0.0598 -0.7796 -0.0500
   38MOL   C22812142   2.196   0.267   6.969 -0.0756  0.1615 -0.4181
   38MOL   O22912143   2.235   0.259   7.087  0.3030  0.4673  0.9374
   38MOL   N23012144   2.255   0.205   6.860  0.0430  1.2323  0.0850
   38MOL   C23112145   2.190   0.179   6.732 -0.2518 -0.0285  0.0265
   38MOL   C23212146   2.382   0.137   6.875 -0.0050 -0.0025  0.2377
   38MOL   H23312147   1.930   0.186   6.901  2.6248  0.5409 -0.4732
   38MOL   H23412148   1.861   0.341   6.925 -0.9410 -1.4222  0.5586
   38MOL   H23512149   2.075   0.378   6.844  0.1071 -0.2459  0.0683
   38MOL   H23612150   2.190   0.275   6.679  1.1916 -1.1169 -2.0227
   38MOL   H23712151   2.250   0.115   6.667  0.4797  1.7951 -1.1422
   38MOL   H23812152   2.097   0.125   6.742  0.1005 -0.5081  0.7695
   38MOL   H23912153   2.363   0.030   6.868 -0.6225  0.1545 -0.6256
   38MOL   H24012154   2.444   0.164   6.960  1.1083  0.1500 -0.6167
   38MOL   H24112155   2.452   0.149   6.793 -1.0304  0.0729 -0.6393
   38MOL   C24212156   2.088   0.491   7.020 -0.0198 -0.4993  0.0495
   38MOL   C24312157   1.990   0.602   6.982 -0.0686 -0.2677  0.2478
   38MOL   C24412158   2.009   0.655   6.840  0.1859  0.1370  0.7461
   38MOL   O24512159   2.119   0.693   6.797 -0.0042  0.3320  0.6779
   38MOL   N24612160   1.899   0.658   6.756 -0.4587 -0.0560  0.0454
   38MOL   C24712161   1.907   0.715   6.622 -0.6959 -0.3201  0.2232
   38MOL   C24812162   1.762   0.625   6.799  0.4457 -0.2504  0.2034
   38MOL   H24912163   2.089   0.485   7.129  1.8626  1.8931  0.2200
   38MOL   H25012164   2.187   0.527   6.990  0.2083 -1.4345 -0.3267
   38MOL   H25112165   1.898   0.543   6.988  1.2731 -2.1725  2.7521
   38MOL   H25212166   1.919   0.643   6.541  2.5508 -1.4187  1.5981
   38MOL   H25312167   1.816   0.771   6.600 -0.1805 -0.4837 -2.4438
   38MOL   H25412168   1.986   0.789   6.612 -1.5169  0.3668 -1.3641
   38MOL   H25512169   1.752   0.690   6.886  0.8733  0.2428 -0.1112
   38MOL   H25612170   1.746   0.519   6.816 -1.6618 -0.3942 -2.4070
   38MOL   H25712171   1.681   0.652   6.732  1.0535  0.7803 -0.1292
   38MOL   C25812172   1.996   0.713   7.089  0.2480 -0.5539  0.4222
   38MOL   C25912173   1.909   0.846   7.081  0.0655  0.9400  0.2559
   38MOL   C26012174   1.964   0.947   6.977  0.1170 -0.4278  0.7018
   38MOL   O26112175   2.086   0.962   6.968 -0.3887 -0.7791 -0.7292
   38MOL   N26212176   1.879   1.016   6.897 -0.3839 -0.6658 -0.0638
   38MOL   C26312177   1.912   1.103   6.787 -0.2417  0.4188 -0.1901
   38MOL   C26412178   1.735   1.043   6.926 -0.2124  0.5831  0.1781
   38MOL   H26512179   1.966   0.666   7.183  1.1096 -2.0257 -0.0242
   38MOL   H26612180   2.100   0.743   7.103  0.9069 -1.6182 -1.9972
   38MOL   H26712181   1.816   0.813   7.035 -0.0246  1.5906 -0.0371
   38MOL   H26812182   1.992   1.061   6.726 -0.9118  1.7604 -2.0404
   38MOL   H26912183   1.840   1.127   6.709 -1.1099  1.3648  0.8895
   38MOL   H27012184   1.956   1.198   6.821 -1.3087  2.0782 -3.2804
   38MOL   H27112185   1.715   1.031   7.033 -2.0931 -0.9882 -0.3174
   38MOL   H27212186   1.682   0.954   6.891 -1.0031  1.6651 -1.4272
   38MOL   H27312187   1.689   1.130   6.878 -1.4536 -1.5027 -2.5644
   38MOL   C27412188   1.875   0.912   7.218  0.0583 -0.4520  0.3675
   38MOL   C27512189   2.003   0.991   7.283  0.4025 -0.5267  0.1957
   38MOL   C27612190   2.105   0.897   7.342 -0.7776 -0.0756 -0.7046
   38MOL   O27712191   2.057   0.817   7.421  0.6882  0.6005 -0.7637
   38MOL   N27812192   2.235   0.904   7.309 -0.2801 -0.2057 -0.1897
   38MOL   C27912193   2.291   1.028   7.244 -0.6545 -0.0897 -0.2917
   38MOL   C28012194   2.332   0.801   7.349  0.0225 -0.4179 -0.7170
   38MOL   H28112195   1.784   0.970   7.209  0.5002  0.5607  2.1009
   38MOL   H28212196   1.834   0.840   7.289 -0.3251 -1.8845 -1.2771
   38MOL   H28312197   2.048   1.061   7.212  1.9787 -2.7943 -1.0783
   38MOL   H28412198   2.398   1.017   7.228 -0.6506 -2.8778  1.3453
   38MOL   H28512199   2.253   1.047   7.143 -0.2046 -2.0248 -0.8399
   38MOL   H28612200   2.271   1.119   7.300 -1.0680 -0.6357  0.4536
   38MOL   H28712201   2.436   0.828   7.330  0.4961 -2.7025 -1.5454
   38MOL   H28812202   2.319   0.710   7.291 -3.8950 -0.2637 -0.1967
   38MOL   H28912203   2.328   0.775   7.455 -0.5097  0.9325 -0.4047
   38MOL   C29012204   1.935   1.085   7.393 -0.0169  0.0044 -0.2121
   38MOL   C29112205   1.876   1.210   7.332 -0.4818 -0.0814 -0.1438
   38MOL   C29212206   1.996   1.304   7.302  0.1106 -0.5227 -1.5456
   38MOL   O29312207   2.078   1.323   7.396 -0.3860  0.3357 -0.2018
   38MOL   N29412208   2.024   1.342   7.177  0.0911  0.8483  0.6522
   38MOL   C29512209   2.159   1.385   7.141  0.1120 -0.3898 -0.5695
   38MOL   C29612210   1.922   1.353   7.075  0.1371 -0.3208  0.3960
   38MOL   H29712211   1.849   1.031   7.434 -1.0724  1.3664 -0.5702
   38MOL   H29812212   1.992   1.097   7.485 -1.7668  2.2510  0.6251
   38MOL   H29912213   1.810   1.188   7.249 -0.8437  0.2644  0.0542
   38MOL   H30012214   2.224   1.407   7.226 -0.0067 -2.4329  0.0818
   38MOL   H30112215   2.198   1.306   7.077  1.4562 -1.3011  1.2989
   38MOL   H30212216   2.155   1.484   7.097  0.8515 -0.2012 -0.2267
   38MOL   H30312217   1.951   1.417   6.993 -0.8596 -0.3722 -0.0121
   38MOL   H30412218   1.845   1.412   7.125 -0.0343 -1.0051  0.9556
   38MOL   H30512219   1.882   1.258   7.041  1.4137 -0.5931 -0.3399
   38MOL   C30612220   1.778   1.285   7.426  0.0142 -0.0321  0.0436
   38MOL   C30712221   1.632   1.242   7.421  0.0494 -0.3133 -0.1242
   38MOL   C30812222   1.555   1.304   7.301 -0.0941 -0.6928 -0.2398
   38MOL   O30912223   1.544   1.424   7.285 -0.4559 -0.1015 -0.0239
   38MOL   N31012224   1.493   1.225   7.208  0.1422 -0.7167  0.5465
   38MOL   C31112225   1.482   1.078   7.209  0.0570  0.8612 -0.1621
   38MOL   C31212226   1.427   1.283   7.097 -1.1453  0.3511  0.6548
   38MOL   H31312227   1.807   1.283   7.531 -1.5110 -0.8839  0.4648
   38MOL   H31412228   1.776   1.389   7.396 -1.1362 -0.1399 -0.2704
   38MOL   H31512229   1.612   1.136   7.431 -2.5658 -0.1584 -2.9797
   38MOL   H31612230   1.399   1.045   7.271 -0.1733 -0.2032 -1.0032
   38MOL   H31712231   1.474   1.033   7.109  2.3653 -1.7894  0.7671
   38MOL   H31812232   1.572   1.032   7.250  0.1847 -0.8532 -2.2310
   38MOL   H31912233   1.504   1.316   7.026 -0.6024 -2.0193  0.0804
   38MOL   H32012234   1.378   1.380   7.110 -0.5133  0.3653  3.1450
   38MOL   H32112235   1.350   1.220   7.054 -0.1085 -2.0279  2.2036
   38MOL   H32212236   1.569   1.282   7.501 -0.7841  0.4179 -1.1176
   39MOL     C112237   1.487   0.037   5.347 -0.0829  0.2905  0.2933
   39MOL     C212238   1.591   7.792   5.287  0.2359 -0.0035 -0.1359
   39MOL     C312239   1.724   7.793   5.370  0.2515 -0.2304 -1.0264
   39MOL     O412240   1.752   0.042   5.429 -0.1695 -0.7471 -0.5707
   39MOL     N512241   1.804   7.681   5.375  0.6191  0.2836  0.1618
   39MOL     C612242   1.779   7.556   5.308  0.2485 -0.4993  0.4173
   39MOL     C712243   1.922   7.688   5.461 -0.0785 -0.5483 -0.1562
   39MOL     H812244   1.395   0.048   5.289  0.8390 -0.5078 -1.3754
   39MOL     H912245   1.517   0.141   5.352 -1.3027  0.7851 -1.8086
   39MOL    H1012246   1.554   7.691   5.298  0.9482 -0.5917 -2.7270
   39MOL    H1112247   1.722   7.564   5.215  1.1119 -0.0368 -0.0777
   39MOL    H1212248   1.873   7.511   5.276  1.4250  1.4563  1.0139
   39MOL    H1312249   1.730   7.487   5.376  0.9407 -1.1929  0.2211
   39MOL    H1412250   2.002   7.615   5.446  1.1130  0.7923 -0.4474
   39MOL    H1512251   1.889   7.679   5.564 -1.5465 -0.3212 -0.5953
   39MOL    H1612252   1.976   7.783   5.455  2.5528 -2.0027 -0.4997
   39MOL    H1712253   1.466   0.008   5.450  0.6150  2.1938  0.9866
   39MOL    C1812254   1.614   7.818   5.127  0.3182  0.3517  0.4680
   39MOL    C1912255   1.682   0.097   5.067  0.5003  0.2070 -0.4495
   39MOL    C2012256   1.584   0.217   5.065  0.1176  0.1174  0.2376
   39MOL    O2112257   1.480   0.202   5.004  0.8288 -0.4106  0.3085
   39MOL    N2212258   1.613   0.327   5.134  0.0970 -0.3570 -0.0736
   39MOL    C2312259   1.721   0.345   5.229  0.2469 -0.1238 -0.1255
   39MOL    C2412260   1.527   0.444   5.125 -0.3726  0.0696 -0.2251
   39MOL    H2512261   1.678   7.737   5.093  1.0121  1.0798  0.0017
   39MOL    H2612262   1.519   7.808   5.074 -0.2010 -0.6410  1.5813
   39MOL    H2712263   1.761   0.107   5.142 -0.0128  2.4288 -0.1907
   39MOL    H2812264   1.742   0.252   5.283  1.5180  1.4493  2.2032
   39MOL    H2912265   1.801   0.389   5.171 -0.5782  1.5977 -0.0084
   39MOL    H3012266   1.701   0.427   5.299  0.9251  0.4570 -0.6060
   39MOL    H3112267   1.561   0.535   5.175  1.1265  0.5200 -2.0309
   39MOL    H3212268   1.435   0.411   5.174 -0.7431  2.6937  0.9691
   39MOL    H3312269   1.503   0.470   5.022 -0.2590  1.8964  0.1861
   39MOL    C3412270   1.742   0.071   4.918  0.0133  0.1714  0.4820
   39MOL    C3512271   1.857   0.158   4.856 -0.3062  0.5570 -0.0735
   39MOL    C3612272   1.995   0.108   4.907 -0.5068 -0.5316 -0.2878
   39MOL    O3712273   2.027   0.135   5.019 -0.0581  0.6657  0.2756
   39MOL    N3812274   2.090   0.054   4.823 -0.3242  0.4975  0.0139
   39MOL    C3912275   2.050   7.830   4.701 -0.6107 -0.6966  0.1508
   39MOL    C4012276   2.234   0.050   4.860  0.4460  0.3595 -0.2635
   39MOL    H4112277   1.778   7.823   4.905 -0.4622  0.2376 -1.5661
   39MOL    H4212278   1.658   0.085   4.850 -0.7704 -1.4586  1.0791
   39MOL    H4312279   1.843   0.136   4.750  1.3860  0.1132 -0.2207
   39MOL    H4412280   1.959   7.773   4.720 -2.0364  1.9303  1.4759
   39MOL    H4512281   2.030   0.048   4.621 -0.6322  1.8791  2.3498
   39MOL    H4612282   2.122   7.754   4.671 -2.9006 -3.9377  2.5123
   39MOL    H4712283   2.245   7.843   4.951  1.2854  0.7806 -0.0907
   39MOL    H4812284   2.267   0.145   4.901 -0.8563 -0.0622  1.8821
   39MOL    H4912285   2.305   0.018   4.784  1.7269 -0.5520  1.2821
   39MOL    C5012286   1.834   0.305   4.871  0.0429 -0.1968 -0.1265
   39MOL    C5112287   1.932   0.400   4.794 -0.8445  0.4504  0.1871
   39MOL    C5212288   1.932   0.541   4.867  0.6511  0.0538 -0.0052
   39MOL    O5312289   1.822   0.600   4.870  0.1452 -0.4681  0.0341
   39MOL    N5412290   2.050   0.592   4.912 -0.0799 -0.1404  0.2571
   39MOL    C5512291   2.144   0.514   4.989  0.5258 -0.2201 -0.1333
   39MOL    C5612292   2.068   0.733   4.927  0.1970  0.2808  0.2076
   39MOL    H5712293   1.737   0.342   4.838  0.7562 -0.0772 -2.1191
   39MOL    H5812294   1.838   0.326   4.978  1.4042 -0.4086 -0.1246
   39MOL    H5912295   2.031   0.355   4.806 -1.5416 -0.6303  2.1056
   39MOL    H6012296   2.107   0.415   5.018  0.2324 -0.5064 -1.4518
   39MOL    H6112297   2.227   0.489   4.923  0.0044 -2.8748  0.1430
   39MOL    H6212298   2.193   0.574   5.065  0.4937 -0.3076 -0.0433
   39MOL    H6312299   2.040   0.773   5.025 -1.0662  3.6151 -1.4245
   39MOL    H6412300   2.012   0.791   4.853 -1.4502 -1.1550  0.2937
   39MOL    H6512301   2.172   0.765   4.929  0.9377 -1.7237 -3.0216
   39MOL    C6612302   1.909   0.403   4.636  0.2199  0.2794  0.4299
   39MOL    C6712303   2.043   0.414   4.554 -0.5652 -0.5455  0.3384
   39MOL    C6812304   2.117   0.553   4.579 -0.5733 -0.5523  0.3902
   39MOL    O6912305   2.044   0.647   4.579  0.7155 -0.2310  0.2936
   39MOL    N7012306   2.249   0.565   4.615  0.1202  0.4736  0.8678
   39MOL    C7112307   2.304   0.696   4.663  0.1896  0.2359  0.1438
   39MOL    C7212308   2.336   0.453   4.599 -0.5836 -0.2220  0.2841
   39MOL    H7312309   1.871   0.305   4.606 -0.0790  1.1162 -2.0547
   39MOL    H7412310   1.841   0.485   4.610  0.4100  0.2436 -0.1772
   39MOL    H7512311   2.112   0.340   4.593  0.6661 -0.0030 -0.7608
   39MOL    H7612312   2.400   0.671   4.708 -0.1904 -0.6697  0.4551
   39MOL    H7712313   2.325   0.766   4.581 -0.7866 -0.4972 -0.7432
   39MOL    H7812314   2.241   0.761   4.724 -0.4849 -1.7890  1.6427
   39MOL    H7912315   2.305   0.376   4.670 -0.8085 -1.4042 -1.0579
   39MOL    H8012316   2.443   0.469   4.590 -1.2097  2.9385 -2.3758
   39MOL    H8112317   2.314   0.402   4.504  0.0430  0.2371 -0.1087
   39MOL    C8212318   2.026   0.398   4.405 -0.2489  0.2772 -0.0139
   39MOL    C8312319   1.961   0.508   4.322 -0.9620  0.3551  0.0056
   39MOL    C8412320   1.804   0.518   4.345  0.4464  0.3326  0.1580
   39MOL    O8512321   1.728   0.422   4.327 -0.5365  0.2505  0.3173
   39MOL    N8612322   1.751   0.640   4.367  0.2496 -0.0101 -0.6241
   39MOL    C8712323   1.624   0.658   4.440 -0.1261  0.6148  1.0032
   39MOL    C8812324   1.814   0.772   4.349 -0.1954  0.3483  0.0852
   39MOL    H8912325   2.126   0.373   4.372 -0.0969 -2.0970  2.1083
   39MOL    H9012326   1.977   0.303   4.387 -1.9932  0.9903  0.8031
   39MOL    H9112327   2.007   0.604   4.347 -1.6533  0.8919 -0.7293
   39MOL    H9212328   1.614   0.586   4.521 -0.6590 -0.6547 -0.1685
   39MOL    H9312329   1.603   0.754   4.487  0.7237  0.8475  0.9115
   39MOL    H9412330   1.545   0.622   4.373  1.7019 -0.4373 -0.6388
   39MOL    H9512331   1.883   0.793   4.431  0.9435 -1.4200 -0.3940
   39MOL    H9612332   1.744   0.855   4.358  0.8426  1.2288  0.0849
   39MOL    H9712333   1.883   0.777   4.264 -1.1753  0.4418 -0.7117
   39MOL    C9812334   1.985   0.482   4.169  0.5244 -0.6187 -0.8680
   39MOL    C9912335   2.123   0.516   4.104  0.4356  0.2066 -0.7384
   39MOL   C10012336   2.157   0.660   4.120 -0.1134  0.5069  0.0817
   39MOL   O10112337   2.087   0.749   4.078 -0.2663  0.0287 -0.2318
   39MOL   N10212338   2.279   0.678   4.184 -0.2386 -0.3637 -0.4137
   39MOL   C10312339   2.353   0.578   4.253  0.8954  0.4355 -0.3956
   39MOL   C10412340   2.332   0.811   4.204 -0.0453 -0.1300  0.0125
   39MOL   H10512341   1.956   0.377   4.168 -0.3581 -0.4335  1.8657
   39MOL   H10612342   1.903   0.537   4.124 -0.4570 -0.7224  0.7455
   39MOL   H10712343   2.186   0.442   4.152  0.5923  0.9740  0.2524
   39MOL   H10812344   2.438   0.611   4.314  0.5385  1.4866 -0.4692
   39MOL   H10912345   2.279   0.528   4.316  1.7033 -1.0237 -0.5658
   39MOL   H11012346   2.399   0.508   4.183  1.3180 -1.4420  1.6649
   39MOL   H11112347   2.258   0.889   4.189 -1.9224 -2.1087 -1.3544
   39MOL   H11212348   2.415   0.828   4.135 -0.3118  1.1616 -0.0060
   39MOL   H11312349   2.383   0.818   4.300 -2.0450  2.2389  0.9514
   39MOL   C11412350   2.115   0.471   3.953  0.7949  0.1621  0.5034
   39MOL   C11512351   2.250   0.442   3.871  0.2349  0.3463 -1.0270
   39MOL   C11612352   2.307   0.306   3.905  0.1668 -0.0808 -0.3292
   39MOL   O11712353   2.359   0.293   4.017  0.0084  0.4507  0.3415
   39MOL   N11812354   2.307   0.199   3.823  0.2224 -0.8109  0.1201
   39MOL   C11912355   2.367   0.072   3.853  0.2021 -0.1409 -0.2882
   39MOL   C12012356   2.227   0.200   3.702 -0.4638 -0.3014  0.1505
   39MOL   H12112357   2.053   0.381   3.951 -0.9670  1.3688 -0.3566
   39MOL   H12212358   2.055   0.545   3.901  0.6576 -1.0181 -1.0655
   39MOL   H12312359   2.219   0.445   3.766  2.2950  0.0736 -1.6762
   39MOL   H12412360   2.462   0.090   3.903 -0.0165 -1.1777  0.5176
   39MOL   H12512361   2.300   0.010   3.913  1.2857 -3.4376 -2.3082
   39MOL   H12612362   2.394   0.010   3.767  0.9392 -0.6665  0.3146
   39MOL   H12712363   2.120   0.220   3.714 -0.4939 -0.4272  0.1010
   39MOL   H12812364   2.230   0.096   3.670 -1.6436 -0.6149  1.0314
   39MOL   H12912365   2.273   0.268   3.630 -0.3250  1.4723  1.8862
   39MOL   C13012366   2.356   0.557   3.880 -1.2257  0.0603 -0.2681
   39MOL   C13112367   2.441   0.565   3.748  0.6172  0.0970 -0.1168
   39MOL   C13212368   2.575   0.636   3.780  0.6242 -0.2653 -0.3662
   39MOL   O13312369   2.567   0.728   3.868 -0.6740 -0.0008  0.1865
   39MOL   N13412370   2.683   0.609   3.705  0.0816  0.5917 -0.3906
   39MOL   C13512371   2.813   0.660   3.740  0.6113  0.7516  0.5453
   39MOL   C13612372   2.684   0.499   3.609  0.0812  0.6681 -0.1275
   39MOL   H13712373   2.323   0.657   3.907 -0.1448 -0.0955  1.7517
   39MOL   H13812374   2.424   0.541   3.964  0.9583  3.3267 -1.3182
   39MOL   H13912375   2.469   0.465   3.715  0.1798  0.2460 -0.9452
   39MOL   H14012376   2.833   0.661   3.847  1.5143  0.5519  0.3805
   39MOL   H14112377   2.893   0.599   3.698 -0.9692 -0.1442 -1.2723
   39MOL   H14212378   2.823   0.763   3.707 -0.6328  0.3456 -1.1611
   39MOL   H14312379   2.780   0.478   3.563 -0.3434 -3.2329  0.5305
   39MOL   H14412380   2.612   0.514   3.528 -1.3757 -0.7209  0.8675
   39MOL   H14512381   2.672   0.399   3.653  1.1521 -0.1894 -1.7477
   39MOL   C14612382   2.377   0.644   3.632 -0.2244  0.0744 -0.3474
   39MOL   C14712383   2.325   0.789   3.652  0.3932 -0.3186  0.5928
   39MOL   C14812384   2.171   0.799   3.687 -0.4480  0.1595 -0.4385
   39MOL   O14912385   2.096   0.723   3.636  1.1434 -0.0852  0.4203
   39MOL   N15012386   2.125   0.891   3.774 -0.0429 -0.0282 -0.4524
   39MOL   C15112387   1.989   0.890   3.819  0.5424  0.2450  0.3318
   39MOL   C15212388   2.211   0.979   3.841  0.3543 -0.6576  0.0069
   39MOL   H15312389   2.455   0.653   3.556 -0.1589 -0.0418 -0.2942
   39MOL   H15412390   2.306   0.581   3.577 -0.9981  0.8183 -0.2131
   39MOL   H15512391   2.382   0.814   3.741 -1.0513  0.8451  1.1908
   39MOL   H15612392   1.972   0.786   3.846  2.2651  0.1493  1.1207
   39MOL   H15712393   1.972   0.941   3.913  0.9559  1.3557 -0.1879
   39MOL   H15812394   1.923   0.923   3.738  1.5819 -0.9398 -1.0442
   39MOL   H15912395   2.158   1.065   3.880 -1.5522 -1.3073 -1.0496
   39MOL   H16012396   2.296   1.004   3.778  0.1126 -1.6645 -0.7365
   39MOL   H16112397   2.257   0.935   3.930  1.8730  0.7463 -0.0632
   39MOL   C16212398   2.353   0.875   3.531 -0.2277 -0.4906  0.3061
   39MOL   C16312399   2.271   0.854   3.398  0.5507  0.0512 -0.8007
   39MOL   C16412400   2.355   0.825   3.264 -0.2483 -0.2981  0.1074
   39MOL   O16512401   2.463   0.874   3.250 -0.1652 -0.1044  0.1492
   39MOL   N16612402   2.314   0.738   3.168 -0.1397  1.1846  0.0117
   39MOL   C16712403   2.404   0.680   3.062  0.1570  0.5051  0.4652
   39MOL   C16812404   2.181   0.677   3.159  0.0693 -0.2568  0.1174
   39MOL   H16912405   2.348   0.976   3.570  2.0085 -0.7020  1.2007
   39MOL   H17012406   2.460   0.884   3.517 -0.1454  1.8870  2.2164
   39MOL   H17112407   2.207   0.769   3.422  1.8560 -0.7409 -0.1015
   39MOL   H17212408   2.375   0.575   3.057 -3.9025  1.6577 -3.0419
   39MOL   H17312409   2.388   0.718   2.961 -1.2696 -0.6353  0.2601
   39MOL   H17412410   2.511   0.679   3.087  0.4220  1.2504 -0.5858
   39MOL   H17512411   2.114   0.732   3.226 -1.3570 -0.2205 -1.3231
   39MOL   H17612412   2.194   0.571   3.181  2.9121  0.0137 -0.0936
   39MOL   H17712413   2.128   0.687   3.065  2.4466 -3.3765 -1.6497
   39MOL   C17812414   2.184   0.977   3.382  0.0006 -0.3246  0.3535
   39MOL   C17912415   2.056   0.987   3.295 -0.0662  0.4261  0.0333
   39MOL   C18012416   2.032   1.132   3.242  0.0861 -0.8163  0.0189
   39MOL   O18112417   1.958   1.207   3.305  0.0189  0.4564  0.2770
   39MOL   N18212418   2.105   1.172   3.136  0.3919  0.1592  0.9253
   39MOL   C18312419   2.187   1.082   3.050  0.4317  0.2247 -0.0752
   39MOL   C18412420   2.098   1.311   3.093  0.9202 -0.5668 -0.1715
   39MOL   H18512421   2.146   1.012   3.478  0.7942  0.6815  0.3037
   39MOL   H18612422   2.249   1.060   3.355 -0.1244  0.0009  1.0309
   39MOL   H18712423   2.077   0.940   3.199 -0.3521 -0.5099  0.4298
   39MOL   H18812424   2.149   0.985   3.020 -1.4646  0.6707  0.8481
   39MOL   H18912425   2.206   1.142   2.960 -1.4192 -0.4737 -0.9639
   39MOL   H19012426   2.281   1.064   3.103  0.3513  0.2539  0.0765
   39MOL   H19112427   2.172   1.339   3.018  2.7062 -1.7968  1.1061
   39MOL   H19212428   2.114   1.372   3.181  3.0467  0.5418 -1.2809
   39MOL   H19312429   1.998   1.332   3.054  1.3398  2.9124  0.4352
   39MOL   C19412430   1.938   0.907   3.357 -0.0139 -0.4380 -0.5979
   39MOL   C19512431   1.821   0.908   3.262  0.5738 -0.4167 -0.2987
   39MOL   C19612432   1.695   0.881   3.348  0.4969  0.4095 -0.6778
   39MOL   O19712433   1.680   0.776   3.409  0.8831 -0.1905 -0.1649
   39MOL   N19812434   1.598   0.971   3.351  0.0325  0.1890  0.2158
   39MOL   C19912435   1.594   1.097   3.275 -0.6018  0.0146  0.1130
   39MOL   C20012436   1.495   0.963   3.457 -0.8656 -0.3807  0.3849
   39MOL   H20112437   1.981   0.809   3.378  0.4240  0.3959  2.7512
   39MOL   H20212438   1.916   0.969   3.444  2.0461 -0.7774  0.1865
   39MOL   H20312439   1.807   1.008   3.222 -0.6779 -0.2755  0.4573
   39MOL   H20412440   1.668   1.173   3.298 -1.9504  0.9677  1.3132
   39MOL   H20512441   1.600   1.082   3.167 -1.8745 -0.7194  0.1367
   39MOL   H20612442   1.502   1.151   3.294  0.1959  1.0538  1.0836
   39MOL   H20712443   1.403   0.958   3.399 -2.0780  0.3511  2.1961
   39MOL   H20812444   1.499   1.042   3.532 -2.7030  2.1288 -2.0299
   39MOL   H20912445   1.496   0.872   3.516 -0.3484  0.9079  2.3954
   39MOL   C21012446   1.831   0.800   3.153 -0.1484  0.7361 -0.4181
   39MOL   C21112447   1.758   0.834   3.025  0.1519 -0.2623 -0.0158
   39MOL   C21212448   1.746   0.701   2.940  0.6255 -0.3763 -0.4867
   39MOL   O21312449   1.852   0.657   2.900  0.6241 -0.1010  0.0765
   39MOL   N21412450   1.632   0.630   2.936 -1.0470 -0.2773 -0.4587
   39MOL   C21512451   1.639   0.493   2.877 -0.3238  0.2516  0.3089
   39MOL   C21612452   1.498   0.683   2.966  0.6024 -0.2343 -0.2260
   39MOL   H21712453   1.935   0.780   3.128 -0.4300  0.8568 -1.7045
   39MOL   H21812454   1.798   0.702   3.189 -1.2727  1.6158  1.0317
   39MOL   H21912455   1.658   0.868   3.052  0.4425  0.5185  0.0892
   39MOL   H22012456   1.549   0.434   2.895  1.0998 -2.2586 -0.5572
   39MOL   H22112457   1.656   0.515   2.771  2.5540  1.1750  0.9194
   39MOL   H22212458   1.728   0.437   2.904  1.0261  1.8735 -0.6768
   39MOL   H22312459   1.484   0.717   3.069 -0.4167 -0.2980 -0.3368
   39MOL   H22412460   1.423   0.608   2.942  1.0965 -0.5268 -0.8560
   39MOL   H22512461   1.479   0.768   2.901 -1.7642  1.7974  2.9619
   39MOL   C22612462   1.822   0.951   2.950  0.1903 -0.3803 -0.2432
   39MOL   C22712463   1.757   1.007   2.817  0.3740 -0.8475 -0.1805
   39MOL   C22812464   1.635   1.094   2.851 -0.2695  0.3849  0.3706
   39MOL   O22912465   1.522   1.036   2.860 -0.4459  0.2232 -0.8686
   39MOL   N23012466   1.645   1.226   2.880 -0.4076 -0.0543 -0.5119
   39MOL   C23112467   1.770   1.308   2.862 -0.4141 -0.3084  0.3590
   39MOL   C23212468   1.534   1.304   2.930  0.0311 -0.0187 -0.7667
   39MOL   H23312469   1.838   1.035   3.018  1.6449 -1.8201  1.2331
   39MOL   H23412470   1.927   0.924   2.940  0.6356  0.9501  0.7111
   39MOL   H23512471   1.830   1.074   2.771 -0.3002 -0.4403 -0.6575
   39MOL   H23612472   1.843   1.265   2.929 -1.6862 -3.1632 -0.0057
   39MOL   H23712473   1.807   1.307   2.759 -0.5308  0.1106  0.3096
   39MOL   H23812474   1.766   1.417   2.871  2.3466 -0.1269 -0.0721
   39MOL   H23912475   1.452   1.282   2.861  0.8193 -0.6831 -1.4937
   39MOL   H24012476   1.549   1.411   2.940 -0.2690 -0.0872  0.6442
   39MOL   H24112477   1.498   1.263   3.025  2.3581 -1.4423 -0.4759
   39MOL   C24212478   1.734   0.906   2.702  0.4913 -0.1341  0.0737
   39MOL   C24312479   1.709   0.961   2.556  0.0908 -0.8976 -0.5850
   39MOL   C24412480   1.817   1.060   2.506 -0.0925 -0.0799  0.2268
   39MOL   O24512481   1.817   1.179   2.551  0.8638  0.6038 -0.0175
   39MOL   N24612482   1.892   1.033   2.394  0.0669 -0.4135  0.5463
   39MOL   C24712483   1.991   1.130   2.345 -0.0887  0.7389  0.0650
   39MOL   C24812484   1.908   0.897   2.345  0.2643  0.5031  0.3330
   39MOL   H24912485   1.827   0.850   2.693  0.0047 -0.8186 -0.7360
   39MOL   H25012486   1.650   0.841   2.727 -0.2843 -0.5093 -3.2942
   39MOL   H25112487   1.716   0.869   2.499  0.3874 -0.3568 -1.4242
   39MOL   H25212488   2.012   1.217   2.408 -2.8954 -0.6394  3.0968
   39MOL   H25312489   2.086   1.078   2.331 -0.8116  0.1719 -2.9149
   39MOL   H25412490   1.953   1.172   2.253 -1.7197 -2.1552 -0.6572
   39MOL   H25512491   1.973   0.889   2.258 -2.5355 -0.1946 -1.7657
   39MOL   H25612492   1.813   0.862   2.304 -0.0604  1.6718  0.0773
   39MOL   H25712493   1.944   0.825   2.419  0.4399  0.2188 -0.0233
   39MOL   C25812494   1.558   1.012   2.541  0.2323 -0.2635 -0.3658
   39MOL   C25912495   1.493   1.006   2.397  0.0980 -0.1552 -0.2644
   39MOL   C26012496   1.471   0.859   2.338  0.4501 -0.1260 -1.1048
   39MOL   O26112497   1.563   0.808   2.281  0.6141 -0.3321  0.3185
   39MOL   N26212498   1.359   0.801   2.374  0.8442 -0.0101 -0.7648
   39MOL   C26312499   1.241   0.868   2.429  0.0963 -0.3024  0.0501
   39MOL   C26412500   1.332   0.663   2.331  0.2444  0.8601  0.3972
   39MOL   H26512501   1.500   0.955   2.612  0.0840  0.3652  0.0213
   39MOL   H26612502   1.559   1.113   2.582 -0.0032 -0.0337 -0.9097
   39MOL   H26712503   1.394   1.050   2.412 -0.9552 -2.1917 -1.0568
   39MOL   H26812504   1.259   0.922   2.521 -1.9348 -2.1623  1.5943
   39MOL   H26912505   1.203   0.928   2.346 -1.5092 -2.8740 -1.1477
   39MOL   H27012506   1.163   0.795   2.450  0.4822 -0.6339  0.3253
   39MOL   H27112507   1.343   0.602   2.421  1.4803 -2.5973 -1.9905
   39MOL   H27212508   1.414   0.630   2.268 -0.2802  1.6842 -0.7391
   39MOL   H27312509   1.233   0.658   2.285  0.1047  1.6054  0.6001
   39MOL   C27412510   1.556   1.103   2.291  0.5452  0.6991 -0.3047
   39MOL   C27512511   1.493   1.103   2.148  1.0391 -0.2433 -0.1023
   39MOL   C27612512   1.596   1.184   2.060  0.7976 -0.6099 -0.0647
   39MOL   O27712513   1.586   1.307   2.056  0.1382 -0.3541 -0.2243
   39MOL   N27812514   1.692   1.117   1.994 -0.0892  0.7684  0.7589
   39MOL   C27912515   1.757   1.180   1.883 -0.0403  0.8431 -0.2579
   39MOL   C28012516   1.729   0.978   2.019  0.1021 -0.3170  0.6924
   39MOL   H28112517   1.553   1.209   2.315 -0.2056  0.8693 -1.1048
   39MOL   H28212518   1.662   1.083   2.278  0.9554  1.6536  1.4923
   39MOL   H28312519   1.478   1.001   2.111 -1.7986 -0.4991  1.6560
   39MOL   H28412520   1.828   1.115   1.832 -0.5568 -1.1131  1.4529
   39MOL   H28512521   1.680   1.203   1.810 -0.8334 -0.5516  0.1131
   39MOL   H28612522   1.819   1.264   1.912 -1.5142  2.9077 -2.9119
   39MOL   H28712523   1.635   0.924   2.030 -1.7282  2.9685  1.6074
   39MOL   H28812524   1.769   0.977   2.120  0.5065  2.0626  0.5908
   39MOL   H28912525   1.795   0.928   1.947  0.6964  3.0068 -1.1835
   39MOL   C29012526   1.351   1.166   2.157  0.5413 -0.2860  0.2505
   39MOL   C29112527   1.254   1.139   2.034  0.1064  1.1126  0.0264
   39MOL   C29212528   1.157   1.251   2.011  0.0589 -0.4481  0.5167
   39MOL   O29312529   1.054   1.237   2.068  0.2375 -0.3117  0.5706
   39MOL   N29412530   1.189   1.356   1.925 -0.3944  0.2667  0.6192
   39MOL   C29512531   1.322   1.373   1.865  0.0712 -0.3604  0.1362
   39MOL   C29612532   1.092   1.461   1.902 -0.5568 -0.0634  0.2372
   39MOL   H29712533   1.307   1.122   2.247  1.0627  1.5072  1.4092
   39MOL   H29812534   1.358   1.273   2.175  0.2556 -0.1087 -0.6988
   39MOL   H29912535   1.320   1.133   1.947  1.0132  0.2176  0.7760
   39MOL   H30012536   1.336   1.459   1.800  3.1071 -0.0204  1.1700
   39MOL   H30112537   1.395   1.387   1.945  0.0237 -2.3017  0.5305
   39MOL   H30212538   1.364   1.287   1.813 -0.2919  0.4254 -1.4861
   39MOL   H30312539   1.133   1.556   1.936  0.8555 -0.8929  0.8879
   39MOL   H30412540   0.992   1.441   1.940 -0.0577 -1.1879  0.9755
   39MOL   H30512541   1.080   1.472   1.794  2.3920  3.1479  0.1584
   39MOL   C30612542   1.194   1.001   2.054  0.0820  1.2245 -0.3825
   39MOL   C30712543   1.099   0.946   1.947  0.0243 -0.5568  0.0120
   39MOL   C30812544   1.158   0.925   1.807 -0.0110  0.5099  0.2751
   39MOL   O30912545   1.273   0.956   1.784  0.2740  0.5984  0.3415
   39MOL   N31012546   1.080   0.868   1.714  0.0328  0.6308 -0.3981
   39MOL   C31112547   1.140   0.797   1.600  0.3943 -0.2464 -0.0544
   39MOL   C31212548   0.942   0.829   1.742 -0.3716  0.5607 -0.2333
   39MOL   H31312549   1.265   0.919   2.061 -0.0537  1.1420  0.0307
   39MOL   H31412550   1.154   1.004   2.155  1.4991 -1.2133  0.2891
   39MOL   H31512551   1.062   0.849   1.982  0.4796 -0.6588  0.2082
   39MOL   H31612552   1.226   0.736   1.626  0.8751  1.8509  3.5131
   39MOL   H31712553   1.071   0.723   1.559  0.5822 -0.9699  0.9230
   39MOL   H31812554   1.173   0.866   1.522  0.8569 -0.8694 -0.4157
   39MOL   H31912555   0.894   0.905   1.804 -3.1092 -1.8760  0.7814
   39MOL   H32012556   0.928   0.732   1.789  2.5528  0.8452  1.3415
   39MOL   H32112557   0.882   0.834   1.651  0.2321 -1.8876 -0.7951
   39MOL   H32212558   1.020   1.019   1.931 -0.0815 -0.3891  1.2404
   40MOL     C112559   5.158   2.901   6.259 -0.3241  0.1414  0.1730
   40MOL     C212560   5.184   2.948   6.111  0.2206  0.5494  0.0936
   40MOL     C312561   5.243   3.088   6.111 -0.7825  0.1027  0.4856
   40MOL     O412562   5.163   3.179   6.125  0.1232 -0.0453  0.1423
   40MOL     N512563   5.379   3.103   6.097  0.3476  0.2380  0.4732
   40MOL     C612564   5.472   2.988   6.118 -0.0016  0.1771  0.0742
   40MOL     C712565   5.432   3.237   6.084 -0.6500  0.0953 -0.0950
   40MOL     H812566   5.089   2.816   6.248  1.3056 -0.8975 -2.5638
   40MOL     H912567   5.119   2.973   6.331 -0.4261  1.1064 -0.8456
   40MOL    H1012568   5.257   2.889   6.055 -1.6649  0.5182 -2.4318
   40MOL    H1112569   5.481   2.919   6.034  0.5182  0.9578 -0.5158
   40MOL    H1212570   5.573   3.027   6.134  0.3336 -0.5620 -0.2489
   40MOL    H1312571   5.439   2.931   6.205  1.0639 -0.2931  0.1762
   40MOL    H1412572   5.535   3.234   6.048 -1.2268 -1.2039 -1.6783
   40MOL    H1512573   5.433   3.288   6.180  0.1160 -0.1416  0.0252
   40MOL    H1612574   5.372   3.302   6.020 -1.0222 -0.0120  0.1467
   40MOL    H1712575   5.237   2.851   6.316 -1.8564 -0.6303  1.6784
   40MOL    C1812576   5.049   2.949   6.027  0.2808  0.2143  0.3273
   40MOL    C1912577   5.062   2.963   5.875 -0.1187 -0.0805 -0.9541
   40MOL    C2012578   4.921   2.926   5.812 -0.3199 -0.4235 -0.9546
   40MOL    O2112579   4.883   2.812   5.833 -0.3633 -0.1515 -0.3494
   40MOL    N2212580   4.841   3.015   5.748  0.1687  0.5998 -0.2518
   40MOL    C2312581   4.883   3.150   5.709 -0.7213  0.7125  0.8250
   40MOL    C2412582   4.716   2.975   5.686  0.1208 -0.0375  0.3222
   40MOL    H2512583   4.999   2.854   6.044  1.3791 -0.3289  0.6322
   40MOL    H2612584   4.988   3.033   6.061  0.7760  0.9723 -0.6309
   40MOL    H2712585   5.102   3.059   5.842 -2.0033  1.3621  0.7704
   40MOL    H2812586   4.906   3.225   5.784 -1.7042  2.0555 -0.1861
   40MOL    H2912587   4.964   3.150   5.636  0.2107 -0.1927  1.8565
   40MOL    H3012588   4.805   3.205   5.656  0.2133 -0.0585 -1.4372
   40MOL    H3112589   4.645   3.056   5.707 -1.3894 -1.3344  0.3421
   40MOL    H3212590   4.670   2.889   5.735 -0.0233 -0.5926 -0.7699
   40MOL    H3312591   4.722   2.962   5.578 -1.1775 -0.0501  0.2423
   40MOL    C3412592   5.158   2.854   5.812 -0.3326  1.1574  0.8280
   40MOL    C3512593   5.266   2.907   5.720  0.5969 -0.2395  0.4084
   40MOL    C3612594   5.205   2.967   5.592 -0.2649  0.1202 -0.1963
   40MOL    O3712595   5.121   2.899   5.536  0.1709 -0.1550 -0.4511
   40MOL    N3812596   5.239   3.091   5.549 -0.0182  0.1242  0.3123
   40MOL    C3912597   5.165   3.162   5.441  0.4533  0.4566  0.8554
   40MOL    C4012598   5.346   3.182   5.604 -0.7264 -0.3008 -0.1397
   40MOL    H4112599   5.206   2.798   5.892  0.0009  0.6597  0.2787
   40MOL    H4212600   5.106   2.771   5.764 -0.5870  1.3178  0.8211
   40MOL    H4312601   5.315   2.990   5.772  0.2841  0.9769 -1.1688
   40MOL    H4412602   5.216   3.164   5.345  0.5074  1.4636  0.8971
   40MOL    H4512603   5.062   3.131   5.420  0.7733  0.4479 -0.7642
   40MOL    H4612604   5.159   3.268   5.467  0.4563  0.8743 -0.7756
   40MOL    H4712605   5.367   3.267   5.539  0.5603 -1.4284 -1.2197
   40MOL    H4812606   5.443   3.138   5.629  0.3816  1.5443 -1.0979
   40MOL    H4912607   5.304   3.225   5.695 -3.0115 -0.2770 -1.1749
   40MOL    C5012608   5.379   2.808   5.685  0.7066  0.7733  0.6875
   40MOL    C5112609   5.361   2.682   5.594  0.1874 -0.3937  0.3032
   40MOL    C5212610   5.276   2.570   5.663  0.0218 -0.0104 -0.5096
   40MOL    O5312611   5.319   2.532   5.770 -0.4175 -0.1857 -0.3982
   40MOL    N5412612   5.173   2.512   5.598 -0.2092  0.4669  0.4448
   40MOL    C5512613   5.105   2.397   5.661  0.1250 -0.6070 -0.2654
   40MOL    C5612614   5.111   2.572   5.477  0.7182  0.0185  0.4420
   40MOL    H5712615   5.463   2.867   5.650 -0.3980  0.8401 -1.9880
   40MOL    H5812616   5.422   2.770   5.778  2.8442 -0.6975 -0.8542
   40MOL    H5912617   5.317   2.716   5.500  0.8849 -0.7679 -0.1651
   40MOL    H6012618   5.045   2.341   5.589  0.8066 -0.5942 -0.8482
   40MOL    H6112619   5.184   2.335   5.702 -0.5876 -0.2842  1.6345
   40MOL    H6212620   5.054   2.435   5.749  0.1490  2.0579 -1.3599
   40MOL    H6312621   5.177   2.551   5.393  0.8548 -1.1352  0.8259
   40MOL    H6412622   5.097   2.679   5.489  0.7434  0.1128 -0.3730
   40MOL    H6512623   5.013   2.526   5.460  1.4809 -1.3591 -0.3267
   40MOL    C6612624   5.501   2.630   5.560 -0.4366  0.5014 -0.7748
   40MOL    C6712625   5.506   2.528   5.437  0.3939 -0.2076 -0.3739
   40MOL    C6812626   5.523   2.389   5.499 -0.1665  0.6839  0.0180
   40MOL    O6912627   5.613   2.373   5.583  0.2259  0.2421 -0.5723
   40MOL    N7012628   5.425   2.296   5.487  0.3931  0.4924 -0.5015
   40MOL    C7112629   5.400   2.202   5.586  0.2527 -0.4358 -0.0316
   40MOL    C7212630   5.345   2.280   5.365 -0.2992  0.1058 -0.3620
   40MOL    H7312631   5.560   2.718   5.534  0.2987  0.0661 -0.5819
   40MOL    H7412632   5.546   2.585   5.648 -0.8049  1.3639 -0.1432
   40MOL    H7512633   5.417   2.539   5.375 -1.3328 -1.1730  1.8609
   40MOL    H7612634   5.314   2.139   5.563  2.9682 -3.3526 -2.4773
   40MOL    H7712635   5.481   2.131   5.600 -0.3582 -1.0452  0.5178
   40MOL    H7812636   5.389   2.244   5.686 -0.6901 -1.4213  0.2932
   40MOL    H7912637   5.243   2.311   5.388 -0.4545 -0.1402 -0.7162
   40MOL    H8012638   5.349   2.186   5.311  1.3860 -0.5711  0.8970
   40MOL    H8112639   5.373   2.348   5.284  0.9257 -0.6340 -0.5742
   40MOL    C8212640   5.628   2.549   5.339  0.4491  0.0286  0.5141
   40MOL    C8312641   5.650   2.695   5.273  0.0626  0.0795  0.1978
   40MOL    C8412642   5.532   2.746   5.197 -0.3948  0.7081  0.3644
   40MOL    O8512643   5.492   2.677   5.103 -0.3377 -0.3159  0.2589
   40MOL    N8612644   5.470   2.859   5.239 -0.0954 -0.4613 -0.6730
   40MOL    C8712645   5.338   2.893   5.180  0.1111 -0.1330 -0.6238
   40MOL    C8812646   5.515   2.961   5.335  0.7573 -0.2347 -0.4869
   40MOL    H8912647   5.721   2.525   5.390 -0.1135 -3.2813  0.0801
   40MOL    H9012648   5.610   2.482   5.256 -0.6516 -0.3421  1.0385
   40MOL    H9112649   5.670   2.758   5.359 -1.5531 -0.3735  0.9138
   40MOL    H9212650   5.345   2.989   5.128  0.2347  0.8056  1.0644
   40MOL    H9312651   5.298   2.828   5.103 -0.8085 -2.2898  1.6320
   40MOL    H9412652   5.261   2.892   5.257 -0.8927 -3.8096 -1.5739
   40MOL    H9512653   5.525   2.920   5.435  4.3282 -0.1676 -0.7301
   40MOL    H9612654   5.452   3.049   5.344 -0.0776 -0.8147 -0.6593
   40MOL    H9712655   5.609   2.996   5.290  0.2363  1.4238 -0.2897
   40MOL    C9812656   5.777   2.718   5.182  0.0537 -0.4343 -0.3241
   40MOL    C9912657   5.908   2.709   5.249  0.4545 -0.1629 -0.9444
   40MOL   C10012658   5.932   2.837   5.330 -0.2681 -0.9015 -0.0142
   40MOL   O10112659   5.957   2.934   5.253 -0.3733  0.4950 -0.3382
   40MOL   N10212660   5.944   2.833   5.467 -0.0112 -0.6657 -0.3806
   40MOL   C10312661   5.977   2.966   5.531  0.0032  0.7559 -0.6525
   40MOL   C10412662   5.918   2.726   5.571  0.0829 -0.4988  1.0318
   40MOL   H10512663   5.764   2.645   5.102  1.6476 -0.3660 -0.6589
   40MOL   H10612664   5.771   2.804   5.117 -1.4591  0.7844  1.3718
   40MOL   H10712665   5.905   2.623   5.315 -0.2613  0.7998  0.3102
   40MOL   H10812666   5.999   2.953   5.637  0.2460  2.7678 -0.4221
   40MOL   H10912667   6.072   3.003   5.491  1.0619 -0.4083  0.7161
   40MOL   H11012668   5.903   3.044   5.513 -1.2935  0.1112  1.6615
   40MOL   H11112669   5.876   2.772   5.661 -2.2336  0.7434 -0.6283
   40MOL   H11212670   6.007   2.674   5.608 -0.6053 -0.7849  2.3059
   40MOL   H11312671   5.852   2.649   5.533  0.4280 -0.6639  0.7637
   40MOL   C11412672   6.029   2.667   5.155 -0.5727 -0.1817 -0.1452
   40MOL   C11512673   6.166   2.647   5.220 -0.3649 -0.3748  0.4739
   40MOL   C11612674   6.259   2.765   5.181 -0.7313 -0.5368 -0.0094
   40MOL   O11712675   6.273   2.794   5.059  0.4479  0.3270 -0.8189
   40MOL   N11812676   6.322   2.842   5.270  0.7610 -0.6613 -0.2669
   40MOL   C11912677   6.374   2.982   5.228  0.1029  0.2207  0.0389
   40MOL   C12012678   6.327   2.814   5.414  0.2714  0.6635 -0.0720
   40MOL   H12112679   6.002   2.570   5.114  3.5346 -1.1296 -0.7901
   40MOL   H12212680   6.028   2.741   5.075  0.6849  0.0675  0.0673
   40MOL   H12312681   6.150   2.652   5.328 -4.5802 -1.5928 -0.0177
   40MOL   H12412682   6.421   2.964   5.132  0.1709  1.3497 -0.1409
   40MOL   H12512683   6.288   3.048   5.213 -0.6383 -0.8978 -0.7570
   40MOL   H12612684   6.444   3.018   5.303 -1.3811 -0.3823  1.7523
   40MOL   H12712685   6.234   2.841   5.463  0.8996  1.6694  0.5563
   40MOL   H12812686   6.394   2.874   5.475 -0.0297  1.1933 -0.2587
   40MOL   H12912687   6.348   2.708   5.428 -0.0763  0.6540  0.3678
   40MOL   C13012688   6.238   2.516   5.172  0.2200  0.4661 -0.5344
   40MOL   C13112689   6.196   2.378   5.231  0.1912 -0.5057  0.1461
   40MOL   C13212690   6.203   2.384   5.389  0.2373 -0.2736  0.2925
   40MOL   O13312691   6.308   2.414   5.450  0.1644 -0.0298  0.1150
   40MOL   N13412692   6.089   2.349   5.456 -0.3281  0.4476  0.1666
   40MOL   C13512693   6.092   2.327   5.602  0.6308 -0.3898 -0.0850
   40MOL   C13612694   5.952   2.313   5.399 -0.5097  0.0578  0.6264
   40MOL   H13712695   6.229   2.521   5.063 -0.4621 -1.8191 -0.6004
   40MOL   H13812696   6.343   2.535   5.191  0.3027  0.2897 -0.8056
   40MOL   H13912697   6.095   2.362   5.192  0.2487 -0.4269 -0.0366
   40MOL   H14012698   6.069   2.221   5.612  2.1916 -0.7015  0.3445
   40MOL   H14112699   6.186   2.336   5.657 -0.4266  2.7968  1.3524
   40MOL   H14212700   6.019   2.389   5.655  2.9456 -0.4351  3.3201
   40MOL   H14312701   5.884   2.262   5.467  1.0118 -0.9283  1.4410
   40MOL   H14412702   5.955   2.261   5.303  0.6296  0.9238  0.1786
   40MOL   H14512703   5.906   2.408   5.370 -0.1445  0.7138  2.1633
   40MOL   C14612704   6.304   2.287   5.173  0.2401  0.3215  0.0647
   40MOL   C14712705   6.280   2.135   5.178  0.2010 -0.0193  0.7542
   40MOL   C14812706   6.146   2.075   5.119 -0.0020  0.1152 -0.2623
   40MOL   O14912707   6.054   2.154   5.096  0.7353 -0.0888  0.5139
   40MOL   N15012708   6.134   1.953   5.059 -0.6982  0.0500 -0.7656
   40MOL   C15112709   6.240   1.860   5.064  0.6175 -0.5060  0.2216
   40MOL   C15212710   6.003   1.905   5.018 -0.1982 -0.1430 -0.5626
   40MOL   H15312711   6.328   2.316   5.071 -1.6276  1.7856 -0.0016
   40MOL   H15412712   6.397   2.306   5.226 -0.4691  0.0632  1.4322
   40MOL   H15512713   6.359   2.103   5.111  0.4265  1.1672  0.4439
   40MOL   H15612714   6.250   1.805   4.970  1.6043 -1.8002  1.0542
   40MOL   H15712715   6.344   1.892   5.077  0.6598 -0.7055  0.3832
   40MOL   H15812716   6.206   1.782   5.133 -5.8978 -0.0099 -2.0951
   40MOL   H15912717   5.988   1.797   5.020  2.5936 -0.6000 -1.7840
   40MOL   H16012718   5.998   1.934   4.913 -2.0014  2.0821  0.1087
   40MOL   H16112719   5.918   1.953   5.066  1.2382  2.5216 -0.6047
   40MOL   C16212720   6.316   2.068   5.310  0.0765 -0.6725  0.5610
   40MOL   C16312721   6.463   2.086   5.358 -0.3616  0.4715 -0.1183
   40MOL   C16412722   6.567   2.017   5.262  0.0614 -0.1609 -0.0850
   40MOL   O16512723   6.544   1.899   5.242  0.3602 -0.1493  0.1055
   40MOL   N16612724   6.667   2.087   5.205  0.2197  0.6605  0.5880
   40MOL   C16712725   6.735   2.035   5.090  0.1694 -1.0764 -0.0854
   40MOL   C16812726   6.702   2.224   5.235 -0.1204 -0.1430 -0.0509
   40MOL   H16912727   6.247   2.105   5.386  0.2460  1.1458 -0.1254
   40MOL   H17012728   6.295   1.962   5.319  0.9357 -1.2620 -3.4531
   40MOL   H17112729   6.494   2.190   5.358  1.2399  0.0123  1.6220
   40MOL   H17212730   6.740   2.111   5.012  1.1490  0.2514  1.2454
   40MOL   H17312731   6.832   2.004   5.130  1.2973  2.0549 -0.2807
   40MOL   H17412732   6.686   1.948   5.046 -1.0090  0.0384 -1.0099
   40MOL   H17512733   6.739   2.230   5.337  0.9063 -0.4495 -0.4057
   40MOL   H17612734   6.618   2.294   5.230  0.4935  0.6355  0.3535
   40MOL   H17712735   6.781   2.270   5.176  0.0866  0.3940  0.6432
   40MOL   C17812736   6.475   2.026   5.502 -0.1560 -0.2241 -0.4208
   40MOL   C17912737   6.610   2.043   5.569 -0.3819 -1.2786  0.9567
   40MOL   C18012738   6.637   1.941   5.685  0.1410  0.5751 -0.3136
   40MOL   O18112739   6.626   1.984   5.797  0.0241 -0.1143 -0.8558
   40MOL   N18212740   6.678   1.814   5.658  0.3986 -0.1128  0.3853
   40MOL   C18312741   6.730   1.731   5.766 -0.9944 -0.2223  0.2340
   40MOL   C18412742   6.676   1.747   5.528 -0.1490  1.0378  0.4270
   40MOL   H18512743   6.394   2.065   5.563  0.0915 -1.8158  0.9538
   40MOL   H18612744   6.449   1.920   5.502 -1.0133 -0.0345  2.0347
   40MOL   H18712745   6.699   2.038   5.507 -1.6489  0.0956 -1.0136
   40MOL   H18812746   6.654   1.661   5.799 -2.2299  0.6427 -0.7399
   40MOL   H18912747   6.802   1.659   5.726 -0.1574  1.3902 -1.2048
   40MOL   H19012748   6.764   1.796   5.847  0.9407 -0.8899  0.0043
   40MOL   H19112749   6.576   1.712   5.501  0.9555 -0.5361 -1.7835
   40MOL   H19212750   6.734   1.655   5.525 -0.5301  0.8359 -2.6312
   40MOL   H19312751   6.701   1.808   5.441 -2.4528 -0.3013 -1.2416
   40MOL   C19412752   6.621   2.197   5.618  0.3493  0.2254 -0.2020
   40MOL   C19512753   6.743   2.240   5.700  0.2249 -1.1193 -0.7261
   40MOL   C19612754   6.705   2.377   5.759  0.1567  0.2744 -1.0601
   40MOL   O19712755   6.678   2.466   5.678 -0.4518 -0.1717  0.1848
   40MOL   N19812756   6.697   2.403   5.888 -0.2172 -1.0026 -0.8648
   40MOL   C19912757   6.686   2.298   5.988 -0.2220 -0.2862 -0.1432
   40MOL   C20012758   6.676   2.539   5.935  0.2674 -0.1615  0.2096
   40MOL   H20112759   6.625   2.264   5.532 -1.4802 -0.8987 -1.1898
   40MOL   H20212760   6.529   2.219   5.671 -0.0211 -0.6473 -0.4702
   40MOL   H20312761   6.766   2.172   5.782 -3.3116 -0.5081  0.8445
   40MOL   H20412762   6.654   2.200   5.953  0.6318  0.1506 -2.2419
   40MOL   H20512763   6.784   2.286   6.033 -0.6046 -1.5802  0.3398
   40MOL   H20612764   6.615   2.329   6.064 -1.1557 -1.3013 -0.5943
   40MOL   H20712765   6.583   2.586   5.902  0.3788  1.3482  1.9923
   40MOL   H20812766   6.750   2.610   5.896 -1.2291  0.4084 -1.7030
   40MOL   H20912767   6.681   2.540   6.044  0.6742  0.9627  0.1852
   40MOL   C21012768   6.872   2.249   5.612  0.6073 -0.6970 -0.2954
   40MOL   C21112769   7.004   2.213   5.694 -0.6825  0.7316 -0.1743
   40MOL   C21212770   7.026   2.311   5.809  0.4119 -0.9264 -0.3354
   40MOL   O21312771   7.016   2.435   5.786 -0.0502  0.1554  0.1947
   40MOL   N21412772   7.035   2.265   5.938 -0.5670 -0.3030  0.1556
   40MOL   C21512773   7.035   2.122   5.979  0.6507 -0.0773 -0.5590
   40MOL   C21612774   7.039   2.361   6.048  0.0914 -0.0932 -0.0805
   40MOL   H21712775   6.861   2.187   5.523  0.6356 -2.9000  1.1906
   40MOL   H21812776   6.884   2.350   5.575 -1.0083 -1.3086 -2.5785
   40MOL   H21912777   6.990   2.110   5.727  1.8389  0.5749  0.4949
   40MOL   H22012778   7.086   2.116   6.075  0.4185 -0.0571 -0.4317
   40MOL   H22112779   6.931   2.097   6.000  1.2648 -0.1970  2.6088
   40MOL   H22212780   7.087   2.053   5.912  0.8337 -0.7575  0.2713
   40MOL   H22312781   7.064   2.320   6.146 -0.9198 -0.2600  0.1050
   40MOL   H22412782   6.952   2.427   6.053  0.4195  0.3656 -0.3207
   40MOL   H22512783   7.121   2.431   6.029  0.3318 -0.6074 -0.9572
   40MOL   C22612784   7.118   2.227   5.586  0.1840  0.1402  0.4337
   40MOL   C22712785   7.139   2.109   5.486  0.6602  0.0006 -0.3969
   40MOL   C22812786   7.173   1.985   5.564 -0.0714  0.2332  0.1973
   40MOL   O22912787   7.273   1.985   5.632 -0.2982 -0.0112  0.1341
   40MOL   N23012788   7.094   1.872   5.547 -0.3415  0.0813  0.4773
   40MOL   C23112789   7.110   1.766   5.647  0.1107  1.2034 -0.0923
   40MOL   C23212790   6.992   1.859   5.443 -0.0767 -0.1965  0.4291
   40MOL   H23312791   7.098   2.318   5.530  0.9086 -1.0655 -1.8440
   40MOL   H23412792   7.217   2.236   5.631 -0.3011 -0.9480  1.7544
   40MOL   H23512793   7.045   2.098   5.432  1.3436  2.9862 -2.3239
   40MOL   H23612794   7.025   1.753   5.715 -0.9801 -0.2459 -1.6747
   40MOL   H23712795   7.105   1.674   5.588  2.2917  1.4079 -0.6258
   40MOL   H23812796   7.208   1.757   5.693 -0.6357 -1.7527  1.0348
   40MOL   H23912797   6.937   1.765   5.440  1.2083 -0.9168 -2.9116
   40MOL   H24012798   7.041   1.874   5.347  1.7826 -0.0414  1.3659
   40MOL   H24112799   6.922   1.940   5.464 -0.0914  0.3783 -1.7081
   40MOL   C24212800   7.248   2.160   5.399  0.0708 -0.0420  0.4795
   40MOL   C24312801   7.278   2.095   5.259 -1.1700  0.0517 -0.4770
   40MOL   C24412802   7.159   2.135   5.166  0.1283 -0.3492  0.8054
   40MOL   O24512803   7.061   2.061   5.162  0.1004  0.1155 -0.1941
   40MOL   N24612804   7.178   2.239   5.078  0.0965 -0.2119  1.0799
   40MOL   C24712805   7.079   2.279   4.976  0.2488 -0.4210  0.0929
   40MOL   C24812806   7.295   2.327   5.077  0.1552 -0.3339 -0.1505
   40MOL   H24912807   7.241   2.267   5.381 -0.6179 -0.2090 -0.2475
   40MOL   H25012808   7.341   2.148   5.454 -0.9929 -0.7820  2.1724
   40MOL   H25112809   7.368   2.150   5.230 -1.1746  0.9180  1.1406
   40MOL   H25212810   7.100   2.378   4.937  0.6881 -1.1316 -1.5209
   40MOL   H25312811   7.090   2.206   4.896 -2.4411 -4.7698  3.4489
   40MOL   H25412812   6.977   2.264   5.013  0.3861  0.5889  0.8996
   40MOL   H25512813   7.304   2.403   4.999 -0.9346  1.2760  1.2626
   40MOL   H25612814   7.393   2.278   5.084 -0.2711 -0.9163  2.1612
   40MOL   H25712815   7.299   2.376   5.174  0.1514  0.3388 -0.4862
   40MOL   C25812816   7.324   1.942   5.262  0.3710 -0.7199  0.6244
   40MOL   C25912817   7.455   1.896   5.324  0.5148 -0.6468 -0.7645
   40MOL   C26012818   7.569   1.972   5.261 -0.0979 -0.0262  0.0294
   40MOL   O26112819   7.567   1.963   5.139 -0.4699  0.0612 -0.4133
   40MOL   N26212820   7.658   2.043   5.336  0.3795 -0.6679  0.8550
   40MOL   C26312821   7.650   2.056   5.481 -0.2581  0.1814 -1.3216
   40MOL   C26412822   7.751   2.140   5.284  0.4200 -0.2716  0.1597
   40MOL   H26512823   7.246   1.878   5.304  1.0066 -1.9916 -0.0948
   40MOL   H26612824   7.327   1.925   5.154  0.9368 -1.1258  0.7049
   40MOL   H26712825   7.457   1.924   5.429  2.1884 -0.5323 -0.8256
   40MOL   H26812826   7.689   1.967   5.530  0.3118  0.5661 -1.0809
   40MOL   H26912827   7.717   2.134   5.514 -0.3228 -0.7150  0.9933
   40MOL   H27012828   7.547   2.078   5.508 -0.5930  0.9041 -3.0665
   40MOL   H27112829   7.848   2.132   5.333  0.7687 -1.3043 -0.6892
   40MOL   H27212830   7.717   2.243   5.295 -0.2957 -0.2560 -2.0798
   40MOL   H27312831   7.772   2.117   5.180 -2.8937  0.2483 -0.6848
   40MOL   C27412832   7.474   1.750   5.309  0.4215 -0.3025  0.5806
   40MOL   C27512833   7.575   1.675   5.403 -0.6018  0.1635 -0.3843
   40MOL   C27612834   7.657   1.577   5.333  0.4933 -0.2767  0.0947
   40MOL   O27712835   7.597   1.491   5.257 -0.8466 -0.2452 -0.2317
   40MOL   N27812836   7.795   1.572   5.341  0.4582 -0.1642 -0.5842
   40MOL   C27912837   0.018   1.677   5.409 -0.3300  0.2212 -0.3145
   40MOL   C28012838   0.017   1.480   5.256 -0.1842  0.0489 -0.0721
   40MOL   H28112839   7.376   1.702   5.315  0.4968 -0.4978  0.2528
   40MOL   H28212840   7.499   1.730   5.205 -0.9431  0.8621  0.0080
   40MOL   H28312841   7.640   1.749   5.450 -0.1787 -0.1359 -0.5003
   40MOL   H28412842   7.838   1.772   5.370 -1.7257 -0.6251 -1.2210
   40MOL   H28512843   0.011   1.670   5.518 -1.1771  1.3596 -0.2937
   40MOL   H28612844   0.119   1.657   5.373 -1.2672 -0.8102 -2.4245
   40MOL   H28712845   7.809   1.400   5.216 -0.3343 -1.6050  3.2698
   40MOL   H28812846   0.102   1.436   5.308  0.8662  0.7133 -1.1962
   40MOL   H28912847   0.064   1.538   5.176  2.8895  0.9885  2.3108
   40MOL   C29012848   7.494   1.614   5.521 -0.2077 -0.3278 -0.4511
   40MOL   C29112849   7.567   1.587   5.650  0.0992  0.0826  0.0450
   40MOL   C29212850   7.528   1.446   5.701 -0.1078 -0.1971 -0.2468
   40MOL   O29312851   7.408   1.437   5.730 -0.0614  0.0573 -0.1462
   40MOL   N29412852   7.609   1.339   5.704  0.1344  0.1654 -0.0291
   40MOL   C29512853   7.563   1.206   5.751 -0.0387 -0.4554  0.1788
   40MOL   C29612854   7.749   1.342   5.665 -0.6968  0.0960 -0.3248
   40MOL   H29712855   7.403   1.671   5.536  0.6984  0.9662  0.2127
   40MOL   H29812856   7.460   1.517   5.483 -1.6883  0.3567 -0.8903
   40MOL   H29912857   7.675   1.580   5.631 -0.4563 -1.0285 -3.1145
   40MOL   H30012858   7.510   1.220   5.845  2.5039  1.8739  1.2990
   40MOL   H30112859   7.489   1.168   5.680 -1.9190  1.6645  0.9284
   40MOL   H30212860   7.639   1.129   5.759 -1.7926 -2.1519  1.1485
   40MOL   H30312861   7.796   1.424   5.720 -1.9914  0.0980  0.8027
   40MOL   H30412862   7.764   1.359   5.559 -0.4458  1.3439 -0.1046
   40MOL   H30512863   7.806   1.251   5.682 -1.8229 -0.9798 -2.1038
   40MOL   C30612864   7.548   1.691   5.758 -0.2890 -0.0843  0.0712
   40MOL   C30712865   7.664   1.696   5.865  1.0014  0.3494 -0.0497
   40MOL   C30812866   7.799   1.741   5.807  0.8010 -0.4214 -0.0283
   40MOL   O30912867   7.798   1.825   5.719 -0.4413  0.0359  0.0061
   40MOL   N31012868   0.064   1.692   5.858 -0.0378 -0.5484 -0.1980
   40MOL   C31112869   0.194   1.745   5.814  0.3753  0.2683 -0.0748
   40MOL   C31212870   0.075   1.603   5.975 -0.2310 -1.1019  0.4241
   40MOL   H31312871   7.522   1.789   5.717 -0.2535 -0.2980 -0.4762
   40MOL   H31412872   7.451   1.672   5.804 -0.2022  0.9257  0.6946
   40MOL   H31512873   7.631   1.778   5.929 -1.4270  0.6853 -1.6584
   40MOL   H31612874   0.186   1.750   5.705 -1.6107  2.2240  0.1256
   40MOL   H31712875   0.224   1.841   5.855  0.4317 -0.1613  0.9083
   40MOL   H31812876   0.281   1.679   5.826  0.9679  1.2272  0.9914
   40MOL   H31912877   0.031   1.504   5.961 -0.8130 -1.0467  1.7284
   40MOL   H32012878   0.014   1.641   6.058 -0.4700 -0.3779 -0.0796
   40MOL   H32112879   0.176   1.601   6.016 -0.0738 -0.3703  0.0720
   40MOL   H32212880   7.670   1.615   5.937  1.8517  0.6961  0.2848
   41MOL     C112881   3.901   6.573   6.210 -0.5489  0.1543  1.0785
   41MOL     C212882   3.927   6.454   6.112  0.3678  0.3221  0.1640
   41MOL     C312883   4.048   6.384   6.170 -0.5092  0.5593  0.3426
   41MOL     O412884   4.159   6.445   6.162 -0.0776  0.0042 -0.3444
   41MOL     N512885   4.044   6.254   6.221 -0.3191  0.1593  0.2991
   41MOL     C612886   4.165   6.182   6.259  0.0566 -0.2660 -0.9026
   41MOL     C712887   3.927   6.180   6.256 -0.3336  0.3219 -0.1333
   41MOL     H812888   3.985   6.626   6.256 -0.8045  1.9665 -0.5089
   41MOL     H912889   3.841   6.535   6.293 -0.5292  0.0938  1.0653
   41MOL    H1012890   3.838   6.392   6.125 -0.3860  1.0360 -1.4150
   41MOL    H1112891   4.150   6.075   6.270  0.8539 -0.3680 -0.7627
   41MOL    H1212892   4.241   6.200   6.182  2.2011  1.8484  1.5986
   41MOL    H1312893   4.196   6.231   6.351 -2.7383 -0.2361  0.0649
   41MOL    H1412894   3.856   6.174   6.173  1.2283  1.2177 -1.5811
   41MOL    H1512895   3.866   6.229   6.332 -0.1629 -0.3798  0.4606
   41MOL    H1612896   3.937   6.074   6.279  3.4164  1.2980  3.2500
   41MOL    H1712897   3.848   6.656   6.165 -3.3448 -2.9387 -1.6498
   41MOL    C1812898   3.941   6.487   5.964  0.3643 -0.6148  0.1792
   41MOL    C1912899   3.807   6.499   5.883 -0.6008 -0.3157 -0.2256
   41MOL    C2012900   3.745   6.354   5.880 -0.3669 -0.5204  0.4189
   41MOL    O2112901   3.812   6.262   5.832  0.2831  0.5292 -0.3890
   41MOL    N2212902   3.627   6.325   5.935  0.2923 -0.6271  0.1986
   41MOL    C2312903   3.562   6.201   5.897 -0.2791  0.5071 -0.1596
   41MOL    C2412904   3.553   6.402   6.028 -0.4518 -0.5782  0.2106
   41MOL    H2512905   3.995   6.581   5.961 -1.0843  0.2817  1.3158
   41MOL    H2612906   4.009   6.416   5.916  0.2415  0.7002 -1.9750
   41MOL    H2712907   3.736   6.557   5.942  0.1812  0.0852  0.3203
   41MOL    H2812908   3.628   6.120   5.928 -1.0542 -0.5723 -1.3147
   41MOL    H2912909   3.461   6.183   5.935 -1.0719 -0.9343 -2.8154
   41MOL    H3012910   3.558   6.190   5.789  0.0174  0.2884 -0.1475
   41MOL    H3112911   3.622   6.456   6.092  0.0626 -2.6694  1.4853
   41MOL    H3212912   3.492   6.339   6.093 -1.0032  1.6850  1.9411
   41MOL    H3312913   3.485   6.470   5.977  1.5260  0.7818 -0.6615
   41MOL    C3412914   3.831   6.540   5.731  0.9134  0.3344  0.9728
   41MOL    C3512915   3.828   6.694   5.704 -0.5837 -0.0126  0.2703
   41MOL    C3612916   3.700   6.767   5.758  0.1300  0.1430  0.0102
   41MOL    O3712917   3.594   6.702   5.752 -0.7323 -0.4651 -0.2324
   41MOL    N3812918   3.696   6.901   5.794  0.2730  0.0727 -0.8423
   41MOL    C3912919   3.816   6.978   5.830  0.0406  0.5660  0.7311
   41MOL    C4012920   3.569   6.979   5.813  0.3170 -0.2088  0.0454
   41MOL    H4112921   3.923   6.488   5.703  0.1727  0.0291 -0.9918
   41MOL    H4212922   3.745   6.503   5.675  1.0051 -2.3978  2.5909
   41MOL    H4312923   3.917   6.726   5.760 -0.1138 -0.3474 -0.2773
   41MOL    H4412924   3.810   7.086   5.815 -1.3751  0.6511  1.7367
   41MOL    H4512925   3.837   6.971   5.936  0.5896  3.9240  0.9013
   41MOL    H4612926   3.908   6.949   5.779 -0.5259  3.5173 -2.1282
   41MOL    H4712927   3.518   6.984   5.716 -1.5505 -0.8690  0.9594
   41MOL    H4812928   3.583   7.074   5.864 -1.0284 -0.3221  0.6426
   41MOL    H4912929   3.500   6.927   5.879  2.5907  0.0229  2.6816
   41MOL    C5012930   3.839   6.716   5.550  0.9644  0.0343  0.2109
   41MOL    C5112931   3.983   6.694   5.489 -0.1134  0.6644 -0.6062
   41MOL    C5212932   4.086   6.803   5.535 -0.1095 -0.2253  0.1163
   41MOL    O5312933   4.062   6.923   5.518 -0.1824  0.0401  0.3925
   41MOL    N5412934   4.203   6.764   5.591  0.1067 -0.2644 -0.6371
   41MOL    C5512935   4.251   6.627   5.622  0.3900 -0.3523  0.5060
   41MOL    C5612936   4.295   6.861   5.644  0.0330  0.4252  0.0413
   41MOL    H5712937   3.770   6.649   5.500  1.3187 -0.6868  0.6858
   41MOL    H5812938   3.805   6.813   5.513 -2.2786 -1.2685 -0.4037
   41MOL    H5912939   4.022   6.602   5.533  1.3032  1.0100 -1.1098
   41MOL    H6012940   4.243   6.578   5.525  0.2256  0.9836 -0.1567
   41MOL    H6112941   4.354   6.613   5.653  1.5568  0.3383 -2.8462
   41MOL    H6212942   4.191   6.567   5.690 -1.1927  0.9974  0.3441
   41MOL    H6312943   4.362   6.892   5.564  0.8788 -2.7307 -0.5486
   41MOL    H6412944   4.355   6.815   5.723  0.6148 -0.8057 -1.1066
   41MOL    H6512945   4.231   6.938   5.686 -0.2467  1.0252 -1.4536
   41MOL    C6612946   3.984   6.669   5.336  0.2308  0.1588  0.0505
   41MOL    C6712947   3.916   6.535   5.284  0.1510 -0.3052  0.1677
   41MOL    C6812948   3.979   6.402   5.344  0.0906  1.1015  0.1942
   41MOL    O6912949   4.101   6.388   5.339 -0.4800 -0.2418 -0.2783
   41MOL    N7012950   3.899   6.307   5.399 -0.0279 -0.2108 -0.1461
   41MOL    C7112951   3.961   6.187   5.457  0.4710  0.5181  0.3816
   41MOL    C7212952   3.751   6.319   5.413 -0.8650  0.1188 -0.0757
   41MOL    H7312953   3.934   6.751   5.285  0.3369 -0.4537 -1.0453
   41MOL    H7412954   4.089   6.674   5.307  0.5135  1.3676  1.2269
   41MOL    H7512955   3.810   6.543   5.309 -0.0572  0.2818 -0.8713
   41MOL    H7612956   3.896   6.101   5.439  1.3402  0.0463 -0.5401
   41MOL    H7712957   4.059   6.162   5.416 -0.3288 -2.6645  0.2524
   41MOL    H7812958   3.987   6.198   5.563  0.8618 -2.6791  0.6758
   41MOL    H7912959   3.709   6.232   5.463  0.2190  0.1470  0.9231
   41MOL    H8012960   3.719   6.320   5.309  2.1210 -0.3981 -1.0590
   41MOL    H8112961   3.714   6.411   5.456 -0.7814 -0.3693  1.0556
   41MOL    C8212962   3.915   6.527   5.131 -0.0278 -0.4383 -0.7126
   41MOL    C8312963   3.832   6.634   5.047  0.9883  0.4666 -0.0246
   41MOL    C8412964   3.680   6.616   5.074 -0.1412  0.6037 -0.2666
   41MOL    O8512965   3.628   6.514   5.031 -0.1497  0.1939  0.8452
   41MOL    N8612966   3.611   6.703   5.154  0.7257 -0.3816 -0.0535
   41MOL    C8712967   3.654   6.832   5.208 -0.1555  0.1543  0.2644
   41MOL    C8812968   3.474   6.663   5.199  0.7501 -0.2094 -0.4360
   41MOL    H8912969   4.019   6.534   5.099  0.3868  0.2124  0.7435
   41MOL    H9012970   3.882   6.429   5.098  1.1793 -1.7439  1.8247
   41MOL    H9112971   3.863   6.734   5.080  0.2779  1.2214 -1.6140
   41MOL    H9212972   3.659   6.906   5.129  2.5821 -0.9154 -0.6537
   41MOL    H9312973   3.577   6.864   5.278 -0.9659  0.6930 -0.8633
   41MOL    H9412974   3.750   6.820   5.259  0.2330 -1.2909 -0.7751
   41MOL    H9512975   3.415   6.623   5.117  0.4815  2.2325 -1.4831
   41MOL    H9612976   3.417   6.753   5.223  1.0932 -0.4642  1.4069
   41MOL    H9712977   3.485   6.603   5.289 -0.5262 -1.7060 -1.2572
   41MOL    C9812978   3.870   6.620   4.904 -0.4142 -0.4152  0.0909
   41MOL    C9912979   3.803   6.703   4.798  0.5974  0.3078  0.5645
   41MOL   C10012980   3.822   6.634   4.669  0.8411  0.3026 -0.2791
   41MOL   O10112981   3.914   6.663   4.592 -0.2147  0.4877 -0.0640
   41MOL   N10212982   3.733   6.543   4.629 -0.1215  0.4142 -0.0097
   41MOL   C10312983   3.595   6.534   4.684 -0.2058  0.5739  0.6867
   41MOL   C10412984   3.771   6.451   4.522  0.2211  0.2737  0.2501
   41MOL   H10512985   3.978   6.635   4.902 -0.4430  0.3155  2.5234
   41MOL   H10612986   3.862   6.516   4.874 -1.8874 -0.0038 -0.9764
   41MOL   H10712987   3.697   6.698   4.819  0.0999 -1.9868 -2.1755
   41MOL   H10812988   3.540   6.468   4.617  1.8176 -1.6579  1.1562
   41MOL   H10912989   3.594   6.482   4.780  0.2601  0.3083  0.5489
   41MOL   H11012990   3.531   6.622   4.696 -1.0588  0.3043 -1.7304
   41MOL   H11112991   3.739   6.350   4.547  2.4521 -1.0658 -1.9799
   41MOL   H11212992   3.878   6.443   4.503  0.5198  2.3022  0.9851
   41MOL   H11312993   3.717   6.485   4.433 -1.4509  1.5862  1.7411
   41MOL   C11412994   3.854   6.852   4.797 -0.2908 -0.6732 -0.4791
   41MOL   C11512995   3.764   6.965   4.745 -0.2532 -0.1771  0.1737
   41MOL   C11612996   3.647   6.997   4.839  0.6371 -0.1501  0.6171
   41MOL   O11712997   3.563   6.911   4.858 -0.2768 -0.4959 -0.1691
   41MOL   N11812998   3.638   7.120   4.893  0.2154  0.5285 -0.1369
   41MOL   C11912999   3.520   7.163   4.973 -0.7600  0.0242 -0.1662
   41MOL   C12013000   3.752   7.209   4.901  0.0017 -0.4430  0.2136
   41MOL   H12113001   3.878   6.884   4.899 -1.0796 -0.7367 -0.2696
   41MOL   H12213002   3.946   6.865   4.741 -0.1777 -0.8559 -0.3386
   41MOL   H12313003   3.822   7.057   4.741 -1.5234  0.6708  0.9028
   41MOL   H12413004   3.549   7.145   5.077 -1.0134 -1.0132 -0.2708
   41MOL   H12513005   3.510   7.271   4.980 -2.9081 -0.2826  1.7902
   41MOL   H12613006   3.424   7.124   4.940 -1.0394  1.6246 -1.2946
   41MOL   H12713007   3.839   7.162   4.947  2.3285  2.8247 -0.5894
   41MOL   H12813008   3.731   7.299   4.960 -1.2622  0.2016 -1.1995
   41MOL   H12913009   3.784   7.238   4.801  2.3908  0.2782  1.1483
   41MOL   C13013010   3.697   6.951   4.607  0.2531  0.0913  0.2455
   41MOL   C13113011   3.793   6.969   4.486 -0.2062 -0.2225  0.1166
   41MOL   C13213012   3.849   7.109   4.467 -0.3518  0.2757  0.6207
   41MOL   O13313013   3.765   7.201   4.464  0.9492 -0.7691 -0.1281
   41MOL   N13413014   3.978   7.138   4.442  0.1201  0.6728  0.2118
   41MOL   C13513015   4.102   7.067   4.481  0.1287 -0.1884 -0.0258
   41MOL   C13613016   4.012   7.286   4.421  0.0754  0.0834 -0.4142
   41MOL   H13713017   3.638   6.860   4.607 -2.0016  1.5218  1.4399
   41MOL   H13813018   3.612   7.019   4.606  1.2631  1.4043  1.7763
   41MOL   H13913019   3.873   6.899   4.507  0.1882  0.4643  0.9580
   41MOL   H14013020   4.129   7.110   4.577 -1.0159  1.9200 -0.6140
   41MOL   H14113021   4.084   6.960   4.467  0.3753 -0.3217  0.6732
   41MOL   H14213022   4.180   7.085   4.407  0.7105  0.0158  0.6387
   41MOL   H14313023   4.117   7.315   4.411  0.6084 -1.4706  0.3498
   41MOL   H14413024   3.963   7.357   4.487  1.2374  0.7394 -0.2450
   41MOL   H14513025   3.972   7.320   4.326 -0.4854 -1.7669 -0.8672
   41MOL   C14613026   3.721   6.924   4.354  0.0974  0.3933  0.1036
   41MOL   C14713027   3.811   6.888   4.230 -0.6149  0.4221  0.1912
   41MOL   C14813028   3.767   6.956   4.096 -0.6362  0.8127 -0.3114
   41MOL   O14913029   3.672   6.906   4.030 -0.3092 -0.6095 -0.4035
   41MOL   N15013030   3.830   7.062   4.042  0.4003 -0.3057  0.1774
   41MOL   C15113031   3.831   7.085   3.896 -0.2648  0.5554  0.6156
   41MOL   C15213032   3.907   7.152   4.126  0.2128  0.1685  0.4829
   41MOL   H15313033   3.659   6.839   4.381  1.5403 -0.7014  0.0245
   41MOL   H15413034   3.655   7.005   4.325  2.0548  1.8894 -0.3084
   41MOL   H15513035   3.906   6.926   4.265  0.8018 -1.1529 -1.8351
   41MOL   H15613036   3.844   7.190   3.870 -1.7035  0.3487 -0.9873
   41MOL   H15713037   3.903   7.023   3.844 -1.3484 -0.9432  0.8713
   41MOL   H15813038   3.742   7.046   3.847 -0.8117  0.6553  1.5113
   41MOL   H15913039   3.933   7.243   4.071 -1.2979 -0.5426 -1.4799
   41MOL   H16013040   3.995   7.105   4.169  0.2140 -0.5924 -0.3279
   41MOL   H16113041   3.836   7.183   4.203  1.9485  0.6251  1.9141
   41MOL   C16213042   3.821   6.735   4.221 -0.0250 -0.2657 -0.0226
   41MOL   C16313043   3.930   6.679   4.122 -0.1317  0.4351 -0.5528
   41MOL   C16413044   4.066   6.755   4.122  0.1358  0.4966  0.1657
   41MOL   O16513045   4.074   6.868   4.066  0.4518  0.6788  0.6649
   41MOL   N16613046   4.177   6.715   4.189  0.6488  0.6909 -1.1392
   41MOL   C16713047   4.186   6.593   4.271  0.2319 -0.0689  0.2712
   41MOL   C16813048   4.301   6.799   4.188 -0.0103  0.4213 -0.3126
   41MOL   H16913049   3.853   6.695   4.318  0.3569 -1.5211 -0.6576
   41MOL   H17013050   3.722   6.694   4.200  1.2171 -3.9145  0.7052
   41MOL   H17113051   3.953   6.582   4.165 -0.4619 -0.1631 -1.7147
   41MOL   H17213052   4.144   6.613   4.370  2.0003  0.5776  0.8996
   41MOL   H17313053   4.143   6.500   4.235 -0.7473  0.8066 -0.8710
   41MOL   H17413054   4.287   6.562   4.294  1.0150  0.9946 -1.6442
   41MOL   H17513055   4.332   6.804   4.083  1.8303 -0.3242  0.1753
   41MOL   H17613056   4.380   6.760   4.251 -1.6144  0.5853  1.8507
   41MOL   H17713057   4.292   6.906   4.209 -0.2886  0.1080  1.1814
   41MOL   C17813058   3.871   6.649   3.986  0.1695 -0.3854  0.7840
   41MOL   C17913059   3.934   6.532   3.908  0.1676 -0.6560  0.1367
   41MOL   C18013060   3.909   6.397   3.984 -0.0622 -0.0505  0.1227
   41MOL   O18113061   3.994   6.367   4.070  0.3807  0.2898 -0.3736
   41MOL   N18213062   3.818   6.308   3.938  0.2035 -0.1971  0.6455
   41MOL   C18313063   3.823   6.165   3.975 -0.1951  0.2984 -1.0562
   41MOL   C18413064   3.716   6.349   3.838  0.0277  1.1233 -0.9892
   41MOL   H18513065   3.766   6.623   3.992  0.1525 -0.4226  0.3409
   41MOL   H18613066   3.875   6.738   3.924 -0.8329 -0.5122  0.5240
   41MOL   H18713067   3.881   6.535   3.812 -0.9257  0.4854  0.7628
   41MOL   H18813068   3.792   6.145   4.078 -1.6878  3.4274 -0.8515
   41MOL   H18913069   3.771   6.098   3.907  0.4145  0.2804 -1.5109
   41MOL   H19013070   3.926   6.128   3.969  0.4632  1.4744  1.8228
   41MOL   H19113071   3.754   6.345   3.736 -0.5638  0.3783 -1.1857
   41MOL   H19213072   3.659   6.436   3.870  0.0150  0.7023  0.1610
   41MOL   H19313073   3.632   6.281   3.825 -1.3111  2.5927 -0.1641
   41MOL   C19413074   4.081   6.549   3.880 -0.2096 -0.3996  0.6310
   41MOL   C19513075   4.119   6.667   3.781  0.3429 -0.4719  0.3886
   41MOL   C19613076   4.068   6.626   3.640 -1.0784 -0.1310  0.8261
   41MOL   O19713077   4.122   6.533   3.588  0.0389  0.4155 -0.1890
   41MOL   N19813078   3.965   6.680   3.577  0.1585  0.3218  0.4132
   41MOL   C19913079   3.933   6.632   3.435 -0.2391  0.6730 -0.0528
   41MOL   C20013080   3.871   6.770   3.644  0.8672 -0.1508 -0.2668
   41MOL   H20113081   4.141   6.542   3.971  0.9654 -1.0753 -0.1771
   41MOL   H20213082   4.102   6.454   3.830 -0.2774  0.1479 -0.4493
   41MOL   H20313083   4.066   6.757   3.811 -0.3532 -1.1907  1.3436
   41MOL   H20413084   4.007   6.681   3.371  1.3116 -1.7386 -0.1898
   41MOL   H20513085   3.934   6.523   3.428  0.4219  0.5864  1.1643
   41MOL   H20613086   3.842   6.678   3.398 -1.1087 -0.9353  0.0174
   41MOL   H20713087   3.809   6.716   3.716  0.6814  2.0975  1.3146
   41MOL   H20813088   3.807   6.824   3.574  0.5739  3.1324  2.3886
   41MOL   H20913089   3.922   6.850   3.698 -0.3946  1.6710 -1.7331
   41MOL   C21013090   4.270   6.693   3.779 -0.6387 -0.6537 -0.1074
   41MOL   C21113091   4.310   6.808   3.681 -0.1263  0.3331  0.3864
   41MOL   C21213092   4.460   6.793   3.649  0.9509 -0.2918 -0.3900
   41MOL   O21313093   4.528   6.868   3.718  0.2466  0.7527  0.8299
   41MOL   N21413094   4.507   6.713   3.548 -0.5707 -0.0812 -0.0773
   41MOL   C21513095   4.425   6.622   3.472  0.2476 -0.1890 -0.2955
   41MOL   C21613096   4.651   6.704   3.511  0.5549  0.3984 -0.2920
   41MOL   H21713097   4.291   6.737   3.876 -2.0685 -1.4023  0.5631
   41MOL   H21813098   4.327   6.601   3.768  0.0599 -0.6224  2.7700
   41MOL   H21913099   4.255   6.781   3.591 -2.0404 -0.6530  1.8049
   41MOL   H22013100   4.357   6.563   3.534 -0.8249  0.5495 -0.7424
   41MOL   H22113101   4.363   6.658   3.389  2.5999  1.4118 -1.4341
   41MOL   H22213102   4.493   6.557   3.417  1.9611  0.8247  0.6066
   41MOL   H22313103   4.706   6.789   3.553  0.6441 -0.1833  0.7659
   41MOL   H22413104   4.657   6.710   3.402  0.5801 -2.0956 -0.4523
   41MOL   H22513105   4.695   6.610   3.543 -2.5623 -0.2849  2.1187
   41MOL   C22613106   4.263   6.947   3.729 -0.3436  0.4417 -0.2052
   41MOL   C22713107   4.247   7.051   3.610 -0.2587 -0.1191  0.3208
   41MOL   C22813108   4.244   7.189   3.669 -1.2662  0.3016  0.3996
   41MOL   O22913109   4.157   7.221   3.749  0.5249 -0.6165 -0.0557
   41MOL   N23013110   4.349   7.278   3.647 -0.1275  0.3469  0.1528
   41MOL   C23113111   4.478   7.237   3.589  0.2344 -0.1041 -0.4984
   41MOL   C23213112   4.361   7.414   3.715 -0.0643 -0.0072  0.1801
   41MOL   H23313113   4.165   6.944   3.777  0.3553 -1.3435  1.1371
   41MOL   H23413114   4.330   6.974   3.810 -1.0431  1.0873  0.1632
   41MOL   H23513115   4.321   7.037   3.530  0.3885 -1.8531  1.1824
   41MOL   H23613116   4.559   7.305   3.617 -0.1183  0.4322 -0.7564
   41MOL   H23713117   4.512   7.141   3.628  0.9048  0.5677  0.6043
   41MOL   H23813118   4.472   7.232   3.481  0.8667 -1.5665 -0.4764
   41MOL   H23913119   4.407   7.392   3.811  0.7046 -1.8933 -0.6117
   41MOL   H24013120   4.261   7.448   3.744 -0.0115  0.6667 -0.3978
   41MOL   H24113121   4.419   7.492   3.666 -1.5917  1.3563  0.4913
   41MOL   C24213122   4.115   7.021   3.535 -0.1967 -0.5447  0.6193
   41MOL   C24313123   4.076   7.077   3.389  0.1478 -0.0446  0.2478
   41MOL   C24413124   4.142   7.002   3.272 -0.8332 -0.5688 -0.2679
   41MOL   O24513125   4.263   7.006   3.257  0.8661  0.5902 -0.1950
   41MOL   N24613126   4.065   6.918   3.202 -0.5004  0.4282 -0.0468
   41MOL   C24713127   3.921   6.935   3.175 -1.2556 -0.3181 -0.2677
   41MOL   C24813128   4.133   6.819   3.117 -0.2516  0.3176  0.0084
   41MOL   H24913129   4.110   6.913   3.524  1.0248 -0.9559  3.7098
   41MOL   H25013130   4.027   7.041   3.597  0.3718  2.0830  0.6406
   41MOL   H25113131   3.969   7.063   3.377  0.2970 -1.1148  0.0975
   41MOL   H25213132   3.906   6.901   3.073 -2.1090 -0.7246 -0.0062
   41MOL   H25313133   3.845   6.892   3.240 -0.9849 -0.4784 -0.0552
   41MOL   H25413134   3.911   7.043   3.174 -0.6303 -0.2446  0.6563
   41MOL   H25513135   4.066   6.734   3.104  0.5617 -0.4998  1.0529
   41MOL   H25613136   4.219   6.773   3.166 -0.8312  0.0541  0.7974
   41MOL   H25713137   4.156   6.872   3.025 -0.2540  0.7094  0.2303
   41MOL   C25813138   4.088   7.228   3.375 -0.1255 -1.0622  0.2652
   41MOL   C25913139   3.996   7.321   3.452  0.7624  0.1688  0.1330
   41MOL   C26013140   3.844   7.296   3.430 -0.0976 -0.2636 -0.7468
   41MOL   O26113141   3.811   7.258   3.318 -0.2338  0.1024 -0.6150
   41MOL   N26213142   3.758   7.333   3.524  0.5199  0.0239 -0.2555
   41MOL   C26313143   3.790   7.342   3.667  0.1766  0.1586 -0.5499
   41MOL   C26413144   3.615   7.360   3.482 -0.0804 -0.3378 -0.5187
   41MOL   H26513145   4.188   7.259   3.404 -0.7390  1.0330  0.2472
   41MOL   H26613146   4.092   7.254   3.269  3.0516 -0.7675  0.4252
   41MOL   H26713147   4.015   7.290   3.555  0.3900 -0.8597 -0.1067
   41MOL   H26813148   3.848   7.433   3.682  1.5293 -1.1606  2.4754
   41MOL   H26913149   3.697   7.343   3.724 -1.2018 -0.1303 -2.7136
   41MOL   H27013150   3.844   7.249   3.683 -1.1312 -0.7372 -1.2536
   41MOL   H27113151   3.575   7.416   3.566  0.6132  0.3593 -0.6492
   41MOL   H27213152   3.553   7.273   3.457  0.1988 -0.3290 -1.2512
   41MOL   H27313153   3.634   7.426   3.397 -0.1078  0.8631  0.3976
   41MOL   C27413154   4.032   7.479   3.432  0.1604  0.4886  0.2240
   41MOL   C27513155   4.042   7.530   3.286 -0.2873 -0.1702  0.4010
   41MOL   C27613156   4.188   7.509   3.231  0.2858  0.1258 -0.5406
   41MOL   O27713157   4.281   7.553   3.300 -0.4988  0.4620 -0.4896
   41MOL   N27813158   4.214   7.447   3.109  0.4743 -0.7013 -0.2531
   41MOL   C27913159   4.118   7.409   3.006  0.0623  0.2063  0.8682
   41MOL   C28013160   4.350   7.426   3.064 -1.0107  0.0844 -0.0605
   41MOL   H28113161   3.952   7.536   3.480  0.7351  0.9069  0.6887
   41MOL   H28213162   4.126   7.500   3.482  1.0905  0.6793 -1.5724
   41MOL   H28313163   3.966   7.484   3.223 -0.8952 -0.3906  1.3016
   41MOL   H28413164   4.155   7.357   2.918 -2.2565  1.1548 -0.7327
   41MOL   H28513165   4.042   7.343   3.047 -1.0390  2.3954  2.4666
   41MOL   H28613166   4.060   7.496   2.972  0.1651  0.0946  0.4091
   41MOL   H28713167   4.419   7.497   3.110 -1.1327  0.3238 -0.2486
   41MOL   H28813168   4.351   7.427   2.955 -2.5229 -2.5291 -0.1345
   41MOL   H28913169   4.365   7.325   3.101  0.2194  1.0740  2.2440
   41MOL   C29013170   4.013   7.678   3.292 -0.4585  0.0053 -0.2567
   41MOL   C29113171   4.016   7.751   3.152 -0.2229 -0.0020  0.5780
   41MOL   C29213172   4.029   0.046   3.175 -0.9067  0.5946 -0.6544
   41MOL   O29313173   3.935   0.105   3.223 -0.0746  0.1127 -0.0664
   41MOL   N29413174   4.144   0.105   3.142  0.4367 -0.5863 -0.0267
   41MOL   C29513175   4.148   0.251   3.127 -0.3761 -0.3461  0.4766
   41MOL   C29613176   4.275   0.029   3.147 -0.0053 -0.0068  0.2722
   41MOL   H29713177   3.914   7.687   3.337  0.1943  0.8282  1.0529
   41MOL   H29813178   4.081   7.719   3.366 -0.0744  1.7544 -1.5621
   41MOL   H29913179   4.096   7.707   3.092  1.7095  1.2521  2.1658
   41MOL   H30013180   4.199   0.297   3.211 -1.6527 -1.7578  2.0427
   41MOL   H30113181   4.195   0.283   3.034 -1.8060  0.9154  0.1625
   41MOL   H30213182   4.048   0.295   3.130 -0.3402 -0.3438  1.5998
   41MOL   H30313183   4.274   7.818   3.059  3.3205 -2.0105  1.5983
   41MOL   H30413184   4.281   7.811   3.228 -0.4446 -1.4745 -0.9690
   41MOL   H30513185   4.364   0.092   3.145  0.2733 -0.4222 -0.6901
   41MOL   C30613186   3.888   7.718   3.073 -0.4205  0.2227 -0.2663
   41MOL   C30713187   3.892   7.749   2.926  0.9768  0.2388  0.3377
   41MOL   C30813188   3.760   7.717   2.856  0.1975 -0.5390 -1.2713
   41MOL   O30913189   3.670   7.664   2.923  0.6129 -0.1848 -0.1406
   41MOL   N31013190   3.745   7.743   2.723 -0.4064  1.0844 -0.9006
   41MOL   C31113191   3.859   7.758   2.629 -0.1015 -0.3702 -0.4928
   41MOL   C31213192   3.608   7.740   2.659  0.0060 -0.0379  0.1216
   41MOL   H31313193   3.852   7.616   3.090 -2.1885  0.4882 -2.3486
   41MOL   H31413194   3.802   7.772   3.111 -1.0511 -1.7749  1.2577
   41MOL   H31513195   3.923   7.850   2.899  0.2681 -0.1683 -2.1167
   41MOL   H31613196   3.831   7.791   2.529 -1.1511  1.5409  0.3874
   41MOL   H31713197   3.940   7.825   2.658  0.4459 -1.4265  0.4322
   41MOL   H31813198   3.895   7.656   2.626 -0.6628 -0.6065  0.4396
   41MOL   H31913199   3.534   7.708   2.732 -1.1131 -1.7515 -1.6882
   41MOL   H32013200   3.614   7.672   2.574 -2.7721 -0.8761  0.5430
   41MOL   H32113201   3.580   7.841   2.630  0.7314 -0.0924 -0.8020
   41MOL   H32213202   3.966   7.690   2.872  0.5032 -0.2668  0.2357
   42MOL     C113203   6.969   7.754   2.411 -0.4034 -0.5957 -0.6679
   42MOL     C213204   6.831   7.740   2.477  0.2913 -0.2143  0.2638
   42MOL     C313205   6.722   7.778   2.373 -0.0622  0.7118 -0.2913
   42MOL     O413206   6.694   0.042   2.355 -0.2580  0.0773 -0.2369
   42MOL     N513207   6.645   7.677   2.317 -0.0872  0.4173 -0.4593
   42MOL     C613208   6.522   7.713   2.249 -0.5325 -0.4255 -0.0405
   42MOL     C713209   6.690   7.537   2.301 -0.2848  0.0649  0.1437
   42MOL     H813210   6.964   7.729   2.305  0.2671 -1.8283 -0.4198
   42MOL     H913211   7.048   7.700   2.462  0.5042  0.6534 -0.7313
   42MOL    H1013212   6.809   7.636   2.502 -1.2920 -0.1412 -0.7372
   42MOL    H1113213   6.440   7.719   2.320 -0.0732 -2.9103  0.7488
   42MOL    H1213214   6.513   7.811   2.203  0.0070  0.1434  1.0496
   42MOL    H1313215   6.495   7.633   2.179  0.8079 -0.2677 -0.7530
   42MOL    H1413216   6.712   7.479   2.391 -0.7620  1.7057  1.3393
   42MOL    H1513217   6.785   7.522   2.250 -1.0809 -2.0345 -0.7855
   42MOL    H1613218   6.629   7.468   2.243  0.0124  0.6710 -0.8996
   42MOL    H1713219   7.010   0.001   2.424 -0.2557 -0.8633  1.0685
   42MOL    C1813220   6.809   7.829   2.605  0.0397 -0.6972  0.3893
   42MOL    C1913221   6.689   7.820   2.705  0.1173 -0.5297  0.4029
   42MOL    C2013222   6.665   7.678   2.753 -0.3931 -0.0355 -0.3061
   42MOL    O2113223   6.634   7.593   2.669  0.0548  0.4878  0.0193
   42MOL    N2213224   6.659   7.654   2.886 -0.3195  0.4633 -0.2875
   42MOL    C2313225   6.627   7.521   2.934 -0.4736  0.4309  0.6934
   42MOL    C2413226   6.713   7.747   2.987 -0.4055 -0.7221 -0.4132
   42MOL    H2513227   6.902   7.829   2.662  0.0254 -0.8482  0.4117
   42MOL    H2613228   6.806   0.076   2.562 -2.1255  0.5612  3.3884
   42MOL    H2713229   6.717   0.035   2.785 -3.0087  0.7873  0.4821
   42MOL    H2813230   6.705   7.450   2.908 -0.9236 -0.0256  0.5754
   42MOL    H2913231   6.604   7.516   3.040 -3.1682  0.3509  0.1468
   42MOL    H3013232   6.538   7.491   2.878  0.8669  1.3718 -2.0259
   42MOL    H3113233   6.691   7.713   3.088 -1.7319 -4.3299 -1.8539
   42MOL    H3213234   6.666   7.845   2.988  1.9071  0.4313  0.4259
   42MOL    H3313235   6.822   7.756   2.986 -0.5903  1.6604 -1.2068
   42MOL    C3413236   6.556   0.027   2.645 -0.7991 -0.6669  0.4927
   42MOL    C3513237   6.452   0.084   2.746 -0.3051  0.9206 -0.3734
   42MOL    C3613238   6.371   7.824   2.814 -0.4701  0.0223 -0.4253
   42MOL    O3713239   6.328   7.734   2.740  0.0463 -0.3576 -0.1297
   42MOL    N3813240   6.335   7.829   2.947 -0.5730 -0.4653 -0.1989
   42MOL    C3913241   6.363   0.082   3.045 -0.2162  0.4714  0.7584
   42MOL    C4013242   6.232   7.734   2.998  0.2332 -0.1508 -1.5381
   42MOL    H4113243   6.590   0.101   2.573 -0.2518 -0.3299  1.0940
   42MOL    H4213244   6.495   7.804   2.595 -1.4830  1.2828 -1.7337
   42MOL    H4313245   6.506   0.146   2.818 -0.9643  0.9091  0.1333
   42MOL    H4413246   6.356   0.186   3.012 -0.2697 -0.6406 -2.9690
   42MOL    H4513247   6.295   0.072   3.130 -1.2924  0.6804 -0.0621
   42MOL    H4613248   6.465   0.070   3.082 -0.3683  0.5655  1.2123
   42MOL    H4713249   6.262   7.637   2.957  0.0361 -1.9304  2.2720
   42MOL    H4813250   6.130   7.765   2.980  0.7632  1.1409 -2.3729
   42MOL    H4913251   6.246   7.708   3.103 -2.0724  3.5219 -0.2649
   42MOL    C5013252   6.353   0.179   2.671 -0.3500 -0.2329  0.1100
   42MOL    C5113253   6.413   0.301   2.589  0.3128  0.2608 -0.1514
   42MOL    C5213254   6.476   0.407   2.681  0.0516  0.4106 -0.3994
   42MOL    O5313255   6.420   0.428   2.790 -0.1909 -0.5050  0.3775
   42MOL    N5413256   6.590   0.475   2.645 -0.0483 -0.2783  0.2937
   42MOL    C5513257   6.620   0.607   2.708  0.5337  0.6532  1.0510
   42MOL    C5613258   6.691   0.421   2.559 -0.0738  1.0259 -0.5282
   42MOL    H5713259   6.296   0.118   2.601  0.7550 -2.4604  1.1061
   42MOL    H5813260   6.278   0.215   2.742  1.2459 -1.7628  2.6843
   42MOL    H5913261   6.479   0.266   2.509  2.7410  1.3458  1.3305
   42MOL    H6013262   6.707   0.649   2.658  0.2323 -0.4734 -0.4618
   42MOL    H6113263   6.536   0.677   2.713 -2.1929 -2.3927 -0.2626
   42MOL    H6213264   6.645   0.590   2.812  1.0116 -2.1601  0.5012
   42MOL    H6313265   6.666   0.458   2.460 -2.0361  0.2751 -0.3190
   42MOL    H6413266   6.691   0.314   2.539 -0.4609  0.5230  1.9069
   42MOL    H6513267   6.791   0.454   2.589 -0.0469  0.5161 -0.0431
   42MOL    C6613268   6.292   0.355   2.506 -0.5258 -0.4434 -0.4239
   42MOL    C6713269   6.326   0.472   2.413  0.6855 -0.2875  0.6379
   42MOL    C6813270   6.192   0.554   2.400  0.2262 -0.8848  0.4690
   42MOL    O6913271   6.093   0.496   2.354 -0.0807  0.9066  0.8612
   42MOL    N7013272   6.184   0.688   2.431 -0.2144 -0.1223 -0.9108
   42MOL    C7113273   6.282   0.778   2.491 -0.0309 -0.4706  0.6540
   42MOL    C7213274   6.048   0.748   2.433  0.3293  0.3490  0.3743
   42MOL    H7313275   6.241   0.271   2.458  0.0533 -1.4704  0.7399
   42MOL    H7413276   6.211   0.387   2.571 -1.4848  0.2616 -1.9263
   42MOL    H7513277   6.392   0.540   2.467  0.6172 -0.1011  0.4846
   42MOL    H7613278   6.255   0.883   2.481 -1.4901 -0.8212  0.8244
   42MOL    H7713279   6.281   0.760   2.598 -2.2709 -2.3266  0.3655
   42MOL    H7813280   6.386   0.769   2.459 -0.6675 -0.5842 -1.4531
   42MOL    H7913281   6.056   0.856   2.450  1.8189  0.0957  1.3870
   42MOL    H8013282   5.975   0.715   2.507  1.8661 -0.5341  1.5418
   42MOL    H8113283   5.986   0.735   2.345 -1.1648  2.0479  1.1506
   42MOL    C8213284   6.385   0.421   2.287 -0.1677 -1.0358 -0.5378
   42MOL    C8313285   6.433   0.525   2.182  0.4020 -0.7523  0.0317
   42MOL    C8413286   6.435   0.466   2.042 -0.5791  0.3683  0.7500
   42MOL    O8513287   6.509   0.372   2.019  0.1268 -0.2731  0.4291
   42MOL    N8613288   6.363   0.516   1.941  0.4771  0.8921 -0.3949
   42MOL    C8713289   6.264   0.618   1.953 -0.0350 -0.5201  0.1320
   42MOL    C8813290   6.389   0.471   1.801 -0.0928  0.3640  0.6909
   42MOL    H8913291   6.467   0.353   2.310  0.7028  0.1521 -0.0735
   42MOL    H9013292   6.297   0.378   2.241  0.6829 -3.0351 -0.3452
   42MOL    H9113293   6.368   0.613   2.189  0.1164 -0.9675  0.0735
   42MOL    H9213294   6.308   0.717   1.969 -0.6464 -0.2628  0.2756
   42MOL    H9313295   6.193   0.611   1.871 -0.9296  0.0139  0.8409
   42MOL    H9413296   6.201   0.599   2.040 -0.0273  0.1456  0.2900
   42MOL    H9513297   6.317   0.393   1.777  0.3689 -0.2853  1.4242
   42MOL    H9613298   6.491   0.438   1.784 -0.8421 -2.0559  0.6931
   42MOL    H9713299   6.377   0.555   1.732 -1.6291 -0.8142 -0.4912
   42MOL    C9813300   6.573   0.576   2.206  0.4785  0.3356  0.6636
   42MOL    C9913301   6.609   0.699   2.122 -0.2587 -0.2805 -0.5481
   42MOL   C10013302   6.754   0.720   2.122 -0.2392 -0.0741 -0.1187
   42MOL   O10113303   6.803   0.772   2.221  0.8431 -0.0417 -0.6809
   42MOL   N10213304   6.832   0.680   2.017  0.2051  0.2854 -0.7333
   42MOL   C10313305   6.782   0.578   1.925 -0.0755 -0.7817  0.2396
   42MOL   C10413306   6.964   0.726   1.992 -0.1959  0.4380 -0.1547
   42MOL   H10513307   6.576   0.613   2.309 -1.5198 -0.9396  1.2163
   42MOL   H10613308   6.648   0.498   2.206  0.5339  0.3891  0.6603
   42MOL   H10713309   6.582   0.688   2.017  1.5679  1.1594 -1.1904
   42MOL   H10813310   6.854   0.543   1.850 -0.9592 -1.1971 -0.4259
   42MOL   H10913311   6.736   0.496   1.980  1.1433 -0.1458  2.2320
   42MOL   H11013312   6.703   0.613   1.858  0.7183 -3.3556 -2.1521
   42MOL   H11113313   6.983   0.804   2.067 -0.5598  0.3982 -0.0231
   42MOL   H11213314   6.957   0.765   1.891  0.1506 -0.7095 -0.6219
   42MOL   H11313315   7.038   0.646   1.993 -1.0852 -0.3920  0.9517
   42MOL   C11413316   6.533   0.826   2.178 -0.5207 -0.4394 -0.3677
   42MOL   C11513317   6.546   0.959   2.101  0.5605 -0.9508  0.0418
   42MOL   C11613318   6.476   1.069   2.185 -0.7539  0.2965 -0.0996
   42MOL   O11713319   6.355   1.067   2.181 -0.2227  0.3516 -0.0474
   42MOL   N11813320   6.549   1.158   2.248  0.2598 -0.2554  0.2067
   42MOL   C11913321   6.687   1.142   2.277 -0.0973  0.3617  0.1527
   42MOL   C12013322   6.485   1.262   2.327  0.6977  0.5186 -0.0889
   42MOL   H12113323   6.426   0.805   2.187 -0.6639  1.1284  2.0172
   42MOL   H12213324   6.567   0.830   2.281 -1.9301  1.7443  0.0372
   42MOL   H12313325   6.651   0.981   2.080 -0.4904  3.0644 -1.3983
   42MOL   H12413326   6.729   1.196   2.361 -1.2052 -0.0194  0.9538
   42MOL   H12513327   6.700   1.038   2.306  0.6326  0.4791  0.2786
   42MOL   H12613328   6.755   1.163   2.194 -0.3991  3.8249  0.7183
   42MOL   H12713329   6.434   1.335   2.265  1.9207  1.9684  0.5699
   42MOL   H12813330   6.558   1.311   2.392  2.9352 -1.9040 -0.6616
   42MOL   H12913331   6.413   1.215   2.393 -0.5306 -0.0985 -1.8468
   42MOL   C13013332   6.485   0.949   1.962  0.8422  0.1895 -0.5051
   42MOL   C13113333   6.522   1.064   1.867  0.2985  0.5123  0.2686
   42MOL   C13213334   6.440   1.195   1.877 -0.6879  0.9393 -0.5639
   42MOL   O13313335   6.323   1.182   1.833 -0.7633 -0.5244  0.1255
   42MOL   N13413336   6.490   1.313   1.913 -0.2011 -0.2982  0.2464
   42MOL   C13513337   6.617   1.343   1.973  0.0963 -0.3458  0.1556
   42MOL   C13613338   6.424   1.437   1.861 -1.4977 -1.0290 -0.1633
   42MOL   H13713339   6.511   0.855   1.913  0.1240 -1.2019  1.7075
   42MOL   H13813340   6.377   0.937   1.961  0.9975 -1.3475 -0.6504
   42MOL   H13913341   6.619   1.092   1.909  2.5003 -0.6252 -3.7330
   42MOL   H14013342   6.677   1.405   1.906  0.0696  1.1732  1.5006
   42MOL   H14113343   6.616   1.396   2.068 -0.6330  1.2490 -0.7252
   42MOL   H14213344   6.676   1.253   1.987 -2.0889 -1.5361  1.9316
   42MOL   H14313345   6.456   1.533   1.904  1.5044 -2.2903  0.5642
   42MOL   H14413346   6.316   1.435   1.850 -1.5215 -0.7688  0.0070
   42MOL   H14513347   6.453   1.454   1.757  0.2765  2.9327  0.8681
   42MOL   C14613348   6.553   1.021   1.721  0.0200 -0.0517 -0.2653
   42MOL   C14713349   6.442   1.004   1.616  0.4902  0.2281 -0.3615
   42MOL   C14813350   6.348   0.891   1.647 -0.2271  0.2732 -0.2592
   42MOL   O14913351   6.392   0.785   1.681 -0.2701 -0.3760  0.2238
   42MOL   N15013352   6.210   0.902   1.623 -0.2674  0.2885  0.0594
   42MOL   C15113353   6.138   1.024   1.579 -0.1092  0.0314  0.2549
   42MOL   C15213354   6.127   0.782   1.634  0.0803 -0.4754  0.4503
   42MOL   H15313355   6.611   1.107   1.686  3.9145 -1.8244  1.5192
   42MOL   H15413356   6.627   0.941   1.719  1.5508  1.3028  0.6039
   42MOL   H15513357   6.389   1.100   1.615  0.3018  0.1589  1.1153
   42MOL   H15613358   6.030   1.021   1.595 -0.3236 -0.9203 -1.2205
   42MOL   H15713359   6.175   1.113   1.630  0.7376  1.1878 -2.2855
   42MOL   H15813360   6.151   1.038   1.471  0.3628  0.0177  0.3085
   42MOL   H15913361   6.100   0.763   1.738 -1.0776  0.8421  0.4001
   42MOL   H16013362   6.163   0.695   1.580 -0.7236  0.5270 -1.7256
   42MOL   H16113363   6.031   0.805   1.587 -0.1226  1.3352  1.6861
   42MOL   C16213364   6.513   0.991   1.475 -0.4830 -0.1666  0.3475
   42MOL   C16313365   6.563   0.852   1.416 -0.1691  0.6757  0.5552
   42MOL   C16413366   6.707   0.818   1.480  0.5033  0.5129  0.2123
   42MOL   O16513367   6.785   0.912   1.506  0.0852  0.5529  0.3585
   42MOL   N16613368   6.741   0.691   1.511 -0.5568  1.0996  0.2393
   42MOL   C16713369   6.848   0.668   1.602  0.2902  0.8623 -0.3312
   42MOL   C16813370   6.661   0.575   1.484 -0.9329 -0.3546  0.1750
   42MOL   H16913371   6.440   1.030   1.404 -1.4303 -1.5566  0.5321
   42MOL   H17013372   6.592   1.066   1.466 -0.3435 -0.4138 -0.6315
   42MOL   H17113373   6.493   0.771   1.437 -0.7592  0.4403 -2.1663
   42MOL   H17213374   6.945   0.678   1.552 -0.3278  0.7864 -1.5701
   42MOL   H17313375   6.871   0.739   1.681 -0.5247 -0.1410  0.8270
   42MOL   H17413376   6.842   0.564   1.635  2.5849  0.1464 -1.9990
   42MOL   H17513377   6.591   0.585   1.402 -2.3232 -2.2988  1.0961
   42MOL   H17613378   6.599   0.558   1.572 -0.4383  1.3974  0.8876
   42MOL   H17713379   6.725   0.491   1.457  0.2152 -0.0801  1.9297
   42MOL   C17813380   6.604   0.864   1.267  0.2371  0.7382 -0.1623
   42MOL   C17913381   6.494   0.877   1.161 -0.3956 -0.0276  0.0902
   42MOL   C18013382   6.396   0.762   1.192 -0.4730  0.5656 -0.0118
   42MOL   O18113383   6.442   0.648   1.196 -0.0375  0.3053  0.0204
   42MOL   N18213384   6.260   0.782   1.212 -0.1648 -0.5328 -0.1401
   42MOL   C18313385   6.207   0.915   1.195  0.4472 -0.2547 -0.0442
   42MOL   C18413386   6.166   0.671   1.242  0.4201  0.3006 -0.0119
   42MOL   H18513387   6.681   0.940   1.257  0.1752  0.5097 -2.6225
   42MOL   H18613388   6.660   0.775   1.236 -1.7622 -1.2315  1.6484
   42MOL   H18713389   6.454   0.976   1.186 -0.1813 -0.2966  1.5918
   42MOL   H18813390   6.100   0.931   1.206  0.7399  1.1110  0.9321
   42MOL   H18913391   6.260   0.981   1.263 -1.2188 -1.5068  2.5144
   42MOL   H19013392   6.234   0.940   1.092  1.9175  2.2606  0.9111
   42MOL   H19113393   6.210   0.572   1.232 -0.1965  0.2440 -2.3083
   42MOL   H19213394   6.076   0.673   1.181 -0.9733  1.0308  2.0277
   42MOL   H19313395   6.142   0.674   1.348 -0.2566 -0.9631 -0.1257
   42MOL   C19413396   6.535   0.879   1.015  0.2112 -0.6513  0.5022
   42MOL   C19513397   6.564   0.748   0.931 -1.0722  0.8755  0.1402
   42MOL   C19613398   6.688   0.677   0.989 -1.2416  0.2122 -0.1161
   42MOL   O19713399   6.782   0.748   1.016 -0.3788 -0.3218 -0.3885
   42MOL   N19813400   6.682   0.545   1.019 -0.7759 -0.7470 -0.2901
   42MOL   C19913401   6.799   0.474   1.071 -0.4931 -0.1259  0.4100
   42MOL   C20013402   6.581   0.448   0.962  0.8308 -0.2047  0.4538
   42MOL   H20113403   6.470   0.945   0.957  1.5858  0.4508  0.1731
   42MOL   H20213404   6.623   0.943   1.018 -0.0445 -0.2957  0.4602
   42MOL   H20313405   6.479   0.683   0.908  0.9469 -0.7410 -3.2298
   42MOL   H20413406   6.891   0.494   1.016 -0.7056  0.3482  0.2237
   42MOL   H20513407   6.814   0.500   1.176 -0.2156 -1.0728  0.6070
   42MOL   H20613408   6.789   0.366   1.076 -2.4875 -0.0646 -1.4151
   42MOL   H20713409   6.576   0.448   0.853 -1.0439  1.0448  0.5164
   42MOL   H20813410   6.481   0.474   0.995  0.0940 -0.7936 -1.2215
   42MOL   H20913411   6.610   0.346   0.990 -2.4458 -0.9532  1.3852
   42MOL   C21013412   6.594   0.805   0.787  0.4911 -0.1826  0.5422
   42MOL   C21113413   6.564   0.713   0.660  0.4707 -0.7447 -0.1279
   42MOL   C21213414   6.693   0.702   0.573  0.9695 -0.0080  0.5481
   42MOL   O21313415   6.759   0.805   0.557 -0.1865  0.4656  0.1758
   42MOL   N21413416   6.727   0.581   0.517  0.8025 -0.2191  0.1238
   42MOL   C21513417   6.843   0.574   0.429  0.0413  0.3092 -0.2902
   42MOL   C21613418   6.642   0.458   0.522 -0.4349 -0.7100  0.3083
   42MOL   H21713419   6.539   0.898   0.775  1.0852 -0.2566 -3.5535
   42MOL   H21813420   6.697   0.842   0.792 -0.1332  1.4860  1.5250
   42MOL   H21913421   6.553   0.612   0.699  0.6954 -0.2271  1.2955
   42MOL   H22013422   6.885   0.475   0.415  0.3595 -0.1523  3.4458
   42MOL   H22113423   6.804   0.609   0.333  0.8050  1.1028 -0.3199
   42MOL   H22213424   6.924   0.636   0.468 -3.0830  3.1504  2.0181
   42MOL   H22313425   6.548   0.476   0.471 -0.8776  0.3870  1.4644
   42MOL   H22413426   6.623   0.427   0.625  0.5922 -3.4357 -0.2864
   42MOL   H22513427   6.695   0.379   0.469 -0.2034 -1.1609  1.2067
   42MOL   C22613428   6.445   0.746   0.571  0.0240 -0.1886  0.6546
   42MOL   C22713429   6.299   0.730   0.630  0.2911 -0.5273  0.3554
   42MOL   C22813430   6.268   0.586   0.667 -0.4980 -0.3743 -0.8211
   42MOL   O22913431   6.323   0.489   0.604  0.0469  0.3227  0.3196
   42MOL   N23013432   6.180   0.566   0.767  0.5330 -0.0461  0.2160
   42MOL   C23113433   6.073   0.657   0.825 -0.5331  0.0572  0.3966
   42MOL   C23213434   6.195   0.440   0.847  0.1855 -0.5018 -0.1228
   42MOL   H23313435   6.465   0.852   0.562 -2.2096  0.2673  0.8493
   42MOL   H23413436   6.452   0.698   0.473  2.1182 -0.6830  1.0074
   42MOL   H23513437   6.298   0.786   0.723  0.4087 -0.5055  0.3426
   42MOL   H23613438   6.115   0.754   0.852  0.0761  0.1056 -0.7036
   42MOL   H23713439   5.992   0.669   0.753  2.7687  0.2457 -3.4640
   42MOL   H23813440   6.042   0.630   0.926  0.1797  2.2174  1.2095
   42MOL   H23913441   6.193   0.351   0.784 -0.8578 -0.6970  0.1650
   42MOL   H24013442   6.126   0.434   0.932  1.2868 -0.7628  0.7603
   42MOL   H24113443   6.293   0.448   0.892  0.0946 -1.0806  0.1890
   42MOL   C24213444   6.188   0.781   0.546  0.0798  0.3411 -0.1399
   42MOL   C24313445   6.185   0.938   0.540  0.1307  0.3904  0.0506
   42MOL   C24413446   6.112   0.990   0.669 -0.8470  0.6635  0.7087
   42MOL   O24513447   6.000   0.946   0.694  0.1404  0.0472 -0.2124
   42MOL   N24613448   6.164   1.077   0.759  0.3041 -0.3797 -0.6987
   42MOL   C24713449   6.102   1.126   0.881  0.3213  0.2474  0.1337
   42MOL   C24813450   6.302   1.126   0.749 -0.3517 -0.0009 -0.2762
   42MOL   H24913451   6.185   0.752   0.441  0.7777  0.4804 -0.2045
   42MOL   H25013452   6.091   0.748   0.582  0.2699 -0.5106 -0.4000
   42MOL   H25113453   6.291   0.962   0.545  0.1091  0.3976  0.5080
   42MOL   H25213454   6.001   1.087   0.898  0.4372  0.3498  1.0357
   42MOL   H25313455   6.160   1.110   0.971 -1.4181  2.2569  1.6378
   42MOL   H25413456   6.095   1.233   0.867  1.7066  0.3807  0.4630
   42MOL   H25513457   6.372   1.043   0.746 -0.7730 -0.3243 -1.3044
   42MOL   H25613458   6.327   1.194   0.831  1.8342 -0.5049 -0.4934
   42MOL   H25713459   6.326   1.182   0.658  1.1858 -2.4610 -1.4162
   42MOL   C25813460   6.128   1.007   0.409  0.3663 -0.0465 -0.1541
   42MOL   C25913461   6.228   1.009   0.284 -0.4090 -0.2696  0.9120
   42MOL   C26013462   6.361   1.080   0.327 -0.5167  0.3927 -0.3249
   42MOL   O26113463   6.344   1.182   0.399 -0.6833  0.4078 -0.1287
   42MOL   N26213464   6.482   1.033   0.306  0.3501 -0.4177  0.2596
   42MOL   C26313465   6.597   1.104   0.348 -1.0159  0.2807  0.2425
   42MOL   C26413466   6.501   0.910   0.234  0.0380 -0.6003 -0.3379
   42MOL   H26513467   6.026   0.975   0.390 -0.2525  1.7149  0.1232
   42MOL   H26613468   6.107   1.111   0.430 -0.3044 -0.3333  0.6005
   42MOL   H26713469   6.257   0.912   0.242 -1.3157 -0.2549  0.2228
   42MOL   H26813470   6.586   1.212   0.357  2.8495  0.7487 -0.0087
   42MOL   H26913471   6.632   1.073   0.446  0.1814  1.0676  0.0702
   42MOL   H27013472   6.678   1.091   0.276 -0.7222 -0.1401  0.6532
   42MOL   H27113473   6.449   0.827   0.282 -1.7207  1.2736  1.1270
   42MOL   H27213474   6.605   0.883   0.222  0.3420  0.6627 -0.6626
   42MOL   H27313475   6.470   0.926   0.131  0.5587 -0.6917 -0.5077
   42MOL   C27413476   6.168   1.099   0.174  0.3605 -0.3139  1.1939
   42MOL   C27513477   6.035   1.052   0.113 -0.0850  0.4357  0.3433
   42MOL   C27613478   6.061   0.941   0.013 -0.6909 -0.8972 -0.4512
   42MOL   O27713479   6.120   0.974   7.761  0.3548  0.4809 -0.3713
   42MOL   N27813480   6.031   0.814   0.044 -0.2252 -0.7287  0.7021
   42MOL   C27913481   6.081   0.711   7.808  0.5345  0.4489 -0.1054
   42MOL   C28013482   5.946   0.767   0.157  0.5585 -0.0677  0.0338
   42MOL   H28113483   6.158   1.199   0.218  1.1747  0.2563  0.0922
   42MOL   H28213484   6.241   1.103   0.094 -1.1535 -2.5165 -0.3787
   42MOL   H28313485   5.963   1.019   0.187 -0.8655 -0.2244 -0.7050
   42MOL   H28413486   6.048   0.714   7.704 -0.1444  2.4140  0.1454
   42MOL   H28513487   6.189   0.707   7.794  0.3225  0.7509 -1.9506
   42MOL   H28613488   6.052   0.615   7.851  0.1234  2.2190  3.7643
   42MOL   H28713489   5.852   0.821   0.162  1.0110  0.6800  0.4377
   42MOL   H28813490   6.000   0.777   0.251  1.8002 -1.2597 -0.5310
   42MOL   H28913491   5.923   0.660   0.155  1.0269 -0.1581 -1.3997
   42MOL   C29013492   5.970   1.180   0.041  0.5026 -0.6009 -0.4960
   42MOL   C29113493   5.820   1.171   0.008  0.4671  0.0004 -0.1614
   42MOL   C29213494   5.727   1.146   0.128 -0.1680  0.2589  0.4773
   42MOL   O29313495   5.702   1.035   0.164  0.0244  0.0359 -0.3315
   42MOL   N29413496   5.680   1.250   0.199  0.0935  0.4019  0.0220
   42MOL   C29513497   5.583   1.227   0.316 -0.0747 -0.0721 -0.0686
   42MOL   C29613498   5.687   1.390   0.166  0.4556  0.3111 -0.3164
   42MOL   H29713499   5.984   1.261   0.112 -1.5858 -1.9445  1.5494
   42MOL   H29813500   6.027   1.199   7.804 -0.8662  0.4290 -1.1648
   42MOL   H29913501   5.791   1.263   7.810  0.8221 -1.4134 -2.9998
   42MOL   H30013502   5.481   1.246   0.282  0.3978  0.7645 -1.0096
   42MOL   H30113503   5.586   1.125   0.355  1.6858  0.0375  0.1030
   42MOL   H30213504   5.604   1.282   0.408  0.6399 -1.4800  0.6290
   42MOL   H30313505   5.672   1.455   0.252 -0.1609  1.0027 -0.9359
   42MOL   H30413506   5.625   1.430   0.085  1.2539 -0.3077 -1.2476
   42MOL   H30513507   5.790   1.419   0.145  0.1428 -0.3227 -2.9031
   42MOL   C30613508   5.790   1.066   7.747  0.1995  0.2971  0.0457
   42MOL   C30713509   5.645   1.069   7.692  0.3940  0.1511 -0.0272
   42MOL   C30813510   5.633   1.184   7.595  0.1323  0.5994  0.0040
   42MOL   O30913511   5.703   1.175   7.495 -0.4474 -0.9102  0.2544
   42MOL   N31013512   5.555   1.287   7.625 -0.5057 -0.0827  0.1128
   42MOL   C31113513   5.543   1.396   7.526 -0.4187  0.1286 -0.4613
   42MOL   C31213514   5.458   1.299   7.735  0.3877 -0.9361 -0.5120
   42MOL   H31313515   5.865   1.069   7.668  0.3746  0.5959  0.2239
   42MOL   H31413516   5.806   0.967   7.790  1.9554  0.5057 -0.0627
   42MOL   H31513517   5.623   0.990   7.621 -0.8209 -0.3122  0.8466
   42MOL   H31613518   5.597   1.368   7.435  2.4427  1.1552  0.8583
   42MOL   H31713519   5.440   1.410   7.494 -0.2828 -1.1358 -1.4750
   42MOL   H31813520   5.602   1.478   7.568  3.1619 -1.6041 -1.8971
   42MOL   H31913521   5.372   1.237   7.712 -1.4902  1.6377 -0.5847
   42MOL   H32013522   5.427   1.401   7.753 -1.1467 -1.5879  0.6503
   42MOL   H32113523   5.504   1.273   7.831  0.4486  0.6644 -0.0991
   42MOL   H32213524   5.559   1.072   7.759  0.1501  1.9712 -0.4008
   43MOL     C113525   6.456   4.763   0.794 -0.8228  0.9165  0.8781
   43MOL     C213526   6.606   4.764   0.793  0.1123 -0.3326 -0.2837
   43MOL     C313527   6.665   4.684   0.909  0.0328 -0.2926 -0.1228
   43MOL     O413528   6.656   4.736   1.021  0.2520  0.4185 -0.1216
   43MOL     N513529   6.726   4.565   0.890 -0.0918 -0.0290  0.2180
   43MOL     C613530   6.775   4.491   1.006  0.4880 -0.7748 -0.1128
   43MOL     C713531   6.717   4.486   0.768 -0.4888  0.3653  0.1935
   43MOL     H813532   6.420   4.827   0.874  1.1193  2.8074  0.3027
   43MOL     H913533   6.418   4.662   0.809 -0.1950  0.5568  0.1203
   43MOL    H1013534   6.638   4.719   0.699 -0.9051 -0.9111 -0.3607
   43MOL    H1113535   6.871   4.533   1.033 -0.6609  1.0444  1.2407
   43MOL    H1213536   6.698   4.500   1.083  0.8779 -0.4653  0.2399
   43MOL    H1313537   6.793   4.385   0.983  0.4269 -0.2405 -2.8493
   43MOL    H1413538   6.762   4.388   0.778 -0.8181  0.2718  0.7762
   43MOL    H1513539   6.778   4.533   0.691  1.6488  0.6397  1.9863
   43MOL    H1613540   6.611   4.475   0.745 -0.5305  0.7271  0.2058
   43MOL    H1713541   6.417   4.810   0.704 -1.6174  1.3417  1.4473
   43MOL    C1813542   6.657   4.910   0.785 -0.4939 -0.1402  0.1397
   43MOL    C1913543   6.813   4.937   0.799  0.3210  0.0981  0.4468
   43MOL    C2013544   6.841   5.089   0.801  0.7972 -0.4475  0.1946
   43MOL    O2113545   6.826   5.151   0.693  0.4655  0.3470 -0.2190
   43MOL    N2213546   6.882   5.147   0.916 -0.3124  0.6393 -0.5782
   43MOL    C2313547   6.924   5.291   0.924  0.4515  0.7932 -0.2000
   43MOL    C2413548   6.877   5.072   1.043 -0.0219 -0.0295 -0.1805
   43MOL    H2513549   6.617   4.959   0.697 -0.5179  1.4658  1.0272
   43MOL    H2613550   6.610   4.971   0.863  1.1881  1.1190  0.2027
   43MOL    H2713551   6.841   4.898   0.896 -1.9047  3.1580  2.3978
   43MOL    H2813552   6.978   5.318   1.015  0.8114  1.4966 -0.6136
   43MOL    H2913553   6.984   5.306   0.834  0.0382  1.8500 -0.3203
   43MOL    H3013554   6.835   5.355   0.922 -0.4057 -0.4059 -2.0731
   43MOL    H3113555   6.953   4.995   1.060  0.7780  0.5951 -0.8817
   43MOL    H3213556   6.784   5.017   1.056  0.8538 -1.1236  1.6849
   43MOL    H3313557   6.868   5.137   1.130  2.6973 -1.8222  1.5534
   43MOL    C3413558   6.895   4.860   0.692 -0.0556 -0.1609  0.4491
   43MOL    C3513559   7.052   4.876   0.703  0.5065 -0.3355  0.3259
   43MOL    C3613560   7.112   4.857   0.562 -0.8286 -1.0260  0.4172
   43MOL    O3713561   7.116   4.742   0.522 -0.4098  0.7261  0.2002
   43MOL    N3813562   7.169   4.963   0.492  0.1928  0.3036 -0.2653
   43MOL    C3913563   7.233   4.943   0.365 -0.1580 -0.7206  0.2892
   43MOL    C4013564   7.172   5.104   0.531  0.3541 -0.1776 -0.2646
   43MOL    H4113565   6.870   4.755   0.709 -1.6565  0.2390  0.6327
   43MOL    H4213566   6.866   4.885   0.590  0.3645 -0.4082  0.2701
   43MOL    H4313567   7.082   4.978   0.729  0.0168  0.3396 -1.7251
   43MOL    H4413568   7.275   4.843   0.372  0.5300 -0.2722  3.3085
   43MOL    H4513569   7.163   4.945   0.282 -1.3231  0.4968  1.2551
   43MOL    H4613570   7.305   5.021   0.340 -0.6742 -0.2511  0.2268
   43MOL    H4713571   7.268   5.114   0.583  0.4574 -1.0642 -0.2664
   43MOL    H4813572   7.088   5.120   0.598  1.1474  0.5327  0.5783
   43MOL    H4913573   7.157   5.173   0.449  1.4404  0.6698  0.2365
   43MOL    C5013574   7.115   4.788   0.816 -0.1628  0.6432 -0.5172
   43MOL    C5113575   7.267   4.765   0.817 -0.0986  0.3243  0.7160
   43MOL    C5213576   7.306   4.619   0.772  0.6920 -0.2548  0.8796
   43MOL    O5313577   7.261   4.529   0.839  0.7824 -0.2209 -0.0051
   43MOL    N5413578   7.379   4.598   0.665  0.0393  0.0778 -0.2126
   43MOL    C5513579   7.377   4.465   0.593  0.0014 -0.2298 -0.0417
   43MOL    C5613580   7.473   4.695   0.606  0.0820  0.0663  0.6021
   43MOL    H5713581   7.085   4.827   0.913 -0.5657  0.6220 -0.6340
   43MOL    H5813582   7.065   4.691   0.825 -0.8363  1.1781  1.8964
   43MOL    H5913583   7.312   4.835   0.747 -0.4241 -0.8336 -0.6682
   43MOL    H6013584   7.302   4.462   0.514  0.2890  0.8452 -0.3638
   43MOL    H6113585   7.470   4.440   0.542  0.8481 -0.2872  1.5156
   43MOL    H6213586   7.354   4.381   0.659  1.7470 -1.4939 -0.9941
   43MOL    H6313587   7.561   4.644   0.566 -0.6279 -1.1159  0.5186
   43MOL    H6413588   7.520   4.751   0.686  1.0535  2.2424 -1.4345
   43MOL    H6513589   7.439   4.765   0.530 -1.1942  0.0742  1.1716
   43MOL    C6613590   7.334   4.793   0.963 -0.0916  0.4348 -0.6092
   43MOL    C6713591   7.341   4.937   1.020 -0.3522 -0.8197 -0.3895
   43MOL    C6813592   7.398   5.036   0.912  0.3592  0.8815 -0.4337
   43MOL    O6913593   7.485   4.986   0.840 -0.1137 -0.1857  0.0259
   43MOL    N7013594   7.367   5.163   0.917 -0.2951  0.3397  0.6016
   43MOL    C7113595   7.427   5.257   0.823  0.0194  0.3599  0.5002
   43MOL    C7213596   7.254   5.213   0.995 -0.1073  0.4203  0.2220
   43MOL    H7313597   7.266   4.736   1.026 -0.3609 -0.2834 -1.5240
   43MOL    H7413598   7.434   4.749   0.958 -0.3527 -0.3763  1.1996
   43MOL    H7513599   7.241   4.969   1.050  0.7489  1.8857  0.5212
   43MOL    H7613600   7.363   5.252   0.735 -1.5226 -0.5209  1.6360
   43MOL    H7713601   7.429   5.357   0.867 -2.1470  0.3875  0.6027
   43MOL    H7813602   7.527   5.223   0.793 -0.1565  1.3394 -1.2733
   43MOL    H7913603   7.235   5.317   0.971  0.8603  0.8845  1.3857
   43MOL    H8013604   7.280   5.222   1.100  2.3746  3.7214 -0.6078
   43MOL    H8113605   7.166   5.149   0.986 -0.3806  0.6606  1.1698
   43MOL    C8213606   7.448   4.948   1.128  0.4550  1.2552 -1.0132
   43MOL    C8313607   7.400   4.884   1.265  0.9775 -0.5732  0.6700
   43MOL    C8413608   7.288   4.964   1.318 -0.1457  0.6423  0.4282
   43MOL    O8513609   7.296   5.087   1.324 -0.1067  0.1375 -0.2063
   43MOL    N8613610   7.169   4.906   1.349 -0.4883  0.1116 -0.7825
   43MOL    C8713611   7.060   4.986   1.409 -0.2034 -0.0612  0.2675
   43MOL    C8813612   7.145   4.765   1.338 -0.5184  0.3749  0.0063
   43MOL    H8913613   7.530   4.886   1.092  1.3664  1.9608 -0.1670
   43MOL    H9013614   7.478   5.051   1.145 -1.6607  1.8545 -0.6928
   43MOL    H9113615   7.365   4.784   1.239  1.6132 -1.1281  1.9307
   43MOL    H9213616   7.007   4.925   1.482  0.6960  1.1655  1.9554
   43MOL    H9313617   7.084   5.074   1.469  1.5166  0.9709 -1.8639
   43MOL    H9413618   6.996   5.023   1.328 -0.6120 -1.1557  0.0832
   43MOL    H9513619   7.215   4.713   1.404 -1.4383  0.1288  0.7942
   43MOL    H9613620   7.159   4.723   1.239  2.2267  0.8717  0.1315
   43MOL    H9713621   7.045   4.739   1.373 -0.8490 -1.3959 -2.1465
   43MOL    C9813622   7.527   4.875   1.353 -0.1649 -0.3290 -0.6107
   43MOL    C9913623   7.618   4.755   1.321 -0.4488 -0.5775  0.1665
   43MOL   C10013624   7.544   4.620   1.355  0.0755  0.1319 -0.2366
   43MOL   O10113625   7.526   4.594   1.471  0.1472 -0.0318 -0.1468
   43MOL   N10213626   7.492   4.551   1.252 -0.1304  0.1134 -0.0524
   43MOL   C10313627   7.361   4.489   1.265 -0.6628  0.4655  0.0251
   43MOL   C10413628   7.566   4.522   1.134 -1.0727 -0.1580 -0.2709
   43MOL   H10513629   7.581   4.969   1.362 -1.9090  0.7368 -0.8945
   43MOL   H10613630   7.494   4.854   1.455 -1.6513  1.3228 -0.7115
   43MOL   H10713631   7.637   4.770   1.215  0.5715  0.3639  0.4806
   43MOL   H10813632   7.298   4.527   1.345  0.0662  1.7577 -0.0015
   43MOL   H10913633   7.300   4.484   1.174  1.7975  1.5052 -1.7220
   43MOL   H11013634   7.391   4.386   1.285  0.8784  1.0892  0.9433
   43MOL   H11113635   7.508   4.513   1.042 -1.3569 -0.2246 -0.0841
   43MOL   H11213636   7.622   4.429   1.142 -2.3580 -0.9074  0.1143
   43MOL   H11313637   7.646   4.589   1.102  0.4515 -1.6025  0.4339
   43MOL   C11413638   7.766   4.762   1.385  0.3665 -0.0982  0.3746
   43MOL   C11513639   0.007   4.864   1.301 -0.3868  0.1974 -0.1906
   43MOL   C11613640   0.015   4.830   1.150 -0.5263  0.1554  0.1621
   43MOL   O11713641   0.045   4.714   1.116  0.1457 -0.4509  0.1253
   43MOL   N11813642   7.821   4.922   1.063  0.9175  0.0861  0.1552
   43MOL   C11913643   7.797   5.064   1.092 -0.0925 -0.2698 -0.1871
   43MOL   C12013644   7.813   4.904   0.919  0.4407  0.1461 -0.2102
   43MOL   H12113645   7.756   4.782   1.492 -2.6090 -0.0286  0.1364
   43MOL   H12213646   7.808   4.662   1.392  0.9418  0.2297  1.8127
   43MOL   H12313647   7.801   4.955   1.307 -1.8071 -0.7056 -0.2155
   43MOL   H12413648   0.029   5.109   1.142  0.4813  0.4897 -1.7817
   43MOL   H12513649   7.783   5.119   0.999 -0.0404 -0.7660 -0.4901
   43MOL   H12613650   7.712   5.081   1.157 -0.5099 -0.4500 -0.6806
   43MOL   H12713651   7.717   4.926   0.872  0.0172  0.3333  0.7258
   43MOL   H12813652   7.831   4.803   0.885 -1.2789 -0.4886  0.6966
   43MOL   H12913653   0.024   4.976   0.869  0.3260  2.2082  2.4745
   43MOL   C13013654   0.150   4.884   1.371 -0.0899  0.4696 -0.6369
   43MOL   C13113655   0.257   4.775   1.358  0.0754  0.2661 -0.8168
   43MOL   C13213656   0.233   4.652   1.457  0.4661 -0.4448  0.6513
   43MOL   O13313657   0.215   4.678   1.573 -0.4675  0.1988  0.4992
   43MOL   N13413658   0.234   4.524   1.416 -0.5689 -0.2465  0.0931
   43MOL   C13513659   0.304   4.471   1.292  0.4621 -0.6149  0.1338
   43MOL   C13613660   0.200   4.414   1.509 -0.6475  0.4211 -0.1431
   43MOL   H13713661   0.179   4.981   1.332  1.3315  0.3695  0.1425
   43MOL   H13813662   0.151   4.898   1.479 -0.2476  0.3781 -0.6227
   43MOL   H13913663   0.260   4.738   1.255 -1.0474 -0.4993 -0.5812
   43MOL   H14013664   0.408   4.502   1.295  0.2340  0.0352  1.4531
   43MOL   H14113665   0.302   4.362   1.285  0.0346 -0.6588  0.8854
   43MOL   H14213666   0.265   4.527   1.207  1.1282 -0.0786  0.1809
   43MOL   H14313667   0.131   4.438   1.590  1.8083  0.1333  2.0848
   43MOL   H14413668   0.294   4.381   1.552 -0.7493 -0.0059 -0.2444
   43MOL   H14513669   0.160   4.327   1.457  2.1706 -2.2390  2.0117
   43MOL   C14613670   0.408   4.827   1.374  0.6195 -0.1508 -0.5367
   43MOL   C14713671   0.487   4.913   1.270  0.1326  0.4252  0.8689
   43MOL   C14813672   0.476   4.842   1.133 -0.3923  0.1909  0.3451
   43MOL   O14913673   0.519   4.722   1.135 -0.2724 -0.3260  0.3720
   43MOL   N15013674   0.423   4.901   1.023  0.3159  0.4623 -0.7806
   43MOL   C15113675   0.416   4.818   0.905  0.3582 -0.1458 -0.3682
   43MOL   C15213676   0.360   5.035   1.014  0.4275  0.5251 -0.9843
   43MOL   H15313677   0.393   4.883   1.467 -0.7751 -0.8557 -0.3292
   43MOL   H15413678   0.469   4.742   1.404 -0.1363 -0.7268 -0.6384
   43MOL   H15513679   0.437   5.009   1.259  0.9514  0.6111 -1.6175
   43MOL   H15613680   0.444   4.712   0.907 -2.4477 -0.9157  1.1802
   43MOL   H15713681   0.311   4.823   0.878  0.9019 -2.6864 -3.2133
   43MOL   H15813682   0.471   4.869   0.827 -1.3105 -0.5625 -1.8501
   43MOL   H15913683   0.404   5.119   1.069 -1.3186 -0.6337  2.2913
   43MOL   H16013684   0.256   5.018   1.042  0.3435  1.5858 -0.6259
   43MOL   H16113685   0.345   5.079   0.915  0.3438  0.7566 -0.8708
   43MOL   C16213686   0.631   4.934   1.315  0.7247 -0.2282 -0.9049
   43MOL   C16313687   0.723   5.042   1.240 -0.2606 -0.2688 -0.2389
   43MOL   C16413688   0.752   5.022   1.095  0.1379 -0.3400  0.6443
   43MOL   O16513689   0.734   5.115   1.015  0.0296  0.5755  0.4687
   43MOL   N16613690   0.803   4.902   1.049  0.2470  0.1360 -0.3142
   43MOL   C16713691   0.856   4.788   1.133 -0.3593  0.9906  0.1470
   43MOL   C16813692   0.805   4.876   0.904 -0.4552 -0.8033  0.7114
   43MOL   H16913693   0.623   4.963   1.419  0.7315 -0.1267 -0.9328
   43MOL   H17013694   0.681   4.842   1.346  0.3472 -0.6155 -1.4079
   43MOL   H17113695   0.667   5.136   1.228  0.3405 -0.1446 -2.2489
   43MOL   H17213696   0.802   4.763   1.224 -0.6395  1.9319  0.2426
   43MOL   H17313697   0.872   4.692   1.084  2.7697  0.8598  1.3227
   43MOL   H17413698   0.955   4.805   1.176 -0.6799  0.5848  1.0603
   43MOL   H17513699   0.738   4.792   0.882 -2.5752  0.6879  1.3064
   43MOL   H17613700   0.907   4.846   0.881 -0.3532 -0.7999  1.1617
   43MOL   H17713701   0.778   4.965   0.847  0.3486 -0.5900  0.6674
   43MOL   C17813702   0.848   5.078   1.320 -0.0346 -0.0506  0.1056
   43MOL   C17913703   0.891   5.229   1.338 -0.2514 -0.7250 -0.2897
   43MOL   C18013704   0.941   5.305   1.215  0.2712  0.0082  0.2077
   43MOL   O18113705   1.062   5.289   1.186 -0.0806  0.4007 -0.1419
   43MOL   N18213706   0.860   5.390   1.148  0.3432 -0.2015 -0.0903
   43MOL   C18313707   0.914   5.447   1.020 -0.2396 -0.0552  0.3512
   43MOL   C18413708   0.736   5.447   1.182  1.0199  0.3242 -0.3661
   43MOL   H18513709   0.835   5.030   1.417  1.0147  0.1423  0.3473
   43MOL   H18613710   0.929   5.020   1.277  0.1141 -0.1056  0.4637
   43MOL   H18713711   0.797   5.276   1.367 -0.4503 -0.2589 -1.6398
   43MOL   H18813712   0.962   5.543   1.040 -0.1550 -0.0852  0.2904
   43MOL   H18913713   0.996   5.384   0.985  1.4248  1.4720  1.4214
   43MOL   H19013714   0.837   5.458   0.944 -1.0576  1.0319  1.3346
   43MOL   H19113715   0.662   5.413   1.111  0.2346 -1.0132  1.0615
   43MOL   H19213716   0.752   5.555   1.189  1.1315  0.3404 -0.8533
   43MOL   H19313717   0.688   5.420   1.276  0.3226 -0.6402 -0.9901
   43MOL   C19413718   0.995   5.237   1.461 -0.1898 -0.4579  0.1080
   43MOL   C19513719   0.948   5.320   1.586  0.2726 -0.1764  0.5398
   43MOL   C19613720   0.947   5.471   1.547 -0.4387 -0.2538 -0.3348
   43MOL   O19713721   1.055   5.528   1.542  0.1932  0.0540 -1.0083
   43MOL   N19813722   0.833   5.538   1.537 -0.4711 -0.2953  0.0226
   43MOL   C19913723   0.829   5.680   1.495 -0.0922 -0.3816  0.0563
   43MOL   C20013724   0.704   5.479   1.561  0.5004 -0.3119  0.8475
   43MOL   H20113725   1.045   5.143   1.485 -0.1498 -0.6590 -0.7602
   43MOL   H20213726   1.085   5.291   1.433 -0.5876 -0.7570 -1.7995
   43MOL   H20313727   0.856   5.271   1.618 -0.0280  0.7157  1.0356
   43MOL   H20413728   0.911   5.748   1.517 -1.7438  2.0493 -1.0987
   43MOL   H20513729   0.809   5.686   1.388 -0.8561 -2.4826  0.0490
   43MOL   H20613730   0.740   5.723   1.540  0.4655  0.1024  0.7090
   43MOL   H20713731   0.631   5.553   1.528  2.1043  1.6684  1.6383
   43MOL   H20813732   0.684   5.469   1.667 -4.5574  0.0490  0.0484
   43MOL   H20913733   0.685   5.381   1.517  0.2326 -0.8255  2.0968
   43MOL   C21013734   1.041   5.291   1.712 -0.3059 -0.1147  1.2610
   43MOL   C21113735   1.056   5.387   1.831 -0.0590  0.0993 -0.3337
   43MOL   C21213736   1.163   5.341   1.929 -0.2618  0.3699 -0.9660
   43MOL   O21313737   1.128   5.268   2.017 -0.4087  0.0726 -1.3674
   43MOL   N21413738   1.295   5.369   1.908 -0.6054 -0.7852  0.4134
   43MOL   C21513739   1.391   5.298   1.989 -0.2588  0.9202  0.0444
   43MOL   C21613740   1.345   5.452   1.798  0.8896  0.1164 -0.3942
   43MOL   H21713741   1.000   5.198   1.751  0.3240 -0.8350  0.2446
   43MOL   H21813742   1.141   5.260   1.682 -0.4585  0.2161  0.3984
   43MOL   H21913743   1.089   5.481   1.788  1.7648 -0.8442 -1.0515
   43MOL   H22013744   1.493   5.325   1.961 -1.1237  2.9086 -1.2917
   43MOL   H22113745   1.373   5.313   2.095 -0.6178 -0.6910  0.2185
   43MOL   H22213746   1.386   5.190   1.973  0.5044  0.9430 -0.3528
   43MOL   H22313747   1.344   5.554   1.834 -0.2254 -0.1360  0.3348
   43MOL   H22413748   1.282   5.446   1.709  2.1077  0.0869 -1.2574
   43MOL   H22513749   1.445   5.422   1.767  1.0091 -0.0917  0.1847
   43MOL   C22613750   0.916   5.402   1.898 -0.1606 -0.0655 -0.2241
   43MOL   C22713751   0.891   5.513   2.003  0.0053 -0.0131 -0.0198
   43MOL   C22813752   0.748   5.469   2.063  0.1319  0.4094  0.3408
   43MOL   O22913753   0.647   5.509   2.007  0.0941  0.8367 -0.2600
   43MOL   N23013754   0.737   5.377   2.162 -0.2288  0.1226  0.6727
   43MOL   C23113755   0.853   5.311   2.224 -0.4897 -0.3324 -0.2534
   43MOL   C23213756   0.610   5.320   2.210  0.4840  0.0276  0.2033
   43MOL   H23313757   0.839   5.421   1.823 -2.2549  0.0872  1.9013
   43MOL   H23413758   0.894   5.303   1.938 -0.7145 -0.2539 -0.9894
   43MOL   H23513759   0.969   5.499   2.078 -0.3057  2.7166  0.8772
   43MOL   H23613760   0.929   5.262   2.163 -0.2500  0.0716 -0.2824
   43MOL   H23713761   0.918   5.380   2.277 -1.0463  0.3351 -0.4444
   43MOL   H23813762   0.822   5.241   2.301 -4.4931 -0.8188 -2.1923
   43MOL   H23913763   0.620   5.224   2.260 -2.7718  0.3057  1.5047
   43MOL   H24013764   0.532   5.312   2.134  0.6817  0.7370 -0.0801
   43MOL   H24113765   0.580   5.390   2.287 -1.4079  0.7500 -1.1701
   43MOL   C24213766   0.899   5.654   1.945 -0.6766 -0.5753 -0.5683
   43MOL   C24313767   0.903   5.780   2.041 -0.0012  0.6792 -0.9516
   43MOL   C24413768   0.989   5.759   2.166 -0.3612  0.3800  0.7296
   43MOL   O24513769   0.948   5.684   2.253  0.1308  0.0513 -0.0186
   43MOL   N24613770   1.109   5.819   2.183  0.2707 -0.1706 -0.0145
   43MOL   C24713771   1.152   5.931   2.107 -0.0914 -0.3401  0.7355
   43MOL   C24813772   1.201   5.776   2.287  0.6219  1.1177 -0.1609
   43MOL   H24913773   0.993   5.652   1.889 -0.8888  0.9590 -1.0145
   43MOL   H25013774   0.818   5.671   1.874  1.0167  1.7810 -2.0306
   43MOL   H25113775   0.935   5.861   1.975  1.2600 -0.4968 -1.8227
   43MOL   H25213776   1.238   5.985   2.146 -1.0572  1.9727 -0.2159
   43MOL   H25313777   1.178   5.900   2.006 -2.0236  0.5663 -0.0639
   43MOL   H25413778   1.068   5.996   2.083  0.2039 -0.5476 -0.8954
   43MOL   H25513779   1.291   5.835   2.300  1.4600 -0.5576  1.9422
   43MOL   H25613780   1.247   5.683   2.251  0.5100  1.5277 -1.3904
   43MOL   H25713781   1.166   5.757   2.388 -0.1812 -0.2908 -0.6802
   43MOL   C25813782   0.760   5.821   2.091  0.0349 -0.5524  0.8661
   43MOL   C25913783   0.677   5.916   1.992 -0.0684 -0.2487 -0.5560
   43MOL   C26013784   0.745   6.053   1.957  0.4060  0.1570  0.1060
   43MOL   O26113785   0.758   6.135   2.051  0.1734 -0.3304  0.0658
   43MOL   N26213786   0.785   6.083   1.827  0.7653  0.8673 -0.5429
   43MOL   C26313787   0.763   5.997   1.707  0.5176  0.6368  0.2431
   43MOL   C26413788   0.853   6.213   1.793 -0.0676 -0.9784  0.4594
   43MOL   H26513789   0.704   5.731   2.118  0.8068 -0.7294  1.9166
   43MOL   H26613790   0.770   5.881   2.181 -0.9203  1.3568 -0.2779
   43MOL   H26713791   0.646   5.868   1.899  2.1586  1.7066 -2.3665
   43MOL   H26813792   0.832   5.913   1.702 -0.0795  0.0537  1.6351
   43MOL   H26913793   0.659   5.975   1.685  0.0674  1.5259  1.3988
   43MOL   H27013794   0.791   6.054   1.618 -2.1265  2.3995  0.4639
   43MOL   H27113795   0.823   6.251   1.695 -3.3644 -2.5220  0.7905
   43MOL   H27213796   0.960   6.195   1.807  0.4776  0.3079 -1.7191
   43MOL   H27313797   0.833   6.294   1.862  0.9790 -1.3252  1.1774
   43MOL   C27413798   0.539   5.957   2.056  0.3109  0.5517  0.1681
   43MOL   C27513799   0.423   5.851   2.029 -0.3591  0.1359 -0.0134
   43MOL   C27613800   0.336   5.878   1.907 -0.3945  0.7979 -0.5172
   43MOL   O27713801   0.239   5.953   1.925  0.1782  0.0413 -0.6837
   43MOL   N27813802   0.371   5.823   1.785 -0.1973  0.0848  0.2183
   43MOL   C27913803   0.300   5.867   1.665 -0.1879  0.7134 -0.1543
   43MOL   C28013804   0.437   5.694   1.772 -0.2776  0.2398  0.5429
   43MOL   H28113805   0.552   5.973   2.163  0.0717 -0.1235  0.3002
   43MOL   H28213806   0.506   6.051   2.012 -1.7375  0.1899  0.8598
   43MOL   H28313807   0.481   5.759   2.024  0.8062  0.9628 -2.2396
   43MOL   H28413808   0.230   5.789   1.635 -0.3519  0.0828  1.7601
   43MOL   H28513809   0.241   5.955   1.689 -0.1075  0.3894  1.3243
   43MOL   H28613810   0.366   5.887   1.581  0.6663 -0.0037  0.3347
   43MOL   H28713811   0.366   5.611   1.771  0.0396 -0.0347 -1.6208
   43MOL   H28813812   0.523   5.678   1.837  0.9399  0.8733 -0.8894
   43MOL   H28913813   0.467   5.679   1.669 -0.3509 -1.9689  0.8079
   43MOL   C29013814   0.342   5.823   2.158  0.0842  0.3480 -0.1496
   43MOL   C29113815   0.230   5.719   2.163 -0.0914 -0.0335  0.1400
   43MOL   C29213816   0.174   5.725   2.308 -0.4483  0.0444  0.1598
   43MOL   O29313817   0.237   5.671   2.396 -0.6694 -0.2241 -0.4710
   43MOL   N29413818   0.065   5.800   2.341 -0.8165 -0.0199  1.0246
   43MOL   C29513819   7.834   5.863   2.232  0.1435 -0.2938 -0.2540
   43MOL   C29613820   0.026   5.837   2.481  0.4753 -0.2446 -0.4296
   43MOL   H29713821   0.413   5.781   2.229 -1.1353 -1.1671  0.2125
   43MOL   H29813822   0.299   5.919   2.189 -2.3982  0.4057 -3.4647
   43MOL   H29913823   0.150   5.737   2.091  0.7663 -0.5535 -0.9541
   43MOL   H30013824   0.031   5.931   2.163 -1.1429  0.6310 -0.2934
   43MOL   H30113825   7.785   5.784   2.174  0.0518 -1.2800  1.1310
   43MOL   H30213826   7.750   5.920   2.270  1.8777  1.3812  1.1558
   43MOL   H30313827   0.052   5.758   2.550  2.7761  1.1287  0.3466
   43MOL   H30413828   7.772   5.850   2.487  0.5175 -0.2034  0.1850
   43MOL   H30513829   0.082   5.921   2.523 -1.1840  0.6248  0.0614
   43MOL   C30613830   0.287   5.573   2.133  0.8719  0.5336  0.1705
   43MOL   C30713831   0.192   5.447   2.147  0.3126  0.0140 -0.7590
   43MOL   C30813832   0.106   5.416   2.024 -0.0023 -0.6059  0.3531
   43MOL   O30913833   0.168   5.415   1.919 -0.1520  0.3251 -0.4367
   43MOL   N31013834   7.828   5.392   2.039  0.0677  0.2431  0.1095
   43MOL   C31113835   7.758   5.380   2.167  0.4346 -0.8141 -0.8441
   43MOL   C31213836   7.752   5.365   1.914  0.9670 -0.3039 -0.2370
   43MOL   H31313837   0.329   5.573   2.032 -3.4180  0.2206 -1.7555
   43MOL   H31413838   0.366   5.553   2.205  0.3968 -0.2344  0.4851
   43MOL   H31513839   0.257   5.359   2.155  1.1229  0.4112 -2.5718
   43MOL   H31613840   7.661   5.333   2.152  0.9334 -1.7517 -1.1760
   43MOL   H31713841   7.812   5.318   2.239  2.7254  0.7707 -1.1351
   43MOL   H31813842   7.740   5.479   2.209  2.1758 -1.0579  0.5511
   43MOL   H31913843   7.650   5.401   1.928  1.2294  0.9028 -1.3980
   43MOL   H32013844   7.741   5.257   1.899 -0.1149 -0.2445  0.1194
   43MOL   H32113845   7.792   5.409   1.823  0.2176 -0.7290 -0.7751
   43MOL   H32213846   0.136   5.452   2.240  0.6036  0.3813 -0.6031
   44MOL     C113847   1.081   4.107   3.290 -0.1763 -0.2768  0.5184
   44MOL     C213848   1.119   4.128   3.437 -0.2850  0.1898 -0.1701
   44MOL     C313849   1.249   4.068   3.486 -0.1319 -0.1730  0.2447
   44MOL     O413850   1.265   3.949   3.456  0.0941  0.5792  0.5805
   44MOL     N513851   1.336   4.134   3.570  0.6017 -0.2016  0.4563
   44MOL     C613852   1.452   4.067   3.639  0.2963  0.2075  0.1310
   44MOL     C713853   1.326   4.274   3.604  0.4001 -0.3044 -0.4874
   44MOL     H813854   1.154   4.054   3.229  0.7233 -1.5059  2.6090
   44MOL     H913855   1.032   4.190   3.240 -0.4882 -1.2090 -0.7245
   44MOL    H1013856   1.130   4.236   3.441  0.3786  0.0306  3.4925
   44MOL    H1113857   1.533   4.132   3.671  1.0044 -1.4088  1.7008
   44MOL    H1213858   1.418   4.024   3.733 -2.1920  1.2160 -0.2759
   44MOL    H1313859   1.503   4.009   3.562 -2.3478  0.3411 -1.7940
   44MOL    H1413860   1.228   4.320   3.604  0.4677 -0.1386  0.8550
   44MOL    H1513861   1.382   4.338   3.536 -0.1451 -0.3314 -0.9631
   44MOL    H1613862   1.377   4.300   3.697 -1.9225  2.8537 -0.0397
   44MOL    H1713863   1.002   4.032   3.296 -0.0932 -0.2929  1.4830
   44MOL    C1813864   1.001   4.097   3.534 -0.7191 -0.3815  0.5896
   44MOL    C1913865   0.855   4.150   3.498 -0.9736  0.0380 -0.2295
   44MOL    C2013866   0.853   4.305   3.491 -0.4963 -0.8428 -0.7126
   44MOL    O2113867   0.889   4.366   3.590 -0.1024 -0.2661 -0.1586
   44MOL    N2213868   0.793   4.370   3.382 -0.0175 -0.7296 -0.1756
   44MOL    C2313869   0.781   4.517   3.375 -0.4012 -0.1414 -0.0959
   44MOL    C2413870   0.736   4.294   3.270 -0.0316  0.1618 -0.0852
   44MOL    H2513871   0.997   3.991   3.559  2.4346 -0.4096  1.2987
   44MOL    H2613872   1.021   4.147   3.629  1.5791 -0.4739  0.1826
   44MOL    H2713873   0.839   4.109   3.398 -1.6866 -0.9221  0.2716
   44MOL    H2813874   0.779   4.548   3.270 -1.6175 -1.0520 -0.3616
   44MOL    H2913875   0.698   4.554   3.435  1.6182  2.9567  0.8743
   44MOL    H3013876   0.867   4.556   3.428  0.3334 -1.7384 -0.0766
   44MOL    H3113877   0.714   4.355   3.183  0.7873  0.6659  0.0548
   44MOL    H3213878   0.647   4.237   3.297  1.2663 -2.5642 -1.3657
   44MOL    H3313879   0.809   4.225   3.230  0.7080  0.9869 -0.1750
   44MOL    C3413880   0.742   4.083   3.589 -0.5895  0.0700  0.5288
   44MOL    C3513881   0.743   4.119   3.747 -0.4062  0.0403 -0.1434
   44MOL    C3613882   0.841   4.022   3.817 -0.1184  0.7197 -0.1833
   44MOL    O3713883   0.813   3.903   3.822 -0.5680 -0.2335 -0.0130
   44MOL    N3813884   0.961   4.073   3.862 -0.3439  0.4355  0.4935
   44MOL    C3913885   1.057   3.983   3.920 -0.7117 -0.0104 -0.0422
   44MOL    C4013886   0.991   4.209   3.877  0.2879 -0.1101 -0.3117
   44MOL    H4113887   0.652   4.120   3.540  0.6108  2.2851 -0.0903
   44MOL    H4213888   0.724   3.977   3.571 -0.6249  0.0681  0.5737
   44MOL    H4313889   0.758   4.224   3.773  3.7743 -0.5897  0.3416
   44MOL    H4413890   1.154   4.032   3.923 -1.3414  1.2307  0.0816
   44MOL    H4513891   1.039   3.961   4.025 -1.7071 -2.0426 -0.6146
   44MOL    H4613892   1.056   3.888   3.865 -0.5389  1.1512 -2.1016
   44MOL    H4713893   1.089   4.239   3.915 -0.6132  1.5687  0.7415
   44MOL    H4813894   0.925   4.243   3.957 -1.0648  1.4352 -2.0403
   44MOL    H4913895   0.969   4.275   3.792  2.2641 -0.5680 -1.2134
   44MOL    C5013896   0.606   4.097   3.819 -0.3832 -0.6125 -0.2907
   44MOL    C5113897   0.500   4.208   3.806 -0.5167 -0.0416  0.4093
   44MOL    C5213898   0.474   4.259   3.660  0.1346 -0.1788  0.3916
   44MOL    O5313899   0.536   4.358   3.618  0.6069  0.9384  0.1176
   44MOL    N5413900   0.374   4.194   3.587  0.3188  0.0968  0.1673
   44MOL    C5513901   0.285   4.087   3.622  0.0811 -0.2102 -0.1429
   44MOL    C5613902   0.333   4.256   3.462  0.1365  0.2701 -0.0194
   44MOL    H5713903   0.567   4.007   3.771 -0.2668 -1.6729  1.5619
   44MOL    H5813904   0.621   4.087   3.927 -1.5132 -0.8344 -0.1480
   44MOL    H5913905   0.408   4.156   3.832 -1.0583  1.4017  1.4626
   44MOL    H6013906   0.335   4.006   3.675 -0.4475  0.8108  1.9744
   44MOL    H6113907   0.200   4.121   3.682 -0.2766  1.2399 -1.4466
   44MOL    H6213908   0.248   4.030   3.537 -1.4733 -3.0484  2.3339
   44MOL    H6313909   0.309   4.360   3.485 -1.6442 -0.5112  1.7493
   44MOL    H6413910   0.230   4.227   3.443 -0.3904  0.4573  2.3748
   44MOL    H6513911   0.400   4.233   3.379  0.0533  1.3961 -0.4033
   44MOL    C6613912   0.528   4.325   3.909 -0.3421  0.4098  0.0959
   44MOL    C6713913   0.418   4.434   3.902  0.2338 -0.5605 -0.5633
   44MOL    C6813914   0.459   4.566   3.980  0.4566  0.5904 -0.9858
   44MOL    O6913915   0.502   4.549   4.098  0.1365  0.3674  0.5710
   44MOL    N7013916   0.441   4.685   3.922 -0.1624  0.7391 -0.3344
   44MOL    C7113917   0.499   4.804   3.985 -0.3716  0.1224  0.0043
   44MOL    C7213918   0.395   4.697   3.780 -0.4487  0.0325  0.2347
   44MOL    H7313919   0.550   4.297   4.012  1.2459  1.5172  0.0820
   44MOL    H7413920   0.621   4.370   3.875 -0.9452  1.5112 -0.1265
   44MOL    H7513921   0.423   4.462   3.797 -2.6706  1.0510 -0.3241
   44MOL    H7613922   0.445   4.852   4.067  0.2230  0.2910  0.3039
   44MOL    H7713923   0.600   4.778   4.017 -0.7543 -0.1882  0.9889
   44MOL    H7813924   0.502   4.886   3.912  1.2450  0.1873  0.1098
   44MOL    H7913925   0.380   4.804   3.763  0.7737 -0.1423 -2.2449
   44MOL    H8013926   0.294   4.660   3.766  0.0559 -0.4918 -2.2773
   44MOL    H8113927   0.455   4.651   3.701 -0.8342  0.4829 -0.3283
   44MOL    C8213928   0.278   4.381   3.937 -0.3450 -0.1235  0.1580
   44MOL    C8313929   0.271   4.310   4.076  0.0741  0.2134 -0.0244
   44MOL    C8413930   0.282   4.156   4.071  0.2170  0.4538  0.0125
   44MOL    O8513931   0.215   4.104   3.985  0.5745  0.2692  0.5915
   44MOL    N8613932   0.358   4.091   4.163 -0.4458  0.2257  0.5654
   44MOL    C8713933   0.343   3.945   4.169  0.1513  0.2559 -0.4812
   44MOL    C8813934   0.448   4.147   4.271  0.7864  0.2108 -0.0981
   44MOL    H8913935   0.204   4.461   3.931 -1.4740 -1.2142 -0.5865
   44MOL    H9013936   0.248   4.310   3.861 -0.2829  1.2562 -1.1704
   44MOL    H9113937   0.359   4.336   4.135  0.5679 -0.5184 -0.4292
   44MOL    H9213938   0.241   3.916   4.146  0.2670  0.2403 -0.9852
   44MOL    H9313939   0.407   3.896   4.095 -0.2101 -1.8980  0.5894
   44MOL    H9413940   0.379   3.899   4.261 -0.9796  1.3475  0.5169
   44MOL    H9513941   0.467   4.083   4.358 -4.2335 -1.4391 -0.0597
   44MOL    H9613942   0.423   4.247   4.305 -0.3521 -0.6329  1.6401
   44MOL    H9713943   0.545   4.171   4.228  0.8060  0.6972  0.2195
   44MOL    C9813944   0.144   4.344   4.154 -0.4818  0.3790  0.7338
   44MOL    C9913945   0.124   4.489   4.192  0.2237  0.0807 -0.2775
   44MOL   C10013946   0.111   4.498   4.351  0.3090  0.1557 -0.4025
   44MOL   O10113947   0.014   4.445   4.406 -0.3067  0.1364 -0.0902
   44MOL   N10213948   0.197   4.586   4.418  0.0452 -0.2545  0.1190
   44MOL   C10313949   0.298   4.660   4.351 -0.0977  0.0108  0.3192
   44MOL   C10413950   0.176   4.632   4.557 -0.0061 -0.0714 -0.5627
   44MOL   H10513951   0.059   4.302   4.102  1.9060 -2.9256 -0.6703
   44MOL   H10613952   0.144   4.278   4.241 -1.2150  0.7298  1.0027
   44MOL   H10713953   0.209   4.540   4.147 -0.0618  1.2781  0.5317
   44MOL   H10813954   0.273   4.709   4.257 -0.2650  1.2398  0.9860
   44MOL   H10913955   0.342   4.735   4.417  0.7494  1.2049 -1.5551
   44MOL   H11013956   0.372   4.584   4.328 -1.4631 -0.7321 -1.7225
   44MOL   H11113957   0.114   4.563   4.614  0.2024 -0.2663 -0.5703
   44MOL   H11213958   0.128   4.729   4.547 -2.1748 -1.3485 -3.4576
   44MOL   H11313959   0.270   4.641   4.612 -1.0960  1.2832  1.1162
   44MOL   C11413960   7.851   4.541   4.124 -0.1124  0.4840  0.3680
   44MOL   C11513961   7.825   4.693   4.126 -0.5392  0.6638  0.3413
   44MOL   C11613962   7.673   4.713   4.102  0.4925 -0.8044 -0.0797
   44MOL   O11713963   7.637   4.705   3.985 -0.0295 -0.5458  0.2669
   44MOL   N11813964   7.587   4.739   4.207  0.4884  0.1021 -0.0116
   44MOL   C11913965   7.453   4.795   4.182  0.0969 -0.3009  0.5171
   44MOL   C12013966   7.604   4.718   4.351 -0.4901  0.3377 -0.0111
   44MOL   H12113967   7.833   4.503   4.023 -0.7778  0.3802  0.5171
   44MOL   H12213968   7.770   4.492   4.179  0.9054 -0.6738  0.8719
   44MOL   H12313969   7.853   4.739   4.221 -2.8862  0.4943  1.1474
   44MOL   H12413970   7.418   4.861   4.261 -0.3619  1.7465 -1.3453
   44MOL   H12513971   7.454   4.850   4.088  3.0272 -0.5049  0.3939
   44MOL   H12613972   7.387   4.710   4.167  0.6766 -0.3127 -2.4005
   44MOL   H12713973   7.638   4.812   4.396 -1.6674 -0.6482  3.0940
   44MOL   H12813974   7.677   4.639   4.370  1.2802  1.2179 -2.8579
   44MOL   H12913975   7.512   4.683   4.397 -1.5986  0.5980 -2.0111
   44MOL   C13013976   0.066   4.765   4.020 -0.7791 -0.3021 -0.8923
   44MOL   C13113977   0.103   4.912   4.042  0.9254 -0.4750 -0.1630
   44MOL   C13213978   7.849   4.995   4.121 -0.7098  0.3404 -0.0605
   44MOL   O13313979   7.756   5.035   4.048 -0.0809 -0.6729 -0.4500
   44MOL   N13413980   0.001   4.999   4.255  0.1575  0.0755  0.0994
   44MOL   C13513981   7.735   5.049   4.326  0.5318 -0.2477 -0.2484
   44MOL   C13613982   0.123   5.000   4.338  0.1171  0.0507 -0.2702
   44MOL   H13713983   0.162   4.713   4.025  0.2320  1.6430  1.0779
   44MOL   H13813984   0.024   4.758   3.920  0.2546 -0.3767 -1.3206
   44MOL   H13913985   0.190   4.913   4.108  0.4801  0.6964  0.4194
   44MOL   H14013986   7.744   5.156   4.344  2.8100 -0.3972 -0.3570
   44MOL   H14113987   7.643   5.031   4.271  1.4953 -0.9079 -1.6977
   44MOL   H14213988   7.716   5.000   4.421 -0.1919  1.0875  0.3107
   44MOL   H14313989   0.125   4.905   4.392 -0.0354  0.3705  0.3126
   44MOL   H14413990   0.097   5.079   4.409 -2.2553  1.1465 -2.2640
   44MOL   H14513991   0.213   5.019   4.281  0.6088  1.3079  0.8975
   44MOL   C14613992   0.148   4.983   3.914 -0.4544 -0.0739 -0.1236
   44MOL   C14713993   0.175   5.139   3.910  0.0466 -0.0117  0.6194
   44MOL   C14813994   0.220   5.169   3.765 -0.8702  0.4489  0.1738
   44MOL   O14913995   0.334   5.127   3.741 -0.5302 -0.1762  0.2514
   44MOL   N15013996   0.150   5.242   3.681 -0.5199 -0.1324  0.0296
   44MOL   C15113997   0.016   5.302   3.710 -0.3649 -0.0147  0.3270
   44MOL   C15213998   0.191   5.249   3.534  0.4476 -0.3854 -0.2137
   44MOL   H15313999   0.242   4.932   3.892  0.0992  0.4985  0.8469
   44MOL   H15414000   0.072   4.975   3.837  1.2813  2.0587 -2.1493
   44MOL   H15514001   0.077   5.185   3.924  0.3773  0.8556  0.1383
   44MOL   H15614002   7.835   5.364   3.627  0.3354 -0.8435 -0.6028
   44MOL   H15714003   7.802   5.218   3.726  0.2878 -0.6247 -0.0476
   44MOL   H15814004   0.015   5.370   3.795  0.3240  0.2094  0.1588
   44MOL   H15914005   0.120   5.290   3.462 -1.8010  0.4547  2.3706
   44MOL   H16014006   0.216   5.149   3.501  0.8290 -0.2539 -0.3241
   44MOL   H16114007   0.285   5.305   3.533 -0.1646  0.6870  0.6663
   44MOL   C16214008   0.274   5.185   4.018  0.0232 -0.2856  0.0717
   44MOL   C16314009   0.270   5.330   4.063  1.0078  0.4819  0.2658
   44MOL   C16414010   0.401   5.377   4.123  0.0714  0.1215  0.1212
   44MOL   O16514011   0.448   5.309   4.212 -0.0814 -0.3923 -0.5564
   44MOL   N16614012   0.454   5.494   4.071  0.2122 -0.2547 -0.2247
   44MOL   C16714013   0.589   5.536   4.116  0.7134  0.4857 -0.0229
   44MOL   C16814014   0.411   5.567   3.950  0.0732  0.0236 -0.8924
   44MOL   H16914015   0.267   5.127   4.110 -1.9825 -0.8964 -0.4495
   44MOL   H17014016   0.374   5.163   3.981  0.1341  0.9278 -0.3778
   44MOL   H17114017   0.248   5.394   3.978  1.9824  0.4428 -0.0251
   44MOL   H17214018   0.585   5.639   4.150  0.2511  0.7370 -0.8263
   44MOL   H17314019   0.634   5.475   4.194 -1.0917 -0.3156  0.4153
   44MOL   H17414020   0.651   5.528   4.026  0.7474 -0.7433  0.0945
   44MOL   H17514021   0.385   5.488   3.879 -0.4983  1.0326 -1.8177
   44MOL   H17614022   0.483   5.620   3.889  0.5526  0.4783  0.0636
   44MOL   H17714023   0.323   5.632   3.952  1.1287  1.4744 -1.3204
   44MOL   C17814024   0.152   5.341   4.155 -0.2770  0.5023  0.2764
   44MOL   C17914025   0.085   5.477   4.196 -0.4076 -0.3669  0.1997
   44MOL   C18014026   0.022   5.548   4.068  0.1025  0.9963 -0.0389
   44MOL   O18114027   0.084   5.640   4.015 -0.3416  0.2728  0.2171
   44MOL   N18214028   7.751   5.507   4.029  0.4917  0.1617 -0.1497
   44MOL   C18314029   7.675   5.578   3.926  0.4443  0.5206 -0.1693
   44MOL   C18414030   7.688   5.384   4.065  0.6132  0.5619  0.5697
   44MOL   H18514031   0.073   5.267   4.147  0.9627 -0.9291  1.0904
   44MOL   H18614032   0.199   5.308   4.247 -0.2035  0.2275  0.1414
   44MOL   H18714033   0.006   5.455   4.268 -2.7923  2.2475 -1.4974
   44MOL   H18814034   7.717   5.562   3.827 -0.4110  0.5616 -0.5345
   44MOL   H18914035   7.568   5.562   3.932  0.3939  0.5383 -1.0512
   44MOL   H19014036   7.682   5.686   3.938  0.3228  0.3973  1.1300
   44MOL   H19114037   7.580   5.389   4.077  0.2822  0.4580 -2.0065
   44MOL   H19214038   7.713   5.346   4.164 -0.5046  1.2337  1.1200
   44MOL   H19314039   7.704   5.303   3.993 -0.5112 -0.3302  1.3025
   44MOL   C19414040   0.181   5.580   4.262  0.3483 -0.1381  0.2176
   44MOL   C19514041   0.253   5.557   4.396  0.0742  0.4146 -0.6768
   44MOL   C19614042   0.168   5.465   4.490 -0.0574 -0.1924 -0.3458
   44MOL   O19714043   0.049   5.495   4.516 -0.3304 -0.0277  0.0541
   44MOL   N19814044   0.217   5.356   4.551 -0.0974  0.6509 -0.6132
   44MOL   C19914045   0.358   5.319   4.545  0.5092  0.3152 -0.6979
   44MOL   C20014046   0.131   5.262   4.637  0.1130  0.5849  0.0894
   44MOL   H20114047   0.251   5.623   4.190 -1.2869  0.7099 -0.8809
   44MOL   H20214048   0.119   5.666   4.289 -1.4184 -0.9285 -1.2203
   44MOL   H20314049   0.349   5.507   4.379 -1.0544 -1.5898 -1.2825
   44MOL   H20414050   0.401   5.287   4.449  1.3687 -0.8300  0.0528
   44MOL   H20514051   0.422   5.396   4.586  0.9209 -0.2405 -0.2887
   44MOL   H20614052   0.381   5.237   4.614  0.2932  0.6294 -0.2540
   44MOL   H20714053   0.033   5.234   4.599  0.5915  0.4933 -1.0905
   44MOL   H20814054   0.109   5.324   4.724 -0.9999 -0.4381  0.5502
   44MOL   H20914055   0.188   5.175   4.669  1.9201  2.5135  2.2641
   44MOL   C21014056   0.291   5.685   4.469  0.0335  0.1066 -0.0603
   44MOL   C21114057   0.413   5.763   4.412  0.5063  1.3766  0.1676
   44MOL   C21214058   0.511   5.801   4.529  0.5998  0.8775  0.8593
   44MOL   O21314059   0.473   5.894   4.604  0.3502 -0.0483 -0.6671
   44MOL   N21414060   0.626   5.733   4.544  0.1067 -0.5778 -0.1917
   44MOL   C21514061   0.667   5.620   4.467  0.5707  0.1218 -0.5706
   44MOL   C21614062   0.707   5.767   4.663  0.6214  0.4365 -0.4229
   44MOL   H21714063   0.206   5.753   4.478  0.9345  1.1819  0.4133
   44MOL   H21814064   0.320   5.655   4.569  1.4633 -0.0972 -0.5226
   44MOL   H21914065   0.460   5.701   4.336  1.8498  0.3399  1.8006
   44MOL   H22014066   0.606   5.530   4.479  0.6619  0.2847  1.1992
   44MOL   H22114067   0.679   5.656   4.365  2.0521 -0.6045 -0.6570
   44MOL   H22214068   0.767   5.583   4.490  0.6499 -0.7183 -2.1874
   44MOL   H22314069   0.662   5.822   4.746  0.7601 -0.8526  0.5357
   44MOL   H22414070   0.795   5.818   4.624  1.0188 -0.1964 -0.3713
   44MOL   H22514071   0.746   5.675   4.708 -1.6320 -0.6306 -0.5994
   44MOL   C22614072   0.364   5.884   4.331 -0.5642 -0.2779 -0.8679
   44MOL   C22714073   0.465   5.950   4.225 -0.0551  0.1566 -0.6740
   44MOL   C22814074   0.556   6.056   4.297 -0.3092  0.5363 -0.1889
   44MOL   O22914075   0.499   6.153   4.342  0.1640  0.3926 -0.1406
   44MOL   N23014076   0.691   6.040   4.303  0.0659 -0.2948 -0.3108
   44MOL   C23114077   0.768   5.937   4.230 -0.5259 -0.1012 -0.1504
   44MOL   C23214078   0.779   6.139   4.369  0.1118  0.0546 -0.2609
   44MOL   H23314079   0.279   5.843   4.277 -0.5056 -1.4089 -0.1133
   44MOL   H23414080   0.329   5.963   4.399  2.3534  1.0087 -0.7673
   44MOL   H23514081   0.514   5.871   4.168  3.6245  2.4425 -0.8224
   44MOL   H23614082   0.778   5.844   4.286  4.1488  0.4677  0.1353
   44MOL   H23714083   0.739   5.916   4.127 -2.6308  1.4146  0.0977
   44MOL   H23814084   0.872   5.965   4.210 -0.3642 -0.6600 -0.0890
   44MOL   H23914085   0.730   6.210   4.436  0.6072  2.3658 -2.2940
   44MOL   H24014086   0.843   6.194   4.301  1.8868 -0.6095  0.8334
   44MOL   H24114087   0.855   6.092   4.432  0.5951  1.6268  0.3349
   44MOL   C24214088   0.390   6.025   4.111  0.7743 -0.3299  0.3703
   44MOL   C24314089   0.487   6.074   3.994 -0.4274  1.1306  0.0381
   44MOL   C24414090   0.420   6.188   3.911 -0.1455 -0.1565 -0.3021
   44MOL   O24514091   0.319   6.158   3.848  0.0065  0.1508 -0.6888
   44MOL   N24614092   0.457   6.320   3.930  0.3487 -0.3290  0.3492
   44MOL   C24714093   0.385   6.430   3.871 -0.2768 -0.6097  0.1472
   44MOL   C24814094   0.577   6.363   4.000  0.2450  0.1154 -0.2662
   44MOL   H24914095   0.321   5.952   4.068 -2.4412  1.7979  1.7328
   44MOL   H25014096   0.335   6.112   4.145  0.2260 -0.4460 -0.2199
   44MOL   H25114097   0.581   6.117   4.031  0.0578  0.7490 -0.7372
   44MOL   H25214098   0.311   6.399   3.797  2.4111 -5.9803 -0.5373
   44MOL   H25314099   0.338   6.505   3.935  0.1498  1.1044 -1.4867
   44MOL   H25414100   0.463   6.489   3.823  0.0064 -0.3907  0.8686
   44MOL   H25514101   0.590   6.315   4.097 -1.2980 -0.3476 -0.2888
   44MOL   H25614102   0.568   6.469   4.025  4.4748  0.4607  0.1712
   44MOL   H25714103   0.663   6.360   3.933  0.7453  0.6111  0.3464
   44MOL   C25814104   0.514   5.955   3.900  0.2165 -0.4226 -0.5184
   44MOL   C25914105   0.594   5.976   3.770 -0.3271  0.9643  0.5078
   44MOL   C26014106   0.562   5.854   3.670 -0.0231  0.4176  0.2587
   44MOL   O26114107   0.590   5.740   3.708 -0.4867 -0.1550 -0.2106
   44MOL   N26214108   0.501   5.875   3.547  0.6308  0.1143  0.8723
   44MOL   C26314109   0.473   6.013   3.486  0.1624 -0.1363 -0.2336
   44MOL   C26414110   0.434   5.766   3.466  0.3456 -0.6161 -0.1212
   44MOL   H26514111   0.563   5.874   3.953 -0.8379 -1.8007 -1.5845
   44MOL   H26614112   0.418   5.914   3.866 -0.5661  0.8096  0.1763
   44MOL   H26714113   0.553   6.061   3.715 -1.7572 -0.6559 -0.9958
   44MOL   H26814114   0.558   6.033   3.422  0.3058  1.0276  0.3106
   44MOL   H26914115   0.385   6.002   3.422 -0.0653 -1.4938  0.2903
   44MOL   H27014116   0.447   6.093   3.556 -0.6918 -1.4921  1.0297
   44MOL   H27114117   0.326   5.779   3.462  0.3596 -0.6803 -0.8224
   44MOL   H27214118   0.441   5.662   3.498  1.8652 -0.6174 -0.4181
   44MOL   H27314119   0.479   5.758   3.367  4.0498  0.1125  1.4279
   44MOL   C27414120   0.746   5.989   3.807  0.8309  0.0400 -0.0241
   44MOL   C27514121   0.848   6.058   3.711  0.2520  0.6646  0.0668
   44MOL   C27614122   0.806   6.200   3.688  0.1664  1.2965  0.0431
   44MOL   O27714123   0.740   6.216   3.587 -0.2633 -0.4832 -0.2706
   44MOL   N27814124   0.846   6.302   3.763 -0.5096 -1.0192  0.0743
   44MOL   C27914125   0.926   6.277   3.881 -0.1092 -0.1176  0.5228
   44MOL   C28014126   0.804   6.437   3.727 -0.9627 -0.3679 -0.5455
   44MOL   H28114127   0.750   6.038   3.904  2.4170  0.2964 -0.2018
   44MOL   H28214128   0.768   5.885   3.832  3.3542  0.5568  0.0353
   44MOL   H28314129   0.935   6.052   3.776  0.8088  1.7861 -0.5716
   44MOL   H28414130   1.030   6.266   3.848 -0.7264 -0.6762 -1.2958
   44MOL   H28514131   0.921   6.362   3.949  2.6839  0.2928  0.2943
   44MOL   H28614132   0.883   6.190   3.932 -0.3185 -0.4161 -0.1629
   44MOL   H28714133   0.705   6.442   3.683 -1.9674 -0.7252  1.5924
   44MOL   H28814134   0.874   6.475   3.653 -1.1369  1.3873  0.1547
   44MOL   H28914135   0.800   6.508   3.810 -1.4689  0.6634 -1.4296
   44MOL   C29014136   0.875   5.980   3.575 -0.6971 -0.9373 -0.3516
   44MOL   C29114137   0.974   6.035   3.471 -0.3025 -0.6167  0.6799
   44MOL   C29214138   0.964   5.961   3.338  0.1559  0.3473 -0.4614
   44MOL   O29314139   0.975   5.844   3.345  0.2148 -0.2107  0.5315
   44MOL   N29414140   0.947   6.021   3.218 -0.5933 -0.0177 -0.1190
   44MOL   C29514141   0.940   5.940   3.096  0.4369  0.3364  0.0307
   44MOL   C29614142   0.924   6.160   3.210 -0.5173 -0.3092 -0.2329
   44MOL   H29714143   0.919   5.882   3.595  0.0068 -0.3289  1.1871
   44MOL   H29814144   0.777   5.961   3.531 -1.1776  0.5580  0.0498
   44MOL   H29914145   0.940   6.137   3.455 -1.0517 -0.6694  1.8592
   44MOL   H30014146   1.029   5.883   3.069 -0.7650 -0.8465 -1.5810
   44MOL   H30114147   0.852   5.876   3.101  0.5922  0.0569 -0.7735
   44MOL   H30214148   0.919   6.001   3.008  1.0869 -1.8415 -1.7016
   44MOL   H30314149   0.998   6.224   3.257 -0.0823  0.4179 -1.8436
   44MOL   H30414150   0.825   6.180   3.250  0.0848 -1.3801  1.8256
   44MOL   H30514151   0.912   6.199   3.108  0.7210 -0.1416 -0.3222
   44MOL   C30614152   1.114   6.043   3.534 -0.8122 -0.7192  0.0708
   44MOL   C30714153   1.227   6.112   3.459  0.0866 -0.5786  0.0731
   44MOL   C30814154   1.369   6.084   3.520 -0.5457  0.0729 -0.0296
   44MOL   O30914155   1.371   6.036   3.630  0.0918 -0.0445  0.6227
   44MOL   N31014156   1.488   6.112   3.454  0.3613 -0.3266 -0.1793
   44MOL   C31114157   1.625   6.063   3.496  0.2891  0.5934  0.1705
   44MOL   C31214158   1.489   6.190   3.327  0.2227 -0.5198 -0.7388
   44MOL   H31314159   1.101   6.099   3.626 -3.3357 -1.0097 -0.0759
   44MOL   H31414160   1.140   5.942   3.565  0.7796 -0.0921  0.7913
   44MOL   H31514161   1.229   6.094   3.351  0.0528  1.2020 -0.2416
   44MOL   H31614162   1.681   6.049   3.403 -2.3319 -0.1275 -1.3499
   44MOL   H31714163   1.674   6.132   3.564 -0.4025 -0.1419  1.4390
   44MOL   H31814164   1.608   5.971   3.552 -1.3926 -0.0588 -1.3541
   44MOL   H31914165   1.407   6.261   3.317  1.9742  1.2761 -2.4960
   44MOL   H32014166   1.491   6.121   3.243  0.6446 -1.0610 -0.2903
   44MOL   H32114167   1.583   6.242   3.315 -0.1354  0.1122 -0.8072
   44MOL   H32214168   1.213   6.220   3.465  1.1771 -0.3771 -0.8531
   45MOL     C114169   1.914   0.048   3.468 -0.1280 -0.5456  0.0016
   45MOL     C214170   1.800   0.155   3.484  0.1566  0.2071  1.1857
   45MOL     C314171   1.862   0.291   3.483  0.3023 -0.4727 -0.1635
   45MOL     O414172   1.915   0.334   3.584 -0.0374  0.2497  0.1920
   45MOL     N514173   1.857   0.377   3.375 -0.0055  0.0065 -0.3173
   45MOL     C614174   1.778   0.358   3.255  1.1722  0.3014 -0.1025
   45MOL     C714175   1.945   0.498   3.380 -0.4853 -0.6407 -0.2463
   45MOL     H814176   1.929   0.027   3.362 -0.4367 -1.7585  0.1958
   45MOL     H914177   1.875   7.805   3.498  0.3805 -0.6067  0.4808
   45MOL    H1014178   1.731   0.149   3.399  0.8180  2.2436  0.4671
   45MOL    H1114179   1.825   0.285   3.190  0.8490  1.1426 -1.3057
   45MOL    H1214180   1.672   0.340   3.275  0.1393  2.4515 -3.3627
   45MOL    H1314181   1.772   0.452   3.200 -0.4216  0.0518 -0.3754
   45MOL    H1414182   1.951   0.552   3.285  0.2189  3.7272  2.1365
   45MOL    H1514183   2.049   0.467   3.390 -0.4082  0.0079  0.9706
   45MOL    H1614184   1.919   0.561   3.465  0.9484  0.9751 -0.9560
   45MOL    H1714185   2.012   0.073   3.508  0.5808  0.5190 -2.2981
   45MOL    C1814186   1.711   0.118   3.613 -0.4617 -0.4649  0.1040
   45MOL    C1914187   1.608   0.218   3.678 -0.0252  0.2989  0.2081
   45MOL    C2014188   1.586   0.162   3.824 -0.3374  0.5414 -0.3853
   45MOL    O2114189   1.510   0.069   3.848  0.0209 -0.0203  1.0909
   45MOL    N2214190   1.668   0.198   3.922 -0.3261  0.2323 -0.2171
   45MOL    C2314191   1.665   0.134   4.051 -0.1603 -0.2227 -0.2376
   45MOL    C2414192   1.742   0.328   3.921 -0.3692  0.1885 -0.4172
   45MOL    H2514193   1.661   0.023   3.598 -1.4719  0.4198 -2.4755
   45MOL    H2614194   1.778   0.101   3.698 -0.0791  1.8822  0.3047
   45MOL    H2714195   1.659   0.312   3.695 -0.4837  0.8689 -1.5590
   45MOL    H2814196   1.677   0.027   4.037  0.7304  0.2559 -3.4943
   45MOL    H2914197   1.725   0.180   4.129 -0.4343 -0.3288  0.0380
   45MOL    H3014198   1.560   0.154   4.075 -0.0220 -0.2789  0.4016
   45MOL    H3114199   1.801   0.341   4.012  1.2365 -1.1495 -1.2182
   45MOL    H3214200   1.666   0.405   3.914 -0.4200  0.0915 -0.9258
   45MOL    H3314201   1.807   0.345   3.835  0.0310  1.0222  0.0506
   45MOL    C3414202   1.468   0.233   3.598 -0.0612 -0.1444 -0.4303
   45MOL    C3514203   1.366   0.323   3.671  0.0058 -0.6774  0.8321
   45MOL    C3614204   1.220   0.299   3.618  0.2337 -0.5628 -0.5807
   45MOL    O3714205   1.188   0.367   3.521 -0.2914 -0.7445 -0.8140
   45MOL    N3814206   1.143   0.197   3.664  0.0720 -0.5822 -0.5880
   45MOL    C3914207   1.179   0.118   3.777 -0.2678 -0.8055 -0.3458
   45MOL    C4014208   1.013   0.172   3.605 -0.2642 -0.2364  0.1435
   45MOL    H4114209   1.493   0.288   3.507 -3.0011  0.0275 -1.1733
   45MOL    H4214210   1.420   0.137   3.580  1.8170 -1.3405  0.7895
   45MOL    H4314211   1.375   0.286   3.773 -1.8972  0.0792  1.2951
   45MOL    H4414212   1.252   0.039   3.759  0.9685  0.1614  0.3602
   45MOL    H4514213   1.217   0.176   3.861 -0.2840 -0.5936 -0.4833
   45MOL    H4614214   1.091   0.070   3.821  0.2255 -0.0692  1.4903
   45MOL    H4714215   0.965   0.078   3.632 -1.1844 -0.1510 -1.1287
   45MOL    H4814216   1.034   0.175   3.498 -0.4533  1.9693  0.1453
   45MOL    H4914217   0.933   0.242   3.629 -0.3460 -0.5019  0.6530
   45MOL    C5014218   1.409   0.476   3.672 -0.3004 -0.4458  0.2032
   45MOL    C5114219   1.356   0.563   3.794  0.3050  0.6228  0.6112
   45MOL    C5214220   1.442   0.529   3.922  0.2526  0.2730 -0.2152
   45MOL    O5314221   1.413   0.434   3.991  0.6997 -0.6479  0.3596
   45MOL    N5414222   1.543   0.614   3.959 -0.3007  0.1522 -0.0771
   45MOL    C5514223   1.574   0.738   3.880  0.4092  0.2835 -0.4198
   45MOL    C5614224   1.603   0.597   4.093 -0.2143 -0.5437 -0.0718
   45MOL    H5714225   1.518   0.486   3.668 -0.0797 -0.6842  3.5541
   45MOL    H5814226   1.377   0.515   3.576 -1.6243 -0.6696  0.5464
   45MOL    H5914227   1.368   0.668   3.766  0.5656  0.1189 -1.2087
   45MOL    H6014228   1.644   0.802   3.934  0.5474 -0.3810  0.2009
   45MOL    H6114229   1.616   0.698   3.788 -0.9064 -1.2569 -0.3684
   45MOL    H6214230   1.489   0.802   3.858 -1.0340 -0.9518  1.4068
   45MOL    H6314231   1.537   0.644   4.165 -0.5145 -0.9837 -0.0527
   45MOL    H6414232   1.700   0.642   4.112  0.1124 -2.2306  2.5507
   45MOL    H6514233   1.612   0.493   4.125 -1.6602 -1.1457 -1.5154
   45MOL    C6614234   1.201   0.545   3.816 -0.6418  1.0830  0.2757
   45MOL    C6714235   1.115   0.637   3.913  0.8405 -0.1168  0.6176
   45MOL    C6814236   1.034   0.555   4.013  0.5700  0.0433 -0.6784
   45MOL    O6914237   0.941   0.489   3.969 -0.1993  0.3577 -0.1106
   45MOL    N7014238   1.056   0.556   4.149 -0.2543  0.5155 -0.5702
   45MOL    C7114239   0.966   0.477   4.238  0.3308  0.2477  0.2995
   45MOL    C7214240   1.177   0.612   4.208  0.6104 -0.6191 -0.7650
   45MOL    H7314241   1.156   0.535   3.717  1.2763 -0.1844 -0.5177
   45MOL    H7414242   1.176   0.443   3.847 -0.1337 -0.1137 -2.9714
   45MOL    H7514243   1.201   0.684   3.961  2.3394 -1.8011 -0.3516
   45MOL    H7614244   0.996   0.373   4.243  0.9816  0.3581 -1.0246
   45MOL    H7714245   0.974   0.524   4.336 -1.2673 -0.5772  0.8423
   45MOL    H7814246   0.858   0.479   4.223 -0.1706 -2.3274  3.1314
   45MOL    H7914247   1.272   0.585   4.162  1.3241  0.0752  0.2852
   45MOL    H8014248   1.188   0.576   4.311 -0.3871 -2.2954 -1.2202
   45MOL    H8114249   1.172   0.721   4.213 -2.5395 -0.6555 -1.7987
   45MOL    C8214250   1.023   0.728   3.841 -0.6956  0.2670 -0.4832
   45MOL    C8314251   1.075   0.859   3.784  0.3816  0.0991  0.3040
   45MOL    C8414252   1.133   0.950   3.893  0.4356  0.1245  1.0972
   45MOL    O8514253   1.078   0.943   3.999 -0.0964 -0.0996  0.5586
   45MOL    N8614254   1.251   1.010   3.871 -0.3174  0.2509  0.4607
   45MOL    C8714255   1.315   1.028   3.744 -0.0219 -0.3286 -0.3404
   45MOL    C8814256   1.336   1.060   3.976  0.9005 -0.2248  0.1809
   45MOL    H8914257   0.974   0.671   3.762 -1.6162 -0.6591  0.7177
   45MOL    H9014258   0.946   0.752   3.914 -0.2088 -1.9624  0.8312
   45MOL    H9114259   1.158   0.845   3.715  0.7611 -1.3746  1.0432
   45MOL    H9214260   1.403   1.091   3.734  2.8234 -3.5884  3.0173
   45MOL    H9314261   1.345   0.929   3.711  1.3108  0.0396 -0.2568
   45MOL    H9414262   1.242   1.051   3.666 -0.8530 -0.9533  0.2448
   45MOL    H9514263   1.288   1.074   4.072  2.1901 -1.6531  1.0552
   45MOL    H9614264   1.388   1.149   3.940 -3.6172  1.9763 -1.2153
   45MOL    H9714265   1.416   0.989   3.996  0.6226 -0.4224  0.5831
   45MOL    C9814266   0.975   0.925   3.693 -0.5102 -0.3317 -0.1510
   45MOL    C9914267   0.945   0.864   3.550 -0.0319  0.7135 -0.4248
   45MOL   C10014268   1.069   0.880   3.450 -0.4427  0.1440 -0.7899
   45MOL   O10114269   1.109   0.993   3.432 -0.0053 -0.2498 -0.0162
   45MOL   N10214270   1.126   0.776   3.382  0.0450 -0.0554  0.2682
   45MOL   C10314271   1.212   0.800   3.265 -0.4047 -0.5347 -0.2808
   45MOL   C10414272   1.092   0.637   3.409  0.1542 -0.4714 -0.0566
   45MOL   H10514273   0.879   0.938   3.742  0.7420 -0.2158  2.3720
   45MOL   H10614274   1.019   1.022   3.669 -0.3498 -0.6371 -1.1230
   45MOL   H10714275   0.917   0.762   3.573  0.2028  1.5772  4.1261
   45MOL   H10814276   1.216   0.896   3.213  1.5668  0.0858  0.9476
   45MOL   H10914277   1.313   0.762   3.281  0.4074  1.4855 -0.5006
   45MOL   H11014278   1.172   0.737   3.185 -2.9246  1.1815 -0.4183
   45MOL   H11114279   1.150   0.567   3.348  0.8317  0.0895 -0.0592
   45MOL   H11214280   0.989   0.623   3.375  0.8900 -2.5743 -1.5379
   45MOL   H11314281   1.098   0.600   3.511 -1.0521 -1.9361 -0.4948
   45MOL   C11414282   0.811   0.921   3.491  0.3062 -0.2852 -0.3905
   45MOL   C11514283   0.684   0.833   3.510 -0.4449  0.2986  0.1291
   45MOL   C11614284   0.705   0.705   3.425  0.6979  0.3369  0.2313
   45MOL   O11714285   0.761   0.706   3.315 -0.2534  0.1625  0.2588
   45MOL   N11814286   0.667   0.583   3.471 -0.0453 -0.7900  0.1578
   45MOL   C11914287   0.693   0.471   3.388 -0.0354 -0.2392  0.3392
   45MOL   C12014288   0.638   0.553   3.610  0.1084  0.2115 -0.1048
   45MOL   H12114289   0.811   1.021   3.533 -0.3500 -1.3157  2.1735
   45MOL   H12214290   0.821   0.937   3.384  3.4874 -0.6086 -0.2057
   45MOL   H12314291   0.699   0.809   3.615 -1.1456  0.4423  0.2591
   45MOL   H12414292   0.632   0.496   3.301 -0.4518 -2.3592 -0.0211
   45MOL   H12514293   0.794   0.452   3.349 -1.4183 -0.0542 -3.5618
   45MOL   H12614294   0.652   0.379   3.431 -2.2481  0.6038  0.0897
   45MOL   H12714295   0.715   0.587   3.679  2.6542  0.2090 -2.8564
   45MOL   H12814296   0.642   0.446   3.631  0.9153  0.4335  0.9212
   45MOL   H12914297   0.541   0.586   3.647 -0.4234  1.5254 -2.6140
   45MOL   C13014298   0.542   0.904   3.494  0.4732  0.0715 -0.0081
   45MOL   C13114299   0.509   0.951   3.348 -0.1610  0.0674  0.0815
   45MOL   C13214300   0.582   1.080   3.305 -0.4305  0.0679 -0.2175
   45MOL   O13314301   0.588   1.172   3.387 -0.3105 -0.0940 -0.2256
   45MOL   N13414302   0.658   1.077   3.194 -0.2121 -0.3655  0.0027
   45MOL   C13514303   0.665   0.962   3.096 -0.2407 -0.2088  0.0406
   45MOL   C13614304   0.771   1.171   3.175 -0.3622  0.5412  0.0977
   45MOL   H13714305   0.473   0.821   3.511  0.6229  0.2411  1.4719
   45MOL   H13814306   0.513   0.982   3.564 -0.8706 -1.2991  0.9988
   45MOL   H13914307   0.537   0.864   3.288  1.2701  2.2405 -2.5015
   45MOL   H14014308   0.747   0.896   3.121 -1.4985 -2.3239 -1.2898
   45MOL   H14114309   0.576   0.899   3.090 -0.5096  0.2025 -0.3667
   45MOL   H14214310   0.678   0.995   2.993 -0.1530 -0.1147  0.0810
   45MOL   H14314311   0.837   1.171   3.262 -2.4268 -1.0170  1.7313
   45MOL   H14414312   0.734   1.270   3.146  0.6853  0.8298 -0.2806
   45MOL   H14514313   0.831   1.141   3.090 -2.0721 -2.8859  0.0167
   45MOL   C14614314   0.355   0.976   3.333 -0.1591  0.7389 -0.3842
   45MOL   C14714315   0.281   0.959   3.199  0.5890 -0.0851  0.1185
   45MOL   C14814316   0.173   1.067   3.182 -0.4279  0.5444 -0.5048
   45MOL   O14914317   0.067   1.064   3.243  0.3179  0.3787  0.3559
   45MOL   N15014318   0.204   1.172   3.102  0.2211  0.0626  0.3021
   45MOL   C15114319   0.096   1.248   3.050 -0.4650 -0.1069  0.3473
   45MOL   C15214320   0.340   1.226   3.065 -0.3034 -0.4026 -0.3072
   45MOL   H15314321   0.310   0.910   3.407  0.6181  1.3215  0.6070
   45MOL   H15414322   0.347   1.076   3.375 -0.1090  0.0106  1.3842
   45MOL   H15514323   0.346   0.963   3.112 -1.2452  3.7714 -1.1760
   45MOL   H15614324   0.135   1.276   2.952 -0.7417  1.7100  0.7344
   45MOL   H15714325   0.004   1.194   3.029  0.4516 -2.1035  1.2731
   45MOL   H15814326   0.069   1.339   3.103 -2.2144 -0.8775  0.7984
   45MOL   H15914327   0.331   1.327   3.023  1.1167 -0.1387  0.0122
   45MOL   H16014328   0.393   1.148   3.011 -0.8810  0.2954 -1.9459
   45MOL   H16114329   0.387   1.233   3.163  0.4201 -0.0852 -0.6725
   45MOL   C16214330   0.219   0.822   3.180 -0.4175 -0.2667 -0.1900
   45MOL   C16314331   0.314   0.710   3.116  0.7754 -0.6923  0.3216
   45MOL   C16414332   0.373   0.729   2.978 -0.3296 -0.5594 -0.5079
   45MOL   O16514333   0.313   0.804   2.909  0.4878 -0.3079  0.2314
   45MOL   N16614334   0.484   0.667   2.936 -0.2743 -0.7958 -0.5917
   45MOL   C16714335   0.512   0.651   2.796 -0.3784 -0.0347  0.5025
   45MOL   C16814336   0.583   0.606   3.017  0.4221 -0.1628  0.1383
   45MOL   H16914337   0.190   0.796   3.281 -2.1141  2.5651  0.1235
   45MOL   H17014338   0.122   0.817   3.130 -0.8618  4.4797 -0.0485
   45MOL   H17114339   0.404   0.727   3.176  0.1306  2.1188  0.5710
   45MOL   H17214340   0.579   0.566   2.781 -0.5601  0.3493 -3.0301
   45MOL   H17314341   0.427   0.629   2.732 -0.6271 -2.9040  1.7442
   45MOL   H17414342   0.556   0.743   2.757  1.0839  0.3538  2.9596
   45MOL   H17514343   0.609   0.647   3.114 -1.8798  0.5624  0.4757
   45MOL   H17614344   0.682   0.596   2.973  0.5799 -0.7610  0.6234
   45MOL   H17714345   0.560   0.499   3.021  2.3249 -0.6778 -1.7029
   45MOL   C17814346   0.275   0.563   3.155  0.0640  0.5250 -0.1900
   45MOL   C17914347   0.159   0.511   3.062 -0.4310  0.3384  0.6255
   45MOL   C18014348   0.017   0.547   3.112  0.2200  0.0048  0.3835
   45MOL   O18114349   7.841   0.531   3.231 -0.6075  0.2339 -0.4602
   45MOL   N18214350   7.776   0.598   3.025 -0.7634  0.1474 -0.4412
   45MOL   C18314351   7.798   0.621   2.878  0.5344  0.6829  0.0753
   45MOL   C18414352   7.650   0.645   3.083  0.2452 -0.3025  0.3338
   45MOL   H18514353   0.358   0.494   3.144  0.0999  0.5276  0.0503
   45MOL   H18614354   0.258   0.557   3.263 -3.1010 -1.1923 -0.7305
   45MOL   H18714355   0.187   0.552   2.965 -1.6973 -0.3616 -0.0352
   45MOL   H18814356   7.848   0.535   2.835 -1.6541 -0.3442 -0.4379
   45MOL   H18914357   7.708   0.631   2.819 -0.1567  1.1809  1.1884
   45MOL   H19014358   0.019   0.700   2.864  2.6523 -0.8179  2.4223
   45MOL   H19114359   7.651   0.749   3.052 -1.5565  0.1887  1.8450
   45MOL   H19214360   7.648   0.653   3.192 -0.3009 -3.1650  0.5862
   45MOL   H19314361   7.557   0.598   3.053 -1.8032  2.7296  1.7484
   45MOL   C19414362   0.162   0.358   3.057 -0.0650 -0.5350 -0.1941
   45MOL   C19514363   0.278   0.274   3.002 -0.2214  0.2246 -0.3460
   45MOL   C19614364   0.307   0.320   2.856 -0.4153 -0.0683 -0.1185
   45MOL   O19714365   0.226   0.387   2.791  0.2821 -0.2659 -0.0516
   45MOL   N19814366   0.420   0.279   2.792  0.0307  0.4123 -0.2970
   45MOL   C19914367   0.428   0.285   2.648 -0.4317  0.1511  0.0715
   45MOL   C20014368   0.528   0.213   2.859 -0.9776  0.7389  0.6000
   45MOL   H20114369   0.150   0.320   3.159 -1.1839 -0.7857 -0.4161
   45MOL   H20214370   0.069   0.313   3.025  0.1111 -2.6096  2.0502
   45MOL   H20314371   0.367   0.283   3.064  1.0735  1.2494 -2.3335
   45MOL   H20414372   0.391   0.188   2.615 -1.1567  0.6486 -0.5935
   45MOL   H20514373   0.375   0.365   2.597  1.2485  0.0438 -1.8870
   45MOL   H20614374   0.529   0.313   2.619 -0.7618  0.7285 -0.5343
   45MOL   H20714375   0.620   0.204   2.801 -0.4397 -0.5105  1.6211
   45MOL   H20814376   0.504   0.118   2.906  0.0676  0.3969  0.4677
   45MOL   H20914377   0.560   0.281   2.938  1.0854 -1.3463  1.6360
   45MOL   C21014378   0.230   0.122   3.001  0.2257 -0.1351 -0.1436
   45MOL   C21114379   0.176   0.057   3.135 -0.4208 -0.3806  0.0136
   45MOL   C21214380   0.283   0.067   3.243 -0.3529  0.3208  0.2944
   45MOL   O21314381   0.386   0.008   3.220  0.6214 -0.5435  0.0855
   45MOL   N21414382   0.265   0.142   3.355  0.5247 -0.1941  0.3389
   45MOL   C21514383   0.128   0.179   3.407 -0.0200  0.2555  0.8307
   45MOL   C21614384   0.379   0.170   3.443 -0.2653  0.7917 -0.2268
   45MOL   H21714385   0.155   0.113   2.923  0.0196 -0.8586  0.1438
   45MOL   H21814386   0.310   0.067   2.951  0.6406 -1.8619  2.3481
   45MOL   H21914387   0.101   0.125   3.173  0.8559  0.4231  1.1553
   45MOL   H22014388   0.054   0.100   3.394 -0.8701  1.5680 -2.6734
   45MOL   H22114389   0.136   0.199   3.514  0.6070 -1.0637  1.0412
   45MOL   H22214390   0.083   0.268   3.363 -0.1797 -0.5133 -0.5653
   45MOL   H22314391   0.381   0.279   3.444 -1.9381  0.8430  0.7842
   45MOL   H22414392   0.476   0.135   3.408  0.4390  1.1103  1.3456
   45MOL   H22514393   0.361   0.125   3.541 -0.5445 -0.0676 -0.6718
   45MOL   C22614394   0.112   7.767   3.110  0.1964 -0.9547 -0.4175
   45MOL   C22714395   7.825   7.770   3.054 -0.2249  0.3599 -0.3870
   45MOL   C22814396   7.719   7.793   3.169 -0.0298 -0.4540  0.0309
   45MOL   O22914397   7.727   7.712   3.258  0.1156  0.0424  0.4001
   45MOL   N23014398   7.639   0.044   3.177 -0.4415 -0.2973 -0.0099
   45MOL   C23114399   7.533   0.050   3.282 -0.0197  0.1818 -0.5473
   45MOL   C23214400   7.656   0.167   3.095  0.0554 -0.9616  0.3018
   45MOL   H23314401   0.166   7.698   3.043  2.5719 -2.2299  2.6958
   45MOL   H23414402   0.116   7.710   3.203  1.4628  0.2741  0.2945
   45MOL   H23514403   7.817   7.844   2.974  0.3613 -0.5101 -1.2541
   45MOL   H23614404   7.533   7.823   3.356  0.9147  0.0973 -0.6417
   45MOL   H23714405   7.552   0.141   3.340  0.7765 -1.4704  1.8834
   45MOL   H23814406   7.436   0.062   3.233 -0.3594 -1.3081 -0.2671
   45MOL   H23914407   7.568   0.232   3.094 -0.4982 -1.7275 -1.9628
   45MOL   H24014408   7.677   0.146   2.991  0.5726  0.9304  0.0066
   45MOL   H24114409   7.735   0.239   3.117 -1.7976  1.3237 -0.2571
   45MOL   C24214410   7.789   7.638   2.979  0.0134 -0.0364  0.1395
   45MOL   C24314411   7.643   7.628   2.919  0.1632  0.4310 -0.4669
   45MOL   C24414412   7.604   7.481   2.881  0.6439 -0.4885 -0.0382
   45MOL   O24514413   7.646   7.439   2.775  0.1190  0.0224 -0.6104
   45MOL   N24614414   7.527   7.413   2.970  0.0861  0.1171 -0.3533
   45MOL   C24714415   7.473   7.464   3.095 -0.8434 -0.3021  0.1896
   45MOL   C24814416   7.495   7.275   2.950  0.2996 -0.2235 -0.3716
   45MOL   H24914417   0.012   7.630   2.901  0.5481 -0.9078  0.7499
   45MOL   H25014418   7.803   7.552   3.044 -0.2582  0.6505  1.1229
   45MOL   H25114419   7.578   7.683   2.986 -1.4057 -1.2921 -0.5293
   45MOL   H25214420   7.557   7.501   3.155  0.3289 -4.2728  1.1234
   45MOL   H25314421   7.398   7.540   3.072  0.9223  1.6191  0.5639
   45MOL   H25414422   7.443   7.385   3.163  0.8923 -0.6793  0.5591
   45MOL   H25514423   7.523   7.244   2.850 -1.5153  0.7973 -1.2216
   45MOL   H25614424   7.387   7.265   2.963  0.3881  0.4662  1.0067
   45MOL   H25714425   7.534   7.211   3.030  1.0596  0.0624 -0.5140
   45MOL   C25814426   7.642   7.713   2.784 -0.3722  0.3882 -0.5930
   45MOL   C25914427   7.496   7.734   2.720  0.6059 -0.2833  0.9395
   45MOL   C26014428   7.519   7.797   2.576  0.3706  0.5321 -0.0208
   45MOL   O26114429   7.573   0.053   2.574 -0.7263  0.1871 -0.3604
   45MOL   N26214430   7.483   7.725   2.467 -0.6816 -0.0769  0.1270
   45MOL   C26314431   7.498   7.788   2.333 -0.5581  0.2146 -0.2156
   45MOL   C26414432   7.439   7.587   2.466  0.7603  0.3824  0.5341
   45MOL   H26514433   7.681   7.814   2.795 -0.5097  0.4276 -0.4538
   45MOL   H26614434   7.703   7.670   2.705 -0.0200  1.3189 -0.8355
   45MOL   H26714435   7.438   7.642   2.711  0.9493 -0.6976  2.6741
   45MOL   H26814436   7.582   7.742   2.281 -0.0553 -1.1375  1.7478
   45MOL   H26914437   7.411   7.768   2.269  0.5856 -1.6985 -1.2330
   45MOL   H27014438   7.509   0.043   2.338 -2.8971  0.5198 -0.9741
   45MOL   H27114439   7.521   7.520   2.491  1.0963  0.7085  0.3127
   45MOL   H27214440   7.401   7.560   2.367 -0.1158 -3.3936  1.8172
   45MOL   H27314441   7.357   7.572   2.536  1.1501  2.0950  1.3825
   45MOL   C27414442   7.409   7.823   2.816 -0.2523  0.0470  0.4207
   45MOL   C27514443   7.287   7.744   2.876 -0.5469  0.0974 -0.4159
   45MOL   C27614444   7.179   7.697   2.778 -0.2949  0.2042 -0.0673
   45MOL   O27714445   7.133   7.776   2.698  0.4761  0.0873 -0.3423
   45MOL   N27814446   7.137   7.565   2.774 -0.0790 -0.0859  0.1817
   45MOL   C27914447   7.020   7.523   2.700  0.2702 -0.0903  0.2322
   45MOL   C28014448   7.210   7.456   2.842 -0.1761  0.1967 -0.2465
   45MOL   H28114449   7.468   0.009   2.899 -0.5168 -0.1788  0.7157
   45MOL   H28214450   7.383   0.055   2.753  0.5917  2.2853  2.9900
   45MOL   H28314451   7.345   7.659   2.914  0.0862  1.1916  1.1166
   45MOL   H28414452   6.940   7.571   2.756 -1.1121 -0.4248 -1.3951
   45MOL   H28514453   7.023   7.555   2.596 -0.0130  0.7040  0.4630
   45MOL   H28614454   6.989   7.419   2.705  2.7748 -0.8840 -0.0826
   45MOL   H28714455   7.155   7.364   2.860  2.8005 -1.4337  0.9162
   45MOL   H28814456   7.249   7.477   2.942  1.3568  1.3949 -1.0809
   45MOL   H28914457   7.292   7.429   2.775  0.4689  3.2777 -0.7826
   45MOL   C29014458   7.219   7.813   2.988  0.3537  0.4031  0.0229
   45MOL   C29114459   7.141   0.092   2.967  0.0059  0.2923  0.1984
   45MOL   C29214460   7.239   0.219   2.975 -0.5027  0.5016  0.3836
   45MOL   O29314461   7.306   0.230   3.079 -0.4460  0.4193 -0.0425
   45MOL   N29414462   7.253   0.304   2.867  0.2430 -0.0099 -0.1441
   45MOL   C29514463   7.358   0.410   2.883 -0.1237 -0.3112  0.0084
   45MOL   C29614464   7.188   0.302   2.732  0.1740  0.1687 -0.5053
   45MOL   H29714465   7.140   7.749   3.027 -0.8951  1.1707 -1.2157
   45MOL   H29814466   7.286   7.822   3.074  0.0115 -0.2194  0.3592
   45MOL   H29914467   7.085   0.093   2.873  0.7949 -0.2841 -0.2858
   45MOL   H30014468   7.346   0.496   2.816 -1.6895 -0.0480  0.5935
   45MOL   H30114469   7.357   0.457   2.981  1.9101 -4.9117  2.3495
   45MOL   H30214470   7.461   0.378   2.875  0.8549  2.2621  1.8865
   45MOL   H30314471   7.213   0.383   2.664  1.0192  1.4479  1.2912
   45MOL   H30414472   7.079   0.296   2.738  0.1254  0.1677 -1.3023
   45MOL   H30514473   7.214   0.213   2.675  1.4089  0.6612 -0.7198
   45MOL   C30614474   7.033   0.119   3.072  0.1971 -0.0007 -0.0217
   45MOL   C30714475   6.908   0.195   3.027  0.1596  0.3843  0.2416
   45MOL   C30814476   6.799   0.198   3.143 -0.0539  0.2627 -0.4281
   45MOL   O30914477   6.807   0.135   3.245 -0.4227  0.6637 -0.0970
   45MOL   N31014478   6.687   0.273   3.123  0.0807 -0.5607  0.2215
   45MOL   C31114479   6.650   0.319   2.992  0.5929  0.0801  0.6180
   45MOL   C31214480   6.592   0.301   3.227 -0.2887  0.0467 -0.0909
   45MOL   H31314481   6.995   0.025   3.113  0.6647 -0.2463 -0.1480
   45MOL   H31414482   7.067   0.160   3.166 -1.5234 -0.7799  0.9761
   45MOL   H31514483   6.930   0.299   3.003 -0.5756  0.3351 -0.6895
   45MOL   H31614484   6.667   0.250   2.909 -3.4051 -1.8233  1.2844
   45MOL   H31714485   6.542   0.331   2.983  0.6656  1.7602  1.8418
   45MOL   H31814486   6.698   0.411   2.955 -0.4435  0.6913  0.7849
   45MOL   H31914487   6.553   0.403   3.229 -1.5897 -0.4458 -0.2086
   45MOL   H32014488   6.635   0.271   3.323 -2.3313 -1.1678  0.4664
   45MOL   H32114489   6.512   0.228   3.219  0.9746 -1.5474  1.5696
   45MOL   H32214490   6.870   0.154   2.933  0.8331 -0.2900  0.2642
   46MOL     C114491   6.871   0.403   4.381  0.1009  0.3576 -0.6741
   46MOL     C214492   6.812   0.529   4.444 -0.1644  0.5217 -0.0205
   46MOL     C314493   6.711   0.486   4.555  0.5500  0.1081  0.1261
   46MOL     O414494   6.603   0.440   4.523 -0.6629  0.3212 -0.3144
   46MOL     N514495   6.740   0.507   4.687  0.1836  0.0690 -0.2786
   46MOL     C614496   6.879   0.520   4.741  0.5900  0.3998  0.8471
   46MOL     C714497   6.646   0.473   4.792 -0.3637 -0.0437 -0.3395
   46MOL     H814498   6.958   0.425   4.318 -0.7842  3.3501 -0.9055
   46MOL     H914499   6.801   0.351   4.315  0.4909 -1.8205  0.5828
   46MOL    H1014500   6.894   0.585   4.488  1.3500  0.4230 -2.6343
   46MOL    H1114501   6.953   0.448   4.705  0.3206  0.0775  0.9312
   46MOL    H1214502   6.910   0.623   4.722  2.4052 -0.2063  0.4629
   46MOL    H1314503   6.872   0.513   4.849 -2.0596 -0.6122  0.6447
   46MOL    H1414504   6.653   0.365   4.806  0.2746  0.2390  1.7010
   46MOL    H1514505   6.546   0.511   4.771 -1.4499 -2.3051  0.5785
   46MOL    H1614506   6.662   0.517   4.890 -0.4511  1.6348 -1.0642
   46MOL    H1714507   6.902   0.339   4.463 -3.6611  0.8266  1.1787
   46MOL    C1814508   6.747   0.629   4.339 -0.3744  0.3573  0.2492
   46MOL    C1914509   6.689   0.756   4.398  0.0147  0.0353  0.0513
   46MOL    C2014510   6.602   0.835   4.293  0.7197 -0.0689  0.3301
   46MOL    O2114511   6.664   0.886   4.206 -0.6245  0.5471  0.8094
   46MOL    N2214512   6.467   0.851   4.313  0.1494 -0.0796 -0.2017
   46MOL    C2314513   6.381   0.770   4.409  0.2450  0.1832 -0.1380
   46MOL    C2414514   6.398   0.963   4.251  0.0974 -0.2763 -0.5580
   46MOL    H2514515   6.827   0.641   4.265 -0.0389 -0.7998  0.4076
   46MOL    H2614516   6.659   0.582   4.296 -0.1522  2.1392 -2.2637
   46MOL    H2714517   6.620   0.721   4.475 -0.8561  0.2551 -0.6241
   46MOL    H2814518   6.322   0.823   4.483  0.0198 -0.8776  0.4539
   46MOL    H2914519   6.303   0.724   4.348  0.0313  1.0359 -0.5166
   46MOL    H3014520   6.431   0.685   4.457  0.1419  1.0200  1.4957
   46MOL    H3114521   6.308   0.986   4.307  0.7093  2.6519 -0.6999
   46MOL    H3214522   6.382   0.927   4.149 -1.5332 -0.7640 -0.1403
   46MOL    H3314523   6.461   1.052   4.245  0.9008 -0.7823  0.1228
   46MOL    C3414524   6.799   0.850   4.459 -0.1376 -0.0260 -0.1316
   46MOL    C3514525   6.752   0.956   4.572  0.3831  0.0524 -0.8008
   46MOL    C3614526   6.858   1.065   4.597 -0.2921 -0.9499  0.4678
   46MOL    O3714527   6.940   1.048   4.684 -0.0512  0.6430 -0.4396
   46MOL    N3814528   6.863   1.182   4.529 -0.6879 -0.2438 -0.5500
   46MOL    C3914529   6.963   1.290   4.557 -0.2298 -0.4305  0.0311
   46MOL    C4014530   6.752   1.236   4.449  0.4048 -0.2880 -0.1327
   46MOL    H4114531   6.883   0.791   4.496  0.0126  1.0066  1.2108
   46MOL    H4214532   6.849   0.894   4.373 -0.2679  0.6183  0.1187
   46MOL    H4314533   6.659   1.004   4.541 -0.3386 -0.5860  0.3423
   46MOL    H4414534   7.057   1.236   4.571 -1.2989 -2.3638 -0.0451
   46MOL    H4514535   6.972   1.362   4.476  1.2595 -2.5394 -1.7658
   46MOL    H4614536   6.935   1.344   4.647 -0.1598 -2.0557  1.0594
   46MOL    H4714537   6.696   1.296   4.520  0.3253  0.2560 -0.6436
   46MOL    H4814538   6.678   1.179   4.393 -0.6128 -0.3371  1.2654
   46MOL    H4914539   6.790   1.313   4.381  0.1298 -0.4000 -0.4145
   46MOL    C5014540   6.718   0.871   4.696 -0.1981 -0.3420  0.1056
   46MOL    C5114541   6.662   0.952   4.817  0.5357  0.2601  0.3431
   46MOL    C5214542   6.608   0.858   4.921  0.0866 -0.8671 -0.2637
   46MOL    O5314543   6.502   0.802   4.900  0.2484  0.6096 -0.1593
   46MOL    N5414544   6.688   0.834   5.027 -0.1074  0.1506 -0.1206
   46MOL    C5514545   6.630   0.752   5.135 -0.9124 -0.9281 -0.7979
   46MOL    C5614546   6.825   0.878   5.042  0.8136 -0.0960 -0.1398
   46MOL    H5714547   6.640   0.802   4.663  0.0836 -0.5134 -0.2070
   46MOL    H5814548   6.809   0.819   4.727  0.2379 -0.3335 -1.1351
   46MOL    H5914549   6.742   1.019   4.847  1.8400 -0.5398 -1.2997
   46MOL    H6014550   6.695   0.673   5.173  0.3480  1.4499  2.2295
   46MOL    H6114551   6.618   0.805   5.229 -1.2241  0.5238 -1.6446
   46MOL    H6214552   6.539   0.698   5.112 -1.2748 -0.3846 -0.6546
   46MOL    H6314553   6.838   0.983   5.070 -2.2989  0.4873 -0.6554
   46MOL    H6414554   6.892   0.850   4.961  1.9993  1.5614  0.2320
   46MOL    H6514555   6.855   0.836   5.138 -1.5767 -1.5717  0.0074
   46MOL    C6614556   6.534   1.034   4.771 -0.4155 -0.1017 -0.8130
   46MOL    C6714557   6.466   1.138   4.863  0.7926 -0.0081  0.7052
   46MOL    C6814558   6.567   1.181   4.973  0.0337 -0.4818  0.3720
   46MOL    O6914559   6.550   1.140   5.090  0.1606 -0.0527  0.1948
   46MOL    N7014560   6.661   1.279   4.943 -0.1374  0.0885 -0.2416
   46MOL    C7114561   6.685   1.332   4.817 -0.1943  0.2384 -0.2470
   46MOL    C7214562   6.752   1.332   5.037 -0.7456 -0.0493  0.3647
   46MOL    H7314563   6.568   1.098   4.689 -0.4737 -0.2624 -0.9608
   46MOL    H7414564   6.457   0.970   4.729  1.1617 -2.6230  0.0344
   46MOL    H7514565   6.428   1.220   4.801 -1.6417 -0.4995  1.4800
   46MOL    H7614566   6.789   1.322   4.788  0.2261 -0.3354  1.4415
   46MOL    H7714567   6.616   1.285   4.746 -0.4074 -0.6439  0.5351
   46MOL    H7814568   6.648   1.435   4.824 -2.3074 -0.4986 -0.0675
   46MOL    H7914569   6.717   1.317   5.139 -2.5226 -1.2448 -0.3921
   46MOL    H8014570   6.742   1.441   5.038  2.5767  0.2964  0.2559
   46MOL    H8114571   6.852   1.296   5.015 -1.0264 -0.5184 -0.1587
   46MOL    C8214572   6.336   1.089   4.926 -0.6453 -0.2307 -0.2220
   46MOL    C8314573   6.241   1.186   5.007  0.9357  0.3169 -0.3578
   46MOL    C8414574   6.147   1.108   5.098 -0.3566 -0.8962  0.0774
   46MOL    O8514575   6.061   1.046   5.046 -0.0963  0.4676 -0.2988
   46MOL    N8614576   6.149   1.120   5.230  0.7681 -0.2997  0.2119
   46MOL    C8714577   6.036   1.062   5.311  0.0883  0.7341  0.5357
   46MOL    C8814578   6.258   1.177   5.312  0.5721 -0.4749  0.1133
   46MOL    H8914579   6.272   1.037   4.854 -2.4390  1.3439  0.1832
   46MOL    H9014580   6.361   1.007   4.994  1.8862  1.3121  0.7486
   46MOL    H9114581   6.307   1.234   5.080  0.0713  0.9062  0.0321
   46MOL    H9214582   6.025   1.115   5.406 -1.9018 -0.7967  1.1788
   46MOL    H9314583   5.941   1.066   5.258  0.5699 -3.3807 -0.7800
   46MOL    H9414584   6.048   0.958   5.339 -3.6252  0.2827  0.7107
   46MOL    H9514585   6.351   1.127   5.288  1.8631  1.9679 -0.1033
   46MOL    H9614586   6.248   1.173   5.420  0.7646 -3.6470  0.0751
   46MOL    H9714587   6.282   1.280   5.287  1.4731 -0.0946  2.4938
   46MOL    C9814588   6.170   1.297   4.923  0.1678  0.1783  0.0353
   46MOL    C9914589   6.108   1.421   4.997  0.1182 -0.0614  0.6818
   46MOL   C10014590   6.209   1.492   5.095 -0.1415  0.1190  0.2722
   46MOL   O10114591   6.167   1.510   5.210  0.3240 -0.3009  0.6382
   46MOL   N10214592   6.331   1.540   5.049 -0.4911  0.5987  0.5097
   46MOL   C10314593   6.379   1.539   4.908  0.4092  0.3827  0.2029
   46MOL   C10414594   6.436   1.585   5.145 -0.3150  0.1236  0.1346
   46MOL   H10514595   6.244   1.328   4.849  1.3396 -2.3357  0.0727
   46MOL   H10614596   6.091   1.249   4.864 -0.6976 -0.0851  1.3998
   46MOL   H10714597   6.085   1.506   4.933  1.2837  0.3146  0.7534
   46MOL   H10814598   6.452   1.619   4.898 -0.3232  1.0468  0.1415
   46MOL   H10914599   6.434   1.445   4.892  0.0508 -0.0090  1.2727
   46MOL   H11014600   6.298   1.552   4.836  0.9676 -0.5637 -0.6109
   46MOL   H11114601   6.393   1.625   5.237  0.5709  3.7875 -0.9276
   46MOL   H11214602   6.494   1.670   5.109  1.3250 -1.5123 -1.1839
   46MOL   H11314603   6.508   1.509   5.174  0.8749  0.4140 -1.9330
   46MOL   C11414604   5.974   1.388   5.059  0.1139  0.0188  0.0146
   46MOL   C11514605   5.855   1.486   5.026 -1.0802  0.4773  0.1153
   46MOL   C11614606   5.741   1.481   5.136  0.2415 -0.0587 -0.8922
   46MOL   O11714607   5.652   1.388   5.127 -0.2928  0.8301 -0.0493
   46MOL   N11814608   5.734   1.576   5.235 -0.5394  0.1160  0.0637
   46MOL   C11914609   5.845   1.658   5.290 -0.8272 -0.3118  0.3597
   46MOL   C12014610   5.614   1.607   5.303  0.3352  0.0232  0.5448
   46MOL   H12114611   5.939   1.288   5.032 -2.7082  1.3005 -1.3235
   46MOL   H12214612   5.991   1.376   5.166  3.2756 -0.5762 -0.5209
   46MOL   H12314613   5.885   1.591   5.029  0.6713 -0.0407  1.1454
   46MOL   H12414614   5.828   1.667   5.397 -1.3287  0.3003  0.2355
   46MOL   H12514615   5.948   1.630   5.270 -0.4157  1.3217  0.1167
   46MOL   H12614616   5.843   1.755   5.239  1.5662  0.4974  1.7258
   46MOL   H12714617   5.586   1.711   5.286  0.2726 -0.2564 -1.1453
   46MOL   H12814618   5.630   1.585   5.409 -0.4073 -0.1004  0.6384
   46MOL   H12914619   5.526   1.547   5.277  0.1155  1.3496 -1.8514
   46MOL   C13014620   5.805   1.446   4.881 -0.2671 -0.1462  0.3033
   46MOL   C13114621   5.686   1.528   4.820 -0.2798 -0.1683  0.6167
   46MOL   C13214622   5.616   1.444   4.710  0.2117 -0.7637 -0.2518
   46MOL   O13314623   5.685   1.405   4.622 -0.7761 -0.3839  0.3852
   46MOL   N13414624   5.480   1.418   4.713 -0.2979 -0.6142 -0.4365
   46MOL   C13514625   5.389   1.458   4.832 -0.3754 -0.1130  0.6022
   46MOL   C13614626   5.416   1.349   4.605 -0.1434  0.4126  0.4747
   46MOL   H13714627   5.882   1.448   4.804 -0.6407 -0.5076 -0.0813
   46MOL   H13814628   5.769   1.343   4.879 -1.4863  0.2124  2.6766
   46MOL   H13914629   5.612   1.542   4.899 -1.1146  1.4547 -0.4227
   46MOL   H14014630   5.416   1.413   4.927  3.2024 -1.4494 -0.9303
   46MOL   H14114631   5.373   1.566   4.837 -1.0713 -0.1372 -0.9439
   46MOL   H14214632   5.289   1.428   4.804 -0.7576  2.4604 -0.9894
   46MOL   H14314633   5.398   1.247   4.639  1.8783 -0.8488 -2.0205
   46MOL   H14414634   5.473   1.346   4.512 -0.3528 -1.1822  0.3754
   46MOL   H14514635   5.317   1.393   4.589  0.6507  2.8079  1.9275
   46MOL   C14614636   5.756   1.660   4.768 -0.3827  0.3563 -0.1810
   46MOL   C14714637   5.646   1.771   4.757 -0.4416 -0.4093 -0.9002
   46MOL   C14814638   5.701   1.889   4.678 -0.5413  0.6714 -0.3761
   46MOL   O14914639   5.773   1.972   4.736  0.3952 -0.0712  0.0466
   46MOL   N15014640   5.677   1.898   4.548 -0.3296  0.1473  0.3201
   46MOL   C15114641   5.729   2.024   4.483 -0.0773  0.4689 -0.0107
   46MOL   C15214642   5.583   1.816   4.465  0.2294 -0.0852 -0.2729
   46MOL   H15314643   5.844   1.696   4.823  1.4762 -2.4217 -1.2048
   46MOL   H15414644   5.797   1.652   4.667  0.6294  0.4787  0.2056
   46MOL   H15514645   5.561   1.732   4.700 -0.7467 -2.4687  0.9041
   46MOL   H15614646   5.837   2.034   4.498 -0.2930  2.2213  0.5145
   46MOL   H15714647   5.715   2.025   4.375  1.3144  0.7169 -0.2029
   46MOL   H15814648   5.689   2.114   4.530  2.8576  0.5495  2.5704
   46MOL   H15914649   5.578   1.843   4.360 -1.7467  4.2377  0.8349
   46MOL   H16014650   5.481   1.829   4.500  0.5930 -0.7968  1.0858
   46MOL   H16114651   5.613   1.711   4.464 -0.1686 -0.1976 -2.0653
   46MOL   C16214652   5.586   1.798   4.902 -0.3032 -0.5391  0.4910
   46MOL   C16314653   5.511   1.930   4.936  0.3835  0.2289 -0.1125
   46MOL   C16414654   5.498   1.944   5.090  0.2569  0.7985 -0.4295
   46MOL   O16514655   5.414   1.872   5.144 -0.1732  0.5228 -0.0595
   46MOL   N16614656   5.587   2.026   5.160 -0.4380  0.6598  0.3648
   46MOL   C16714657   5.685   2.114   5.090  0.3486 -0.2607  0.2884
   46MOL   C16814658   5.594   2.015   5.304  0.2125  0.4309  0.7326
   46MOL   H16914659   5.521   1.718   4.939 -2.0783 -0.2640 -1.9018
   46MOL   H17014660   5.673   1.796   4.969  0.7675  0.6068 -0.8423
   46MOL   H17114661   5.574   2.007   4.891 -1.5301  1.5621 -0.5704
   46MOL   H17214662   5.764   2.142   5.160 -0.1954  0.5223  0.5976
   46MOL   H17314663   5.729   2.051   5.013  0.7471  0.6609 -0.2488
   46MOL   H17414664   5.636   2.195   5.036  0.9356 -0.9279 -1.2514
   46MOL   H17514665   5.499   1.976   5.340  0.0340  0.3470  0.1567
   46MOL   H17614666   5.633   2.098   5.365 -0.8857  2.3321 -1.0919
   46MOL   H17714667   5.660   1.928   5.309 -0.8906 -0.4455  0.1085
   46MOL   C17814668   5.372   1.944   4.866  0.9268 -0.6726  0.1485
   46MOL   C17914669   5.346   2.077   4.781  0.7494 -0.3542  0.9168
   46MOL   C18014670   5.360   2.201   4.877  0.1130  0.4538  0.2362
   46MOL   O18114671   5.301   2.200   4.989 -0.0798  0.0450  0.4157
   46MOL   N18214672   5.426   2.304   4.836 -0.5314  0.4887 -0.0555
   46MOL   C18314673   5.519   2.318   4.722  0.1110  0.0342  0.3445
   46MOL   C18414674   5.424   2.428   4.909 -0.8558  0.3161  0.2206
   46MOL   H18514675   5.343   1.858   4.806  0.0454  0.3086 -0.8427
   46MOL   H18614676   5.290   1.950   4.937 -0.5913  2.4753 -1.7587
   46MOL   H18714677   5.413   2.076   4.694 -0.7573  1.3593 -0.2936
   46MOL   H18814678   5.581   2.407   4.721 -0.2421  0.2728 -0.7115
   46MOL   H18914679   5.592   2.238   4.720  2.7751  2.4334 -0.8036
   46MOL   H19014680   5.459   2.324   4.631 -0.3852 -0.3687  0.6364
   46MOL   H19114681   5.517   2.485   4.901 -0.8421  0.2938  0.2264
   46MOL   H19214682   5.404   2.422   5.016 -1.6228  3.6670  0.3385
   46MOL   H19314683   5.355   2.500   4.864  0.4634 -0.3425 -2.9960
   46MOL   C19414684   5.207   2.071   4.712 -0.2041 -0.0482  0.9598
   46MOL   C19514685   5.152   2.178   4.609 -0.5362  0.8411 -0.1594
   46MOL   C19614686   5.236   2.208   4.480 -0.6193  0.2466  0.8281
   46MOL   O19714687   5.305   2.312   4.483 -0.2720 -0.0277 -0.1307
   46MOL   N19814688   5.231   2.133   4.371  0.6973  0.5562 -0.4199
   46MOL   C19914689   5.304   2.172   4.247  0.4155 -0.1894  0.9442
   46MOL   C20014690   5.156   2.004   4.355 -0.9471 -0.1628  0.0298
   46MOL   H20114691   5.196   1.975   4.661  2.4337 -1.0661  2.1933
   46MOL   H20214692   5.131   2.077   4.789  0.3546  1.0448  1.4371
   46MOL   H20314693   5.058   2.137   4.572 -1.3220  0.9260  1.6787
   46MOL   H20414694   5.302   2.114   4.155 -0.1850 -0.5193  1.1619
   46MOL   H20514695   5.260   2.271   4.229  0.3778 -0.3417  0.1923
   46MOL   H20614696   5.406   2.197   4.276  0.9369 -2.6440  1.3152
   46MOL   H20714697   5.186   1.946   4.268 -0.8679 -0.3192  0.1606
   46MOL   H20814698   5.049   2.016   4.340 -0.7015 -2.4527 -4.0692
   46MOL   H20914699   5.177   1.941   4.442 -1.7951  1.5176  1.4940
   46MOL   C21014700   5.098   2.316   4.670  0.3904  0.4727  0.8065
   46MOL   C21114701   5.018   2.408   4.574 -0.3133 -0.3082  0.2370
   46MOL   C21214702   5.026   2.548   4.651 -0.5142  0.2222 -0.6459
   46MOL   O21314703   4.952   2.576   4.745  0.0748  0.0566  0.2987
   46MOL   N21414704   5.116   2.637   4.613 -0.0586 -0.0478  0.2496
   46MOL   C21514705   5.151   2.751   4.703 -0.0773 -0.5943  0.3391
   46MOL   C21614706   5.173   2.645   4.479  0.2902  0.0642 -0.3627
   46MOL   H21714707   5.030   2.293   4.752 -0.4769 -0.9990 -0.2834
   46MOL   H21814708   5.184   2.368   4.713 -1.3174  3.7862  0.3641
   46MOL   H21914709   5.063   2.416   4.476 -0.3732  1.7809  0.3621
   46MOL   H22014710   5.155   2.843   4.645  3.1137 -0.7814  0.1706
   46MOL   H22114711   5.083   2.755   4.788 -0.6355 -3.1037  0.0481
   46MOL   H22214712   5.253   2.735   4.739 -0.4910 -1.1613  1.2560
   46MOL   H22314713   5.247   2.566   4.472 -0.4652 -0.5804 -1.1288
   46MOL   H22414714   5.220   2.737   4.444 -0.9190  0.9805  0.3583
   46MOL   H22514715   5.102   2.616   4.402  2.3288  0.3286 -2.3792
   46MOL   C22614716   4.869   2.368   4.569 -0.0620  0.4429 -0.5754
   46MOL   C22714717   4.770   2.434   4.464 -0.3316 -0.2845  0.1907
   46MOL   C22814718   4.816   2.392   4.324 -0.2402 -0.2276  0.4181
   46MOL   O22914719   4.874   2.473   4.258  0.1330  0.1143 -0.3492
   46MOL   N23014720   4.796   2.259   4.281 -0.3238 -0.4907 -0.0561
   46MOL   C23114721   4.696   2.172   4.337 -0.1042 -0.3156  0.4391
   46MOL   C23214722   4.861   2.214   4.155 -0.1399  0.2369 -0.1779
   46MOL   H23314723   4.861   2.260   4.556  2.2688  0.1902 -0.0884
   46MOL   H23414724   4.827   2.392   4.667  0.7453  2.4045 -0.6754
   46MOL   H23514725   4.673   2.389   4.489 -0.3130 -0.3719  0.1079
   46MOL   H23614726   4.739   2.108   4.414 -0.6459 -0.2191  0.8221
   46MOL   H23714727   4.607   2.226   4.368  0.4723  0.6543  0.4374
   46MOL   H23814728   4.660   2.111   4.254 -0.8794 -0.1822  0.6808
   46MOL   H23914729   4.804   2.250   4.070  0.2116  1.6800  0.1779
   46MOL   H24014730   4.862   2.106   4.146  0.1189  0.1339  0.9749
   46MOL   H24114731   4.957   2.262   4.139  1.0535 -1.8752  0.4590
   46MOL   C24214732   4.736   2.586   4.472  1.0760 -0.2138 -0.5276
   46MOL   C24314733   4.641   2.608   4.599 -0.1522  0.6268  0.0713
   46MOL   C24414734   4.491   2.583   4.568  0.8327 -0.0652  0.2884
   46MOL   O24514735   4.440   2.652   4.480  0.2115  0.5149  0.0572
   46MOL   N24614736   4.414   2.489   4.628  0.0769 -0.0516  0.1352
   46MOL   C24714737   4.272   2.467   4.592  0.5121  0.2968  0.4481
   46MOL   C24814738   4.473   2.392   4.721 -0.2821 -0.4102 -0.4991
   46MOL   H24914739   4.829   2.641   4.485  2.9460 -2.9427 -1.9393
   46MOL   H25014740   4.705   2.633   4.379 -0.3102 -0.1317 -0.0327
   46MOL   H25114741   4.679   2.549   4.683 -0.7396  1.5273  0.9829
   46MOL   H25214742   4.220   2.562   4.578  2.8186  1.1633 -2.6753
   46MOL   H25314743   4.270   2.394   4.511 -0.6910  0.4040  0.3750
   46MOL   H25414744   4.218   2.417   4.673  3.2099 -0.5824  1.7683
   46MOL   H25514745   4.575   2.361   4.698 -0.6164 -0.2597 -2.2402
   46MOL   H25614746   4.415   2.301   4.734  1.1581 -1.3336 -0.4302
   46MOL   H25714747   4.474   2.434   4.822 -1.4793 -2.0412  0.2113
   46MOL   C25814748   4.656   2.751   4.645 -0.7089 -0.3375 -0.1885
   46MOL   C25914749   4.599   2.801   4.778 -0.0949  0.1827  0.1934
   46MOL   C26014750   4.614   2.958   4.796 -0.8072 -0.8390  1.0237
   46MOL   O26114751   4.729   2.996   4.816  0.1441 -0.1240  0.5173
   46MOL   N26214752   4.511   3.040   4.773  0.0344  0.4868 -0.2417
   46MOL   C26314753   4.381   2.998   4.705 -0.3210 -0.4067  0.1826
   46MOL   C26414754   4.499   3.174   4.830  0.5611 -0.0225  0.4515
   46MOL   H26514755   4.764   2.763   4.650 -0.7854 -0.4447  2.4421
   46MOL   H26614756   4.611   2.822   4.577  3.1665 -0.9578 -3.5892
   46MOL   H26714757   4.497   2.763   4.781  0.5275 -1.4794  0.8837
   46MOL   H26814758   4.411   2.969   4.604  0.2531 -0.5004  0.3808
   46MOL   H26914759   4.335   2.915   4.759 -0.6840  1.1128  2.2727
   46MOL   H27014760   4.305   3.076   4.696 -1.0349 -1.1007  0.0670
   46MOL   H27114761   4.408   3.229   4.806  1.7834  1.1008 -1.8578
   46MOL   H27214762   4.579   3.247   4.813  2.4226 -2.3813 -1.2164
   46MOL   H27314763   4.501   3.172   4.938 -1.4811  0.7662  0.5317
   46MOL   C27414764   4.667   2.729   4.898 -0.0144 -0.1858  0.5765
   46MOL   C27514765   4.598   2.773   5.036 -0.4906  0.3867  0.1856
   46MOL   C27614766   4.696   2.729   5.150  0.5039  0.1068  0.2756
   46MOL   O27714767   4.677   2.617   5.200 -0.1843 -0.0092  0.5253
   46MOL   N27814768   4.791   2.809   5.199  0.0802 -0.1457  0.2102
   46MOL   C27914769   4.856   2.787   5.330  0.3078  0.2722  0.2851
   46MOL   C28014770   4.844   2.922   5.130  0.1001 -0.5873 -0.8520
   46MOL   H28114771   4.670   2.620   4.890  1.2255 -0.1153 -0.0953
   46MOL   H28214772   4.774   2.750   4.900 -0.0595 -0.0328  3.1242
   46MOL   H28314773   4.578   2.879   5.046 -1.9610  0.0730  0.7793
   46MOL   H28414774   4.936   2.714   5.321 -0.1295 -0.0014 -1.4114
   46MOL   H28514775   4.905   2.873   5.376 -0.3047  0.6967  0.1526
   46MOL   H28614776   4.792   2.750   5.411  0.1741  1.0810  0.5565
   46MOL   H28714777   4.913   2.988   5.183 -0.6823 -1.5177  1.4099
   46MOL   H28814778   4.758   2.984   5.106 -0.9970 -0.9556  1.9284
   46MOL   H28914779   4.886   2.895   5.033 -0.0806  0.1905 -1.1455
   46MOL   C29014780   4.452   2.697   5.060 -0.0085 -0.0089 -0.0828
   46MOL   C29114781   4.345   2.758   5.149  0.5115 -0.1162  0.4318
   46MOL   C29214782   4.298   2.893   5.095 -0.0202 -0.2164 -0.3283
   46MOL   O29314783   4.373   2.988   5.110 -0.1648 -0.9568  0.3949
   46MOL   N29414784   4.179   2.904   5.031  0.3188 -0.3489  0.4381
   46MOL   C29514785   4.115   2.795   4.952 -0.0868 -0.8419 -0.3827
   46MOL   C29614786   4.136   3.035   4.984  0.3810 -0.1550  0.1699
   46MOL   H29714787   4.397   2.694   4.966 -3.1656 -0.3306  1.7246
   46MOL   H29814788   4.476   2.592   5.073 -0.1718 -0.0972 -0.4671
   46MOL   H29914789   4.253   2.700   5.135  0.4934  0.1443 -0.5609
   46MOL   H30014790   4.064   2.725   5.019  1.9750 -0.2076  1.9319
   46MOL   H30114791   4.035   2.827   4.885  0.0220  1.6799  0.6505
   46MOL   H30214792   4.187   2.738   4.894  0.7105  0.9293 -1.1617
   46MOL   H30314793   4.033   3.053   5.017  1.1446 -1.7363  3.6818
   46MOL   H30414794   4.144   3.036   4.875  1.3845  3.7087  0.2274
   46MOL   H30514795   4.189   3.120   5.025 -0.9609  1.6208 -1.6968
   46MOL   C30614796   4.386   2.759   5.299  0.5045 -0.2891 -0.2935
   46MOL   C30714797   4.288   2.843   5.392  0.2170 -0.2321 -0.9247
   46MOL   C30814798   4.137   2.799   5.411 -0.4477 -0.2959 -0.2791
   46MOL   O30914799   4.074   2.741   5.323 -0.1645 -0.2481 -0.3806
   46MOL   N31014800   4.077   2.838   5.526  0.1017  0.0147 -0.2209
   46MOL   C31114801   4.159   2.881   5.647  0.8552 -0.0676 -0.3832
   46MOL   C31214802   3.936   2.804   5.552  0.2001  0.1594 -0.1791
   46MOL   H31314803   4.393   2.653   5.322 -0.1668  0.1345  1.9155
   46MOL   H31414804   4.485   2.799   5.323  0.5518 -0.5596 -0.0387
   46MOL   H31514805   4.342   2.828   5.486  1.6232 -0.7769 -1.8044
   46MOL   H31614806   4.229   2.812   5.693  2.5202  1.4209 -0.6150
   46MOL   H31714807   4.219   2.969   5.622  0.4530  1.1084  2.6022
   46MOL   H31814808   4.096   2.910   5.731 -1.3079  0.0437 -2.0025
   46MOL   H31914809   3.899   2.852   5.643 -0.0377  0.8507 -0.6327
   46MOL   H32014810   3.920   2.697   5.566  0.4845  0.3144  1.4471
   46MOL   H32114811   3.875   2.842   5.470  0.2921 -0.1238 -0.3823
   46MOL   H32214812   4.297   2.951   5.382  0.5216 -0.2300 -0.6151
   47MOL     C114813   7.568   1.379   7.798  0.0008 -0.5543 -0.6163
   47MOL     C214814   7.460   1.396   7.689  0.2046 -0.2870 -0.5554
   47MOL     C314815   7.508   1.335   7.554  0.8884  0.1430 -0.9599
   47MOL     O414816   7.599   1.387   7.495 -0.2835  0.4602 -0.3617
   47MOL     N514817   7.439   1.228   7.508 -0.3128  0.0456  0.5118
   47MOL     C614818   7.484   1.156   7.389  0.6437  0.3057  0.2435
   47MOL     C714819   7.316   1.172   7.564  0.5739 -0.1778 -0.3471
   47MOL     H814820   7.575   1.273   7.822 -1.7284 -0.5388  0.0047
   47MOL     H914821   7.544   1.431   0.038 -2.0781  0.1251 -1.5056
   47MOL    H1014822   7.366   1.355   7.726  1.7608 -2.7867  0.8650
   47MOL    H1114823   7.434   1.198   7.302 -0.3849  0.8298  1.0726
   47MOL    H1214824   7.591   1.159   7.368  1.2003  0.7243  2.8984
   47MOL    H1314825   7.464   1.049   7.393 -0.8329  0.5625 -0.0647
   47MOL    H1414826   7.285   1.076   7.523  1.4213 -0.3366 -0.6270
   47MOL    H1514827   7.233   1.241   7.555 -0.1270 -1.1354 -1.4071
   47MOL    H1614828   7.333   1.137   7.666 -1.1408 -2.8812 -0.9311
   47MOL    H1714829   7.664   1.419   7.765 -1.0439  3.2522  0.6891
   47MOL    C1814830   7.431   1.547   7.660  0.3824 -0.5155 -0.1285
   47MOL    C1914831   7.333   1.589   7.546  1.4150  0.1490  0.7308
   47MOL    C2014832   7.357   1.737   7.523  0.5475 -0.2814  0.7071
   47MOL    O2114833   7.315   1.811   7.612 -0.4666 -0.2481 -0.5139
   47MOL    N2214834   7.418   1.781   7.409  0.4059  0.0096 -0.1669
   47MOL    C2314835   7.423   1.931   7.372  0.1345 -0.0927 -0.2799
   47MOL    C2414836   7.497   1.702   7.323 -0.1583 -0.1120  0.2827
   47MOL    H2514837   7.413   1.612   7.745  1.4656  0.0363 -0.3198
   47MOL    H2614838   7.532   1.576   7.631  0.3101  0.5243  0.6489
   47MOL    H2714839   7.358   1.544   7.450  0.6871  0.8844  0.1866
   47MOL    H2814840   7.518   1.979   7.396  2.0391 -2.7716 -2.1811
   47MOL    H2914841   7.399   1.958   7.270  2.3691 -1.2155 -1.1266
   47MOL    H3014842   7.343   1.988   7.419 -0.2736 -1.2094  0.3986
   47MOL    H3114843   7.437   1.657   7.244 -1.0166  1.2796  0.1366
   47MOL    H3214844   7.553   1.631   7.385 -0.7307 -1.0263 -0.2287
   47MOL    H3314845   7.581   1.759   7.284  0.5180 -1.1171  0.2554
   47MOL    C3414846   7.185   1.549   7.584 -0.1818  0.2989 -0.7966
   47MOL    C3514847   7.082   1.537   7.473  0.6719 -0.0433  0.7132
   47MOL    C3614848   7.110   1.420   7.377 -0.1441  0.4932 -0.5072
   47MOL    O3714849   7.213   1.420   7.305 -0.3873 -0.0965  0.0971
   47MOL    N3814850   7.014   1.317   7.372 -0.6727 -0.3364 -0.3902
   47MOL    C3914851   7.042   1.200   7.280  0.4559 -0.2745 -0.2309
   47MOL    C4014852   6.885   1.324   7.437 -0.1822  0.5353 -0.5356
   47MOL    H4114853   7.173   1.458   7.644 -1.1000  0.3945 -0.8411
   47MOL    H4214854   7.148   1.620   7.658 -0.2620 -1.0399  0.4850
   47MOL    H4314855   6.985   1.528   7.521  0.3583 -1.1321 -0.1049
   47MOL    H4414856   6.965   1.126   7.297 -0.9528  1.2157  0.0070
   47MOL    H4514857   7.031   1.232   7.176 -2.3030 -1.8781 -0.4837
   47MOL    H4614858   7.145   1.168   7.296  1.1212  1.7696 -0.2427
   47MOL    H4714859   6.825   1.402   7.390  0.5906  1.7693  0.4816
   47MOL    H4814860   6.897   1.347   7.543  1.4497 -0.1265 -0.5681
   47MOL    H4914861   6.826   1.233   7.427  3.1542 -1.4341 -3.2915
   47MOL    C5014862   7.060   1.666   7.378  0.3014 -0.1793 -0.2819
   47MOL    C5114863   6.984   1.796   7.438 -0.3759  0.0011  0.1239
   47MOL    C5214864   6.837   1.778   7.446  0.2736 -0.3212  0.3194
   47MOL    O5314865   6.790   1.690   7.373  0.0248 -0.4455  0.0775
   47MOL    N5414866   6.780   1.841   7.554  0.6411  0.3937  0.9658
   47MOL    C5514867   6.837   1.925   7.657  0.1574  0.1082  0.7331
   47MOL    C5614868   6.631   1.849   7.577  0.6566  0.1033  0.0784
   47MOL    H5714869   7.157   1.698   7.340  0.4692  1.7778  1.6777
   47MOL    H5814870   7.011   1.624   7.290  1.1528  1.7051 -1.6834
   47MOL    H5914871   7.034   1.812   7.534  0.7321  1.6949 -0.6999
   47MOL    H6014872   6.925   1.894   7.714  0.3242  2.7411  1.9813
   47MOL    H6114873   6.867   2.017   7.608  2.0030 -0.8289  0.0615
   47MOL    H6214874   6.771   1.955   7.739 -1.6252 -1.3869 -0.1151
   47MOL    H6314875   6.575   1.868   7.486  0.4191  1.0988  0.4261
   47MOL    H6414876   6.592   1.907   7.661  0.1924 -2.5946  1.8116
   47MOL    H6514877   6.603   1.744   7.592  0.9505  0.2224  1.5926
   47MOL    C6614878   7.021   1.924   7.355  0.0733  0.2489 -0.3397
   47MOL    C6714879   6.969   1.929   7.202  0.0455 -0.3922  0.4391
   47MOL    C6814880   7.073   1.861   7.120  0.1956  0.3115  0.1242
   47MOL    O6914881   7.181   1.918   7.104  0.0935  0.5305  0.2292
   47MOL    N7014882   7.059   1.738   7.062 -0.4014 -0.1953 -0.2467
   47MOL    C7114883   6.935   1.663   7.047 -0.7904 -0.0317 -0.1275
   47MOL    C7214884   7.174   1.673   6.999  0.3778 -0.1760 -0.2872
   47MOL    H7314885   6.981   2.010   7.408 -1.8803  0.0474 -1.4310
   47MOL    H7414886   7.127   1.949   7.358  0.0199  0.2837  2.3613
   47MOL    H7514887   6.875   1.877   7.183 -0.9553  0.8283  1.9358
   47MOL    H7614888   6.949   1.561   7.011 -0.1232 -0.2936  0.8824
   47MOL    H7714889   6.882   1.666   7.142 -0.0630  1.4084  0.2532
   47MOL    H7814890   6.874   1.716   6.973  1.2193  3.1763  0.3991
   47MOL    H7914891   7.199   1.706   6.898  0.9208 -2.0165 -0.7596
   47MOL    H8014892   7.158   1.566   6.988 -0.5004 -0.0445 -0.3108
   47MOL    H8114893   7.267   1.684   7.055 -0.6853 -0.4511  1.5773
   47MOL    C8214894   6.956   2.085   7.163  0.6277  0.0701 -0.0121
   47MOL    C8314895   6.809   2.149   7.165  0.1835  0.1313  0.7847
   47MOL    C8414896   6.771   2.178   7.311  0.4167  0.3496  0.1616
   47MOL    O8514897   6.708   2.091   7.378 -0.0666 -0.1794 -0.1818
   47MOL    N8614898   6.804   2.303   7.362  0.1741 -0.0323 -0.4065
   47MOL    C8714899   6.853   2.424   7.288 -0.3653  0.8035 -0.2264
   47MOL    C8814900   6.778   2.343   7.502 -0.1448  0.0436  0.1862
   47MOL    H8914901   7.030   2.144   7.218  1.0299  0.3610 -0.8635
   47MOL    H9014902   6.994   2.096   7.062  0.9131  0.3903  0.1260
   47MOL    H9114903   6.832   2.244   7.116  0.6497 -1.0266 -1.3236
   47MOL    H9214904   6.949   2.401   7.242 -1.6112 -0.3791 -2.3527
   47MOL    H9314905   6.776   2.458   7.219  0.8748  2.3300 -0.8979
   47MOL    H9414906   6.860   2.511   7.352  1.3123 -0.6099  1.5835
   47MOL    H9514907   6.826   2.430   7.546 -0.8372  1.2799 -1.4735
   47MOL    H9614908   6.770   2.258   7.570 -0.3651  0.1424  0.2837
   47MOL    H9714909   6.672   2.366   7.494  0.1591  1.7132  0.8403
   47MOL    C9814910   6.695   2.095   7.071  0.0101 -0.0494 -0.3075
   47MOL    C9914911   6.723   2.020   6.937 -0.3714 -0.4669 -0.0001
   47MOL   C10014912   6.805   2.117   6.840 -0.4302 -0.4761  0.4721
   47MOL   O10114913   6.779   2.243   6.850  0.4408 -0.2475  0.3374
   47MOL   N10214914   6.907   2.066   6.768  0.1783  0.4088  0.2080
   47MOL   C10314915   6.989   2.162   6.688  0.1545  0.7535  0.3279
   47MOL   C10414916   6.938   1.921   6.772 -0.0032 -0.3023 -0.4038
   47MOL   H10514917   6.648   2.023   7.139  0.6184  0.2250  0.4108
   47MOL   H10614918   6.624   2.177   7.059  1.0301  0.3981 -3.6573
   47MOL   H10714919   6.781   1.931   6.961  3.7274  1.9886 -0.2475
   47MOL   H10814920   6.933   2.245   6.646  1.0330  0.5140 -1.3770
   47MOL   H10914921   7.064   2.210   6.751  0.4933  0.3355  0.2456
   47MOL   H11014922   7.031   2.113   6.600 -2.0694 -3.1374  1.3309
   47MOL   H11114923   7.024   1.899   6.709  1.6784  2.8887  0.6548
   47MOL   H11214924   6.844   1.872   6.743 -0.2966 -0.8372  1.4201
   47MOL   H11314925   6.965   1.895   6.874  1.1080  0.0969 -0.5886
   47MOL   C11414926   6.589   1.967   6.867 -0.3278 -0.2874 -0.2400
   47MOL   C11514927   6.500   1.859   6.937  0.3337  0.3782  0.3250
   47MOL   C11614928   6.568   1.718   6.936 -0.1075  0.0570 -0.6490
   47MOL   O11714929   6.625   1.680   6.835  0.3361  0.0454 -0.0019
   47MOL   N11814930   6.548   1.640   7.040  0.4500  0.8185  0.1341
   47MOL   C11914931   6.612   1.505   7.041  0.8788 -0.4684  0.7865
   47MOL   C12014932   6.465   1.673   7.159  0.6973 -0.5318 -0.6833
   47MOL   H12114933   6.533   2.060   6.855  0.2215  0.2308  1.1477
   47MOL   H12214934   6.624   1.933   6.769  0.0762  3.1095 -1.3600
   47MOL   H12314935   6.478   1.890   7.039 -0.0809  0.2343  0.2790
   47MOL   H12414936   6.607   1.470   7.144 -0.2024  0.4622  1.0584
   47MOL   H12514937   6.561   1.432   6.978 -0.0723  0.2374  0.7340
   47MOL   H12614938   6.719   1.520   7.024  0.5015  2.4759  0.8587
   47MOL   H12714939   6.372   1.718   7.123 -0.4524 -2.3394 -0.0579
   47MOL   H12814940   6.515   1.751   7.217 -1.4024  1.3736 -1.3596
   47MOL   H12914941   6.420   1.588   7.210 -0.1171 -0.2987 -1.0006
   47MOL   C13014942   6.352   1.878   6.880 -0.0734  0.1176  0.0027
   47MOL   C13114943   6.328   1.856   6.725 -0.6753 -0.5009  0.5400
   47MOL   C13214944   6.243   1.979   6.659  0.7086 -0.3388  0.2994
   47MOL   O13314945   6.126   1.984   6.688 -0.2118 -0.4771 -0.1166
   47MOL   N13414946   6.300   2.066   6.573 -0.3935  0.2585  0.8647
   47MOL   C13514947   6.445   2.058   6.542 -0.5934 -0.2770 -0.6891
   47MOL   C13614948   6.226   2.156   6.486  0.1450  0.3015 -0.1484
   47MOL   H13714949   6.287   1.812   6.937  1.2970 -0.1264  1.3029
   47MOL   H13814950   6.322   1.979   6.909  2.4085  0.5638  1.1252
   47MOL   H13914951   6.432   1.865   6.695  0.1295  0.0406  3.4129
   47MOL   H14014952   6.466   1.954   6.515 -1.9508 -0.3805 -1.3955
   47MOL   H14114953   6.464   2.116   6.451 -1.7021  0.0248 -0.7465
   47MOL   H14214954   6.513   2.086   6.621 -1.9301  0.7420  0.1289
   47MOL   H14314955   6.130   2.115   6.453  0.0677  1.4888 -1.4854
   47MOL   H14414956   6.275   2.174   6.390 -0.3000  1.0836 -0.2314
   47MOL   H14514957   6.223   2.255   6.532 -0.1271  0.4723 -0.5315
   47MOL   C14614958   6.289   1.712   6.691  0.3236  0.6248  0.9501
   47MOL   C14714959   6.152   1.648   6.733 -0.2153 -0.3013  0.6096
   47MOL   C14814960   6.170   1.564   6.861  0.0542 -0.1892  0.0717
   47MOL   O14914961   6.256   1.474   6.859  0.1049 -0.1004 -0.1540
   47MOL   N15014962   6.092   1.581   6.970  0.6468 -0.2207 -0.2468
   47MOL   C15114963   6.003   1.700   6.979  0.0554 -0.3359  0.1030
   47MOL   C15214964   6.116   1.503   7.088  0.2773  0.1692  0.4531
   47MOL   H15314965   6.293   1.722   6.582 -0.0969  1.1073  0.9782
   47MOL   H15414966   6.370   1.649   6.729  1.3587  0.2656 -1.7291
   47MOL   H15514967   6.086   1.734   6.742 -1.0184 -0.6774 -1.5204
   47MOL   H15614968   5.914   1.681   7.038 -1.0858  0.5353 -1.2986
   47MOL   H15714969   6.051   1.788   7.022  0.4398 -0.3890 -0.2129
   47MOL   H15814970   5.951   1.723   6.886 -0.2429 -2.4685 -0.2823
   47MOL   H15914971   6.211   1.523   7.138  0.1156  2.9417 -0.2482
   47MOL   H16014972   6.125   1.396   7.070 -0.8644  0.3411 -1.3202
   47MOL   H16114973   6.037   1.512   7.163 -0.2136  0.6011 -0.1178
   47MOL   C16214974   6.123   1.549   6.614 -0.1419 -0.3830 -0.4763
   47MOL   C16314975   5.982   1.487   6.619  0.3497 -0.0467  0.1761
   47MOL   C16414976   5.982   1.366   6.517 -0.0857 -0.0268  0.0659
   47MOL   O16514977   6.000   1.381   6.397 -0.0947 -0.0283 -0.0791
   47MOL   N16614978   5.954   1.245   6.567 -0.1474 -0.6036 -0.1723
   47MOL   C16714979   5.921   1.134   6.477 -0.3774 -0.4112  0.6864
   47MOL   C16814980   5.985   1.203   6.708 -0.3394  0.0348  0.1015
   47MOL   H16914981   6.145   1.599   6.520  0.1609  2.3660  1.0193
   47MOL   H17014982   6.194   1.466   6.613  0.4746  0.1445 -0.6668
   47MOL   H17114983   5.963   1.454   6.721 -0.6821 -1.5966 -0.5114
   47MOL   H17214984   5.892   1.170   6.378  0.0181 -1.5863  0.1212
   47MOL   H17314985   6.006   1.065   6.469 -2.0361 -2.2812 -1.8805
   47MOL   H17414986   5.836   1.083   6.522 -1.5167  1.1545  0.3274
   47MOL   H17514987   5.901   1.215   6.777  0.8014 -0.7729  1.6640
   47MOL   H17614988   6.070   1.257   6.750 -0.6561  0.9562 -0.4167
   47MOL   H17714989   6.016   1.099   6.710 -1.7056 -0.4329 -2.1814
   47MOL   C17814990   5.867   1.586   6.570  1.1110 -0.3703 -0.0863
   47MOL   C17914991   5.717   1.532   6.585 -0.3892  0.3069 -0.1875
   47MOL   C18014992   5.627   1.587   6.471 -0.0575 -0.5736 -0.6694
   47MOL   O18114993   5.589   1.703   6.480  0.0601  0.1231 -0.9700
   47MOL   N18214994   5.587   1.510   6.368  0.1252  0.1415  0.3974
   47MOL   C18314995   5.636   1.375   6.326 -0.5423  0.0360  0.1044
   47MOL   C18414996   5.513   1.569   6.260 -0.0376 -0.4525  0.0450
   47MOL   H18514997   5.880   1.676   6.629 -0.1167  0.0404 -0.4132
   47MOL   H18614998   5.885   1.628   6.471  0.3237 -0.0984 -0.1168
   47MOL   H18714999   5.724   1.424   6.566 -0.8619  0.7976 -3.5655
   47MOL   H18815000   5.722   1.380   6.259  0.4268 -0.1850  1.3196
   47MOL   H18915001   5.656   1.307   6.408  1.2280  1.1166  0.5760
   47MOL   H19015002   5.565   1.317   6.266  1.5044 -3.7538  1.1624
   47MOL   H19115003   5.427   1.505   6.243  0.5170 -1.8904  2.4081
   47MOL   H19215004   5.567   1.575   6.166 -3.5471 -0.6533 -2.0560
   47MOL   H19315005   5.473   1.670   6.273 -1.6058 -1.1336  0.6240
   47MOL   C19415006   5.664   1.543   6.733  0.0842 -0.1022  0.3269
   47MOL   C19515007   5.533   1.468   6.766  0.3091 -0.2020 -0.1783
   47MOL   C19615008   5.446   1.547   6.868  0.4060 -0.5409 -0.7405
   47MOL   O19715009   5.482   1.542   6.990 -0.5485 -0.3133  0.1445
   47MOL   N19815010   5.331   1.623   6.836 -0.4060  0.2367 -0.1353
   47MOL   C19915011   5.265   1.691   6.944  1.1344  0.0639  0.3209
   47MOL   C20015012   5.283   1.638   6.704  0.5000 -0.4038  0.4531
   47MOL   H20115013   5.735   1.501   6.804 -1.8617 -2.1084  1.1376
   47MOL   H20215014   5.658   1.650   6.755 -0.5381  0.4558 -2.3970
   47MOL   H20315015   5.475   1.486   6.676 -1.3547 -0.9757  0.7151
   47MOL   H20415016   5.230   1.788   6.906 -0.0462  0.1843  1.6382
   47MOL   H20515017   5.177   1.640   6.985  0.8433 -0.4066 -0.8807
   47MOL   H20615018   5.333   1.716   7.026  0.7234  0.6761  0.4845
   47MOL   H20715019   5.180   1.676   6.704  1.4124  2.1796  1.1488
   47MOL   H20815020   5.272   1.548   6.644 -4.4920  0.5908 -0.3969
   47MOL   H20915021   5.328   1.713   6.639 -1.8638 -1.6281 -2.7480
   47MOL   C21015022   5.561   1.311   6.789  0.1554 -0.3826  0.0338
   47MOL   C21115023   5.444   1.207   6.759  0.0086  0.3316 -0.9427
   47MOL   C21215024   5.451   1.179   6.605  0.1036  0.3125 -0.3298
   47MOL   O21315025   5.405   1.260   6.525  0.1866 -0.1972  0.5872
   47MOL   N21415026   5.506   1.060   6.560  0.1484 -0.1588 -0.3536
   47MOL   C21515027   5.549   0.953   6.642  0.1946  0.3509 -0.4822
   47MOL   C21615028   5.511   1.026   6.416 -0.1385  0.4038 -0.3590
   47MOL   H21715029   5.652   1.280   6.737 -0.0249 -0.3090 -0.3288
   47MOL   H21815030   5.590   1.302   6.894  1.6723  0.5755 -0.2745
   47MOL   H21915031   5.465   1.124   6.826 -0.8709  2.3763  2.0046
   47MOL   H22015032   5.456   0.909   6.678  0.4581 -0.5361 -0.8642
   47MOL   H22115033   5.602   0.887   6.573 -0.3877  0.8639 -1.4264
   47MOL   H22215034   5.616   0.987   6.721 -2.1061  1.6836  0.9523
   47MOL   H22315035   5.463   1.104   6.356 -0.8859  0.6234  0.5232
   47MOL   H22415036   5.473   0.927   6.394  0.8673 -0.3532  1.1947
   47MOL   H22515037   5.613   1.026   6.376 -0.2461  1.1003 -0.6562
   47MOL   C22615038   5.304   1.263   6.807  0.3133 -0.2540  0.2204
   47MOL   C22715039   5.183   1.169   6.785  0.7010 -0.7108  0.7365
   47MOL   C22815040   5.045   1.239   6.799  0.0477 -0.3741 -0.4855
   47MOL   O22915041   4.982   1.228   6.905 -0.5695  0.0671  0.4535
   47MOL   N23015042   4.991   1.299   6.686 -0.1361 -0.3018  0.1774
   47MOL   C23115043   4.858   1.361   6.690 -0.0489  0.3490  0.1070
   47MOL   C23215044   5.051   1.322   6.560  0.0307 -0.3710  0.1965
   47MOL   H23315045   5.299   1.293   6.912  1.0495 -2.8537  1.0421
   47MOL   H23415046   5.296   1.355   6.748 -1.3353  0.4973  1.5769
   47MOL   H23515047   5.182   1.135   6.681  1.4687  1.6524 -0.0680
   47MOL   H23615048   4.797   1.349   6.780 -0.5465 -2.8149 -0.6041
   47MOL   H23715049   4.872   1.468   6.674  2.5415  0.0220  0.0543
   47MOL   H23815050   4.796   1.308   6.617  0.2821 -1.7845  1.3190
   47MOL   H23915051   5.027   1.240   6.491 -3.0193  0.3612  0.3094
   47MOL   H24015052   5.159   1.331   6.564 -0.0225 -0.1101  1.0935
   47MOL   H24115053   5.029   1.411   6.501 -2.3223 -1.3522 -0.4659
   47MOL   C24215054   5.198   1.042   6.863  0.2914 -0.2785 -0.0842
   47MOL   C24315055   5.210   1.037   7.024  0.4143 -0.3579 -0.3504
   47MOL   C24415056   5.350   1.066   7.074 -0.2536 -0.1133  0.3395
   47MOL   O24515057   5.437   0.982   7.044 -0.0911  0.1744 -0.2046
   47MOL   N24615058   5.379   1.181   7.146 -0.6123 -0.2028 -0.2598
   47MOL   C24715059   5.523   1.228   7.166  0.5779 -0.0554 -0.0596
   47MOL   C24815060   5.274   1.261   7.205 -0.2922 -0.0437  0.1522
   47MOL   H24915061   5.116   0.973   6.839 -1.3382  1.4174  0.4925
   47MOL   H25015062   5.276   0.979   6.820  1.8674  0.5288  1.5669
   47MOL   H25115063   5.148   1.116   7.065  1.0123  0.0993 -0.3106
   47MOL   H25215064   5.563   1.188   7.259  0.2673  2.2200  1.0882
   47MOL   H25315065   5.589   1.197   7.085 -0.9888 -0.2751 -1.2824
   47MOL   H25415066   5.532   1.334   7.186  2.5585 -0.3572  0.7825
   47MOL   H25515067   5.215   1.202   7.275 -0.5967 -5.3732 -4.2777
   47MOL   H25615068   5.209   1.304   7.129  1.0279 -1.5875 -1.9156
   47MOL   H25715069   5.322   1.347   7.252  0.9416 -0.3614 -0.4936
   47MOL   C25815070   5.155   0.900   7.084 -0.6772 -0.4389  1.0960
   47MOL   C25915071   5.128   0.897   7.237 -0.2780 -0.0344 -0.8660
   47MOL   C26015072   5.091   0.745   7.259 -0.2872 -0.0723  0.6766
   47MOL   O26115073   4.978   0.709   7.227  0.4327 -0.0496  0.1134
   47MOL   N26215074   5.188   0.652   7.296  0.5709 -0.2074  0.0989
   47MOL   C26315075   5.147   0.520   7.330  0.2178  0.3339 -0.1474
   47MOL   C26415076   5.330   0.691   7.317  0.5589  0.2393 -0.2225
   47MOL   H26515077   5.057   0.889   7.039 -0.3516 -1.8900  0.7073
   47MOL   H26615078   5.217   0.819   7.046 -1.3748  0.7179 -2.7586
   47MOL   H26715079   5.222   0.926   7.286 -2.3407  2.0685  2.0506
   47MOL   H26815080   5.204   0.485   7.416  0.4736 -1.2304 -0.9399
   47MOL   H26915081   5.043   0.522   7.363 -0.4422 -0.9005 -2.0404
   47MOL   H27015082   5.159   0.452   7.246  2.1650 -0.2941  0.6103
   47MOL   H27115083   5.348   0.724   7.419 -0.8320 -0.9550  0.4176
   47MOL   H27215084   5.367   0.777   7.261 -0.8840  1.0956  0.1409
   47MOL   H27315085   5.404   0.611   7.311  1.6868  1.3753 -2.4372
   47MOL   C27415086   5.014   0.979   7.297  0.2173 -0.0036 -0.1778
   47MOL   C27515087   5.001   0.978   7.451  0.2226  0.0870  0.1134
   47MOL   C27615088   4.877   1.060   7.497  0.1406 -0.1292 -0.3619
   47MOL   O27715089   4.884   1.181   7.502 -0.4133 -0.4202  0.1113
   47MOL   N27815090   4.761   0.998   7.518 -0.5886 -0.2660  0.0323
   47MOL   C27915091   4.723   0.864   7.473  0.0264  0.5615  0.5033
   47MOL   C28015092   4.650   1.065   7.587 -0.7887  0.2268  0.0302
   47MOL   H28115093   5.010   1.083   7.262  2.6315 -0.3541 -1.6456
   47MOL   H28215094   4.918   0.944   7.259 -0.1509 -2.8272  3.1150
   47MOL   H28315095   4.984   0.873   7.477  2.4845 -0.7194 -1.4463
   47MOL   H28415096   4.621   0.855   7.434  1.3845 -2.5963 -2.6213
   47MOL   H28515097   4.779   0.833   7.385  0.8516 -4.3470  2.6109
   47MOL   H28615098   4.737   0.787   7.549 -0.7724 -0.8770 -0.7828
   47MOL   H28715099   4.560   1.038   7.532 -0.3058  1.3643 -1.3656
   47MOL   H28815100   4.662   1.173   7.596  0.9521  0.0794 -0.2433
   47MOL   H28915101   4.643   1.017   7.684 -0.5779 -2.4335 -1.2280
   47MOL   C29015102   5.129   1.022   7.528 -0.0492  0.2362 -0.5054
   47MOL   C29115103   5.148   0.957   7.670  0.5355  0.2592 -0.2773
   47MOL   C29215104   5.181   0.802   7.660 -0.1156  0.2473  0.4443
   47MOL   O29315105   5.100   0.733   7.601  0.4515 -0.1962  0.2228
   47MOL   N29415106   5.286   0.746   7.727 -0.5092  0.1589  0.7687
   47MOL   C29515107   5.351   0.806   7.843 -0.1173  0.1555  0.3120
   47MOL   C29615108   5.315   0.602   7.712  0.4174  0.3917  0.5802
   47MOL   H29715109   5.218   1.003   7.468 -0.2327 -0.4646 -0.5630
   47MOL   H29815110   5.120   1.130   7.538 -3.4522  0.0935 -1.3478
   47MOL   H29915111   5.237   1.006   7.710  1.9918 -1.3059 -1.5495
   47MOL   H30015112   5.412   0.893   7.822 -1.1469  0.7186 -0.3834
   47MOL   H30115113   5.271   0.849   0.051  0.2307 -0.3079  1.1033
   47MOL   H30215114   5.414   0.740   0.049 -1.1974 -0.0674  1.2367
   47MOL   H30315115   5.391   0.596   7.634  0.4525 -0.4685  0.6825
   47MOL   H30415116   5.225   0.546   7.687  1.2827 -0.6499 -0.2311
   47MOL   H30515117   5.345   0.555   7.805 -0.7057  0.2235  0.8650
   47MOL   C30615118   5.044   0.980   7.777  0.0488  0.2540 -0.9301
   47MOL   C30715119   5.029   1.128   7.815 -0.2791 -0.1686  0.6717
   47MOL   C30815120   5.126   1.167   0.072 -0.6744  0.2240 -0.5303
   47MOL   O30915121   5.244   1.130   0.066  0.3947 -0.0578  0.2006
   47MOL   N31015122   5.091   1.248   0.167  0.8923 -0.7091 -0.4304
   47MOL   C31115123   4.975   1.340   0.159 -0.1277  0.6824 -0.5907
   47MOL   C31215124   5.150   1.230   0.304  0.0636 -0.1386  0.4079
   47MOL   H31315125   4.946   0.945   7.743  0.1481  0.4672 -1.4442
   47MOL   H31415126   5.078   0.928   0.013 -0.0349  0.0415 -1.0204
   47MOL   H31515127   5.065   1.190   7.734 -1.6047  0.8863  0.8821
   47MOL   H31615128   4.883   1.286   0.182  0.2328 -0.1280 -1.0254
   47MOL   H31715129   4.985   1.419   0.233  1.9156  0.3702 -0.5057
   47MOL   H31815130   4.961   1.371   0.055  1.0402 -1.1689 -1.3354
   47MOL   H31915131   5.193   1.321   0.346  0.0846 -0.8957  2.0623
   47MOL   H32015132   5.235   1.161   0.305  0.8501  0.8206  0.5973
   47MOL   H32115133   5.073   1.193   0.372 -1.3019  1.1682 -0.4191
   47MOL   H32215134   4.924   1.152   7.829 -0.3981  0.4686 -1.1790
   48MOL     C115135   7.630   3.197   6.524  0.0896  0.2798 -0.5699
   48MOL     C215136   7.692   3.307   6.437 -0.2305 -0.6096  0.4612
   48MOL     C315137   7.630   3.306   6.295  0.0907  0.4168 -0.2289
   48MOL     O415138   7.679   3.226   6.218 -0.0542  1.4883  0.6609
   48MOL     N515139   7.534   3.393   6.260 -0.4002 -0.2026 -0.8513
   48MOL     C615140   7.477   3.406   6.126  0.8293 -0.5166 -0.2820
   48MOL     C715141   7.489   3.502   6.356 -0.1072 -0.2424  0.3935
   48MOL     H815142   7.653   3.205   6.631  1.3870 -1.8550 -0.6550
   48MOL     H915143   7.655   3.102   6.477 -0.8020 -0.8703  1.2311
   48MOL    H1015144   7.673   3.398   6.493  1.1773  0.4963 -0.7816
   48MOL    H1115145   7.508   3.501   6.083 -1.4234 -0.4949 -1.9349
   48MOL    H1215146   7.509   3.331   6.054  0.1790 -1.3047  0.2406
   48MOL    H1315147   7.368   3.406   6.134  0.7875 -1.4851 -0.8545
   48MOL    H1415148   7.437   3.459   6.441  1.6102  0.8059  2.0251
   48MOL    H1515149   7.412   3.568   6.315  0.6727  0.2505 -0.3115
   48MOL    H1615150   7.560   3.576   6.393 -0.6183  0.0362  0.8284
   48MOL    H1715151   7.521   3.197   6.523  0.0937  2.2595 -2.6418
   48MOL    C1815152   7.844   3.295   6.438 -0.0761  1.0461 -0.0716
   48MOL    C1915153   0.073   3.420   6.416 -0.8117  0.1659 -0.7459
   48MOL    C2015154   0.050   3.513   6.544 -0.1347 -0.0609 -0.0384
   48MOL    O2115155   7.814   3.598   6.542 -0.3175  0.2159  0.3388
   48MOL    N2215156   0.125   3.501   6.655 -0.1469  0.4112  0.1268
   48MOL    C2315157   0.241   3.406   6.662  0.5802  0.0302 -0.1220
   48MOL    C2415158   0.082   3.553   6.788 -0.4302 -0.0824 -0.1056
   48MOL    H2515159   0.011   3.255   6.537  0.9173  1.0237 -0.2877
   48MOL    H2615160   0.023   3.214   6.372  0.1041  0.0622  1.1986
   48MOL    H2715161   0.177   3.389   6.421 -0.6832  0.5428 -1.0622
   48MOL    H2815162   0.224   3.302   6.632  0.2875 -0.2401  0.9496
   48MOL    H2915163   0.316   3.455   6.600  1.3050  2.3171  2.4796
   48MOL    H3015164   0.285   3.404   6.762  2.7038 -1.4845 -1.0397
   48MOL    H3115165   0.111   3.658   6.785 -1.7769  0.2876 -0.4315
   48MOL    H3215166   0.127   3.501   6.873  1.0188 -0.2787 -0.9774
   48MOL    H3315167   7.828   3.542   6.803 -0.4766  2.7149  1.9816
   48MOL    C3415168   0.050   3.494   6.283  0.1850  0.4887 -0.0004
   48MOL    C3515169   0.099   3.418   6.154 -0.8994  0.5549 -0.5913
   48MOL    C3615170   0.243   3.460   6.118 -0.8398 -0.6337 -0.0486
   48MOL    O3715171   0.263   3.578   6.092  0.0649 -0.2707  0.0020
   48MOL    N3815172   0.339   3.366   6.116 -0.0367 -0.2488  0.1564
   48MOL    C3915173   0.469   3.397   6.054  0.6104 -0.2270 -0.8094
   48MOL    C4015174   0.316   3.229   6.131  0.7664 -0.1924 -0.2968
   48MOL    H4115175   7.803   3.534   6.268 -0.4819 -1.3161 -0.4275
   48MOL    H4215176   0.107   3.586   6.299  0.7858  0.4685 -1.8878
   48MOL    H4315177   0.093   3.312   6.179 -0.4263  0.9216  1.2185
   48MOL    H4415178   0.548   3.322   6.058 -1.9300 -3.0619 -1.0671
   48MOL    H4515179   0.453   3.433   5.953  0.1036 -1.5365 -1.2107
   48MOL    H4615180   0.513   3.482   6.106 -0.0221 -1.4452  1.8086
   48MOL    H4715181   0.258   3.178   6.054  0.0328 -0.9022  0.7084
   48MOL    H4815182   0.272   3.203   6.227  3.0625  1.3884  1.2543
   48MOL    H4915183   0.402   3.165   6.150  0.2441 -0.7125  0.3593
   48MOL    C5015184   7.845   3.446   6.039 -0.4166  0.5279 -0.3988
   48MOL    C5115185   7.833   3.336   5.931 -0.0064  1.0952  0.1923
   48MOL    C5215186   0.109   3.313   5.848 -0.2854  0.1142 -0.4501
   48MOL    O5315187   0.185   3.410   5.835 -0.1742  0.2377  0.1647
   48MOL    N5415188   0.135   3.185   5.806  0.7447 -0.1711 -0.0123
   48MOL    C5515189   0.251   3.159   5.728 -0.3440  0.2351  0.6353
   48MOL    C5615190   0.048   3.069   5.837 -0.5787 -0.8513  0.2066
   48MOL    H5715191   7.740   3.446   6.070 -0.3297 -1.4172 -0.0297
   48MOL    H5815192   0.010   3.546   6.000  0.4279  0.1791 -0.8978
   48MOL    H5915193   7.800   3.251   5.991 -0.7095  1.4854  0.3629
   48MOL    H6015194   0.243   3.104   5.635  1.5739  3.0985 -1.2730
   48MOL    H6115195   0.314   3.246   5.715 -0.9890  0.8644  1.6080
   48MOL    H6215196   0.329   3.105   5.782  0.3378 -1.9853 -2.4661
   48MOL    H6315197   7.796   3.090   5.819 -0.2500  0.4863 -0.2174
   48MOL    H6415198   0.057   3.038   5.941 -1.8138 -0.3224  0.4842
   48MOL    H6515199   0.079   2.982   5.779 -2.5038  0.7569 -3.4137
   48MOL    C6615200   7.716   3.376   5.837 -0.5453 -0.5577 -0.0024
   48MOL    C6715201   7.742   3.490   5.731  0.1249 -0.2622 -0.0291
   48MOL    C6815202   7.730   3.634   5.783  0.0165  0.5004 -0.0169
   48MOL    O6915203   7.627   3.649   5.848 -0.0707  0.5317  0.0752
   48MOL    N7015204   7.817   3.739   5.766  0.3406  0.3357  0.7722
   48MOL    C7115205   7.791   3.871   5.822  0.6147 -0.6426 -0.2952
   48MOL    C7215206   0.091   3.735   5.690  0.0077  0.5109 -0.1451
   48MOL    H7315207   7.683   3.290   5.779 -1.2183 -0.2139 -0.1374
   48MOL    H7415208   7.625   3.395   5.893 -2.9032 -1.8630 -3.1901
   48MOL    H7515209   7.841   3.471   5.691  0.8589 -0.8810  2.0232
   48MOL    H7615210   7.753   3.939   5.746  0.3129  1.1557  1.4318
   48MOL    H7715211   7.729   3.863   5.912  0.5034 -0.6317 -0.3712
   48MOL    H7815212   0.035   3.901   5.860  0.1895  1.1279 -0.5728
   48MOL    H7915213   0.127   3.834   5.663  1.3015  0.1276  0.1532
   48MOL    H8015214   0.083   3.679   5.597  0.8092 -0.1533  0.1738
   48MOL    H8115215   0.168   3.673   5.737 -2.7970 -2.4824  0.6966
   48MOL    C8215216   7.641   3.462   5.614 -0.1569 -0.6474  0.6054
   48MOL    C8315217   7.654   3.545   5.485 -0.2743 -1.1521 -0.6312
   48MOL    C8415218   7.528   3.531   5.387 -0.2086 -0.8534 -0.0427
   48MOL    O8515219   7.460   3.430   5.396 -0.1524 -0.0620 -0.3740
   48MOL    N8615220   7.491   3.637   5.307  0.7361  0.1419  0.2363
   48MOL    C8715221   7.368   3.635   5.226 -0.7193  0.3285  0.3072
   48MOL    C8815222   7.562   3.767   5.310  0.2521  0.3530 -1.5751
   48MOL    H8915223   7.634   3.357   5.584 -0.5005 -0.4009 -0.1661
   48MOL    H9015224   7.542   3.487   5.651 -0.2751 -2.8389  1.8678
   48MOL    H9115225   7.658   3.648   5.520 -2.0455 -0.7929 -1.4345
   48MOL    H9215226   7.314   3.541   5.229  1.3906 -0.9364 -0.5056
   48MOL    H9315227   7.292   3.706   5.260  0.2966  0.1697  2.9677
   48MOL    H9415228   7.391   3.658   5.122 -0.9146  0.9720  0.4015
   48MOL    H9515229   7.570   3.813   5.408 -1.6723  0.3647 -1.4064
   48MOL    H9615230   7.530   3.834   5.230 -0.6144 -1.3655 -2.7131
   48MOL    H9715231   7.665   3.740   5.283  1.5376 -0.5669  3.6727
   48MOL    C9815232   7.786   3.506   5.409  0.2116  0.2870  0.0311
   48MOL    C9915233   7.786   3.374   5.327 -0.2449 -0.2946 -0.2679
   48MOL   C10015234   7.797   3.254   5.423  0.9668 -0.7000  0.0066
   48MOL   O10115235   0.021   3.261   5.519  0.4165 -0.7030  0.1694
   48MOL   N10215236   7.722   3.144   5.398 -0.7503  0.2674 -0.5769
   48MOL   C10315237   7.717   3.040   5.491 -0.2980 -0.3840  0.1076
   48MOL   C10415238   7.624   3.137   5.283 -0.3760 -0.6003  0.0131
   48MOL   H10515239   7.822   3.596   5.358 -1.2668  0.5223 -0.5996
   48MOL   H10615240   0.014   3.495   5.481 -0.2956 -0.1859  0.5355
   48MOL   H10715241   7.698   3.375   5.263 -1.8903  0.7542  1.9186
   48MOL   H10815242   7.631   3.043   5.559 -0.3414 -1.0167  0.0767
   48MOL   H10915243   7.721   2.942   5.446 -1.1576  0.3069 -1.4966
   48MOL   H11015244   7.802   3.049   5.559  0.6366  0.6182 -1.1580
   48MOL   H11115245   7.592   3.033   5.279  1.0915 -1.1803  2.3584
   48MOL   H11215246   7.667   3.158   5.185  0.0164 -2.1835 -0.1641
   48MOL   H11315247   7.551   3.214   5.308 -0.7617 -0.7514 -0.6306
   48MOL   C11415248   0.064   3.360   5.246  0.5060  0.1265 -0.3845
   48MOL   C11515249   0.107   3.485   5.155 -0.5133 -0.6132  0.1191
   48MOL   C11615250   7.850   3.529   5.058 -0.2250 -0.2335  0.2297
   48MOL   O11715251   7.801   3.442   4.989  0.1414  0.3097  0.1264
   48MOL   N11815252   7.811   3.657   5.046  0.4089  0.1565  0.0512
   48MOL   C11915253   7.689   3.693   4.969  0.2576 -0.4119  0.2265
   48MOL   C12015254   0.025   3.766   5.106  0.0516 -0.3083  0.0815
   48MOL   H12115255   0.146   3.328   5.310 -0.0790  1.3576  1.0148
   48MOL   H12215256   0.046   3.273   5.182 -2.2910 -0.0978  0.6482
   48MOL   H12315257   0.122   3.563   5.229  0.7612 -1.0361  0.3328
   48MOL   H12415258   7.668   3.618   4.892 -1.0707 -0.2029  0.3794
   48MOL   H12515259   7.606   3.692   5.039  0.1749 -0.6989  0.1274
   48MOL   H12615260   7.690   3.788   4.916 -1.7423 -1.4796 -1.8370
   48MOL   H12715261   0.003   3.772   5.213  1.6022  0.1598  0.3861
   48MOL   H12815262   0.001   3.860   5.055 -0.4707 -1.0614 -1.0754
   48MOL   H12915263   0.130   3.747   5.085 -0.2423 -1.3517 -0.4595
   48MOL   C13015264   0.246   3.466   5.088 -0.3166  0.0111 -0.4744
   48MOL   C13115265   0.369   3.466   5.177  0.6219 -0.4005  0.1429
   48MOL   C13215266   0.379   3.593   5.265 -0.3795  0.2216 -0.2418
   48MOL   O13315267   0.374   3.704   5.213 -0.1895  0.1173 -0.6466
   48MOL   N13415268   0.394   3.584   5.402 -0.3601  0.0289  0.0448
   48MOL   C13515269   0.414   3.460   5.474  0.2211  0.3072 -0.7397
   48MOL   C13615270   0.387   3.700   5.488  0.2713  0.0865  1.2361
   48MOL   H13715271   0.239   3.387   5.013 -0.8384  0.4535 -0.8962
   48MOL   H13815272   0.261   3.550   5.020 -1.5495 -0.5086 -1.4151
   48MOL   H13915273   0.359   3.371   5.230  0.4162 -0.5852 -0.2232
   48MOL   H14015274   0.325   3.405   5.506  1.4096 -1.1597  0.0814
   48MOL   H14115275   0.471   3.378   5.431  0.1524  1.2620 -2.7295
   48MOL   H14215276   0.461   3.476   5.571 -0.1429  1.2406 -0.7064
   48MOL   H14315277   0.364   3.671   5.591  0.6125 -1.8417  0.7883
   48MOL   H14415278   0.315   3.772   5.451 -0.4638 -1.7420 -0.9624
   48MOL   H14515279   0.488   3.740   5.488  0.2899  0.0947 -1.6794
   48MOL   C14615280   0.491   3.454   5.085  0.3119  0.3149 -0.1490
   48MOL   C14715281   0.621   3.425   5.156  0.1544  0.4595 -0.3480
   48MOL   C14815282   0.738   3.495   5.075  0.3005 -0.7817  0.5231
   48MOL   O14915283   0.776   3.441   4.968 -0.2036 -0.0862  0.0146
   48MOL   N15015284   0.796   3.607   5.125 -0.5232  0.5862 -0.0890
   48MOL   C15115285   0.763   3.660   5.259 -0.4241 -0.0173  0.0127
   48MOL   C15215286   0.915   3.673   5.062 -0.5788  0.3366  0.4951
   48MOL   H15315287   0.475   3.381   5.006 -2.7505  1.0195 -0.2266
   48MOL   H15415288   0.491   3.551   5.036 -1.5782  1.9542  2.9108
   48MOL   H15515289   0.611   3.466   5.256 -0.7068 -0.2254 -0.1493
   48MOL   H15615290   0.763   3.574   5.326 -2.4582  0.5991  0.8189
   48MOL   H15715291   0.843   3.728   5.290 -0.1119 -0.2440 -0.2883
   48MOL   H15815292   0.669   3.715   5.259 -1.0440 -1.0626 -0.0917
   48MOL   H15915293   0.997   3.651   5.130 -0.3656 -1.5228 -0.3471
   48MOL   H16015294   0.909   3.780   5.043  0.1741  0.4127  0.6867
   48MOL   H16115295   0.955   3.632   4.970 -2.0301 -2.7184  1.1713
   48MOL   C16215296   0.649   3.280   5.185  0.6176  0.1293  0.6351
   48MOL   C16315297   0.756   3.237   5.287  0.7768  0.1342  0.2167
   48MOL   C16415298   0.718   3.257   5.433  0.1518 -0.4631  0.3406
   48MOL   O16515299   0.743   3.364   5.490  0.3709 -0.4844  0.4041
   48MOL   N16615300   0.647   3.158   5.498  0.2460 -0.8686 -0.9788
   48MOL   C16715301   0.614   3.185   5.641 -0.6009 -0.4695  0.0441
   48MOL   C16815302   0.570   3.052   5.430 -0.0858  0.0558 -0.2935
   48MOL   H16915303   0.558   3.221   5.197  2.0048 -2.3854 -0.8580
   48MOL   H17015304   0.684   3.236   5.093 -1.8005 -5.0798  2.0293
   48MOL   H17115305   0.768   3.129   5.276  1.6379  0.2338  0.1936
   48MOL   H17215306   0.573   3.283   5.665 -1.5029 -1.0954  1.0793
   48MOL   H17315307   0.542   3.109   5.669 -0.6030 -0.5822 -0.2654
   48MOL   H17415308   0.704   3.167   5.700  1.9395  0.0787 -3.4820
   48MOL   H17515309   0.620   2.998   5.350  0.2060  0.3530 -0.3139
   48MOL   H17615310   0.478   3.098   5.393 -0.9909 -1.3715  0.1648
   48MOL   H17715311   0.530   2.980   5.501 -1.7958  1.0345 -0.2181
   48MOL   C17815312   0.899   3.285   5.261 -0.7130  0.3649 -0.0695
   48MOL   C17915313   1.008   3.193   5.322 -0.0819  0.2693 -0.4048
   48MOL   C18015314   1.150   3.260   5.340 -0.0915  0.6170 -0.4347
   48MOL   O18115315   1.206   3.294   5.237  0.0924  0.7460 -0.2141
   48MOL   N18215316   1.216   3.268   5.457 -0.2293  0.4322 -0.3523
   48MOL   C18315317   1.339   3.347   5.465  0.2758  0.6742 -0.5674
   48MOL   C18415318   1.151   3.243   5.589  0.1928 -0.2170 -0.4387
   48MOL   H18515319   0.922   3.283   5.155  0.3619 -1.7822  0.1780
   48MOL   H18615320   0.916   3.390   5.287  1.1978  0.1939 -0.6221
   48MOL   H18715321   0.963   3.175   5.420 -1.5312 -0.6605 -1.2129
   48MOL   H18815322   1.421   3.282   5.431  0.4603  0.3039  0.5687
   48MOL   H18915323   1.339   3.429   5.394 -1.0437  0.8602 -0.3530
   48MOL   H19015324   1.361   3.380   5.566 -1.5972  0.6044 -0.1339
   48MOL   H19115325   1.118   3.140   5.576 -1.1337 -0.0149  1.1426
   48MOL   H19215326   1.070   3.315   5.603  0.6108  0.2137 -0.2297
   48MOL   H19315327   1.218   3.260   5.673  2.8643 -0.3851 -2.4600
   48MOL   C19415328   1.020   3.055   5.248 -0.0012 -0.2790 -0.1353
   48MOL   C19515329   1.063   2.929   5.331 -0.4858 -0.0234 -0.3810
   48MOL   C19615330   1.143   2.839   5.235  0.5173  0.9482  1.1886
   48MOL   O19715331   1.078   2.745   5.177  0.3188 -0.1838  0.0349
   48MOL   N19815332   1.276   2.852   5.210 -0.3313 -0.1624  0.3989
   48MOL   C19915333   1.349   2.748   5.132 -0.3881  0.4053  0.1527
   48MOL   C20015334   1.365   2.950   5.272  0.8457 -0.4234  0.3465
   48MOL   H20115335   0.926   3.026   5.202 -0.4723 -0.9730  1.2503
   48MOL   H20215336   1.087   3.070   5.163 -2.1646  2.1844 -1.4570
   48MOL   H20315337   1.124   2.972   5.411  0.3560 -2.0219  0.0865
   48MOL   H20415338   1.435   2.797   5.088 -1.0813  0.3054 -1.3359
   48MOL   H20515339   1.378   2.671   5.203 -2.5343  0.9053  1.6490
   48MOL   H20615340   1.288   2.711   5.049  1.1294  0.9191 -1.1979
   48MOL   H20715341   1.463   2.965   5.228  1.5984 -2.3699  1.2891
   48MOL   H20815342   1.384   2.930   5.377 -0.6057 -1.8999  0.3679
   48MOL   H20915343   1.332   3.052   5.254 -0.9842 -1.0978 -0.3204
   48MOL   C21015344   0.933   2.857   5.385  0.2786  0.2146 -0.3645
   48MOL   C21115345   0.966   2.739   5.488 -0.2094  0.2310 -0.0679
   48MOL   C21215346   0.829   2.696   5.548  0.6666 -0.1958 -0.1174
   48MOL   O21315347   0.759   2.781   5.609  0.3012 -1.0775 -0.0984
   48MOL   N21415348   0.780   2.575   5.524  1.1172 -0.7076 -0.3378
   48MOL   C21515349   0.640   2.545   5.558 -0.6720 -0.1732  0.8379
   48MOL   C21615350   0.829   2.471   5.438  0.0700  0.0161 -0.1739
   48MOL   H21715351   0.861   2.925   5.431 -0.0722  0.7730 -1.7316
   48MOL   H21815352   0.872   2.816   5.305 -0.9639 -1.2513  1.3112
   48MOL   H21915353   1.002   2.663   5.419 -0.4081  0.8887 -0.9068
   48MOL   H22015354   0.572   2.630   5.562  1.7595  1.9784 -1.7804
   48MOL   H22115355   0.589   2.466   5.503 -0.5948  1.2656 -1.3320
   48MOL   H22215356   0.638   2.516   5.663 -0.0785 -1.0535  0.6055
   48MOL   H22315357   0.803   2.370   5.469  0.5365  0.6435  2.3370
   48MOL   H22415358   0.937   2.470   5.420  0.4299  0.4638  1.8742
   48MOL   H22515359   0.770   2.488   5.348 -0.4950 -0.3471  0.1261
   48MOL   C22615360   1.066   2.778   5.602 -0.2476  0.8673 -0.5284
   48MOL   C22715361   1.134   2.664   5.692 -0.1295 -0.7816  0.0289
   48MOL   C22815362   1.225   2.579   5.601 -0.1121  0.2052 -0.7408
   48MOL   O22915363   1.173   2.520   5.508  0.1987  0.0810 -0.0245
   48MOL   N23015364   1.363   2.574   5.609 -0.1740 -1.1284 -0.6107
   48MOL   C23115365   1.451   2.515   5.501 -0.1123  0.0609 -0.6676
   48MOL   C23215366   1.433   2.643   5.711  0.4116  0.3610  0.2368
   48MOL   H23315367   1.157   2.824   5.563  0.9021  0.6494  1.8059
   48MOL   H23415368   1.012   2.854   5.657  0.9049  0.8472  0.6418
   48MOL   H23515369   1.197   2.719   5.761 -0.6459 -1.0035  0.6848
   48MOL   H23615370   1.418   2.530   5.399  3.7459 -0.1310 -2.0213
   48MOL   H23715371   1.556   2.544   5.502 -1.0026  3.4865 -1.8339
   48MOL   H23815372   1.451   2.407   5.514  3.6914 -0.3664 -3.6320
   48MOL   H23915373   1.430   2.752   5.707 -1.5821  0.3579  1.0328
   48MOL   H24015374   1.535   2.605   5.700 -0.2666 -1.8847  1.2972
   48MOL   H24115375   1.398   2.610   5.809 -1.1628 -2.0174 -1.0620
   48MOL   C24215376   1.044   2.587   5.786 -0.6153 -0.0336  0.2312
   48MOL   C24315377   0.995   2.661   5.918 -0.2628  0.3898  0.1894
   48MOL   C24415378   1.113   2.667   6.022 -0.2269 -0.7242  0.0701
   48MOL   O24515379   1.149   2.561   6.072  0.0187  0.1192 -0.3985
   48MOL   N24615380   1.178   2.782   6.047 -0.3478 -0.4781 -0.4444
   48MOL   C24715381   1.160   2.907   5.979 -0.6517  0.6078 -0.6268
   48MOL   C24815382   1.296   2.783   6.139  0.6330 -0.0485  0.2725
   48MOL   H24915383   0.960   2.538   5.737  0.4941 -1.6897 -0.0220
   48MOL   H25015384   1.096   2.494   5.807 -0.5228  0.2612  1.3111
   48MOL   H25115385   0.962   2.763   5.898  0.2430  0.5626  0.2297
   48MOL   H25215386   1.064   2.918   5.929  0.2258  4.9638 -1.6145
   48MOL   H25315387   1.165   2.991   6.049  0.7182  1.4975 -1.7619
   48MOL   H25415388   1.248   2.913   5.915 -0.9904  1.4576 -1.0262
   48MOL   H25515389   1.367   2.711   6.099 -0.6495 -2.3401  1.9908
   48MOL   H25615390   1.264   2.754   6.239  0.5608  0.9299  0.5404
   48MOL   H25715391   1.357   2.873   6.146  1.7379 -0.7236 -0.5223
   48MOL   C25815392   0.876   2.586   5.973  0.0737  0.4363  0.5455
   48MOL   C25915393   0.787   2.642   6.080 -0.8362 -0.1774  0.3228
   48MOL   C26015394   0.756   2.792   6.057 -0.0368  0.3749 -0.0964
   48MOL   O26115395   0.830   2.871   6.111  0.4939 -0.3990  0.1262
   48MOL   N26215396   0.653   2.838   5.977  0.0835  0.2709  0.3697
   48MOL   C26315397   0.556   2.750   5.912  0.1814  0.0007 -0.7247
   48MOL   C26415398   0.646   2.982   5.938 -0.2481 -0.2233  0.5826
   48MOL   H26515399   0.811   2.558   5.890  1.8072  1.9701 -1.3928
   48MOL   H26615400   0.905   2.487   6.006  0.5585  0.5842  0.5648
   48MOL   H26715401   0.688   2.597   6.085 -0.6542 -0.5421  0.5749
   48MOL   H26815402   0.557   2.642   5.928 -0.1851 -0.0007 -0.6925
   48MOL   H26915403   0.453   2.773   5.941  0.1211 -1.3752  0.2191
   48MOL   H27015404   0.564   2.763   5.804  0.8329  1.4984 -0.5105
   48MOL   H27115405   0.605   2.991   5.837  1.4264 -1.5557 -0.2464
   48MOL   H27215406   0.738   3.040   5.930 -0.5909  0.3089  0.4386
   48MOL   H27315407   0.578   3.037   6.004  1.5207  2.1420  0.5017
   48MOL   C27415408   0.837   2.614   6.220 -0.0655  0.0863 -0.4157
   48MOL   C27515409   0.815   2.464   6.264 -0.5712 -0.3311  0.1115
   48MOL   C27615410   0.674   2.444   6.320 -0.0744 -0.1947 -0.3594
   48MOL   O27715411   0.645   2.497   6.433  0.1208  1.1964 -0.4364
   48MOL   N27815412   0.582   2.356   6.263  0.2672 -0.2707 -0.0555
   48MOL   C27915413   0.588   2.308   6.122  0.3063  0.2996  0.6889
   48MOL   C28015414   0.478   2.291   6.348  0.0636  0.0451 -0.2163
   48MOL   H28115415   0.938   2.654   6.232 -0.5799  1.1265  0.4990
   48MOL   H28215416   0.773   2.679   6.279 -2.6799 -1.7847 -1.1128
   48MOL   H28315417   0.833   2.391   6.186 -0.2903  1.1905 -1.2881
   48MOL   H28415418   0.670   2.236   6.116 -1.2357 -1.4323 -0.3760
   48MOL   H28515419   0.496   2.262   6.086 -0.5039  3.9643 -2.2182
   48MOL   H28615420   0.614   2.387   6.052  0.7301 -0.8730 -0.5030
   48MOL   H28715421   0.389   2.270   6.289 -0.7334 -0.0753  1.0167
   48MOL   H28815422   0.441   2.345   6.435 -1.9703 -2.4632  0.5509
   48MOL   H28915423   0.512   2.192   6.379 -1.4057 -1.7687 -4.0129
   48MOL   C29015424   0.922   2.418   6.359 -0.4936  0.4424  0.0105
   48MOL   C29115425   0.938   2.268   6.376  0.4274 -0.6464  0.8235
   48MOL   C29215426   1.001   2.222   6.507  0.9439 -0.3864 -0.4472
   48MOL   O29315427   1.120   2.243   6.523  0.3679  0.2522  0.3323
   48MOL   N29415428   0.925   2.179   6.615  0.0761 -0.1576 -0.2449
   48MOL   C29515429   0.787   2.212   6.648 -0.2276  0.2936  0.4927
   48MOL   C29615430   0.993   2.109   6.716  0.4798  0.7216  0.4448
   48MOL   H29715431   1.016   2.467   6.331  0.3026 -0.6626  0.6665
   48MOL   H29815432   0.900   2.457   6.459 -0.4549  0.4245  0.0266
   48MOL   H29915433   0.832   2.249   6.392  0.7570 -0.9203  2.8300
   48MOL   H30015434   0.777   2.228   6.755 -3.6229  0.1841  0.2431
   48MOL   H30115435   0.752   2.312   6.624  2.1232  1.6728  2.4717
   48MOL   H30215436   0.714   2.136   6.621 -0.4063  0.3208  0.8912
   48MOL   H30315437   1.025   2.018   6.666  0.9143 -0.1212  2.2117
   48MOL   H30415438   0.931   2.084   6.802  1.2295 -1.3826  0.3916
   48MOL   H30515439   1.082   2.152   6.761  3.2119 -1.3084 -2.7960
   48MOL   C30615440   0.993   2.184   6.253  0.5815  0.2254  0.2867
   48MOL   C30715441   1.141   2.208   6.210  0.2146 -0.2009  0.1005
   48MOL   C30815442   1.159   2.164   6.062  0.0881  0.0578  0.5648
   48MOL   O30915443   1.080   2.079   6.012 -0.2215  0.0271 -0.2666
   48MOL   N31015444   1.259   2.218   5.990  0.1996  0.2498  0.1326
   48MOL   C31115445   1.245   2.213   5.849  0.1421 -0.0554  0.4639
   48MOL   C31215446   1.371   2.284   6.057  0.0840  0.4751  0.2634
   48MOL   H31315447   0.993   2.081   6.289  0.3415  0.5910  1.3672
   48MOL   H31415448   0.917   2.187   6.175  0.3926  0.1590  0.4662
   48MOL   H31515449   1.163   2.315   6.217 -2.2804  0.3912 -0.5937
   48MOL   H31615450   1.186   2.298   5.816  1.3847  0.9642  0.8153
   48MOL   H31715451   1.342   2.229   5.801 -0.4782 -2.7056 -1.7919
   48MOL   H31815452   1.206   2.118   5.812 -0.8142 -0.1482  1.6683
   48MOL   H31915453   1.342   2.374   6.111  0.9644  1.7339 -1.3119
   48MOL   H32015454   1.451   2.307   5.987  0.8496  0.9104  1.2628
   48MOL   H32115455   1.423   2.222   6.131  1.8387  0.7389 -0.7113
   48MOL   H32215456   1.216   2.156   6.269  1.2418 -0.3899 -1.3574
   49MOL     C115457   5.406   0.870   1.470  0.5107 -0.3077  0.3552
   49MOL     C215458   5.295   0.974   1.436 -0.0612  0.0570 -0.1824
   49MOL     C315459   5.359   1.112   1.464 -0.1755 -0.2669  0.9896
   49MOL     O415460   5.356   1.156   1.580 -1.0285 -0.7662  0.5383
   49MOL     N515461   5.394   1.194   1.363 -0.1788  0.4268  0.0561
   49MOL     C615462   5.387   1.160   1.219 -0.5609  0.4624 -0.4514
   49MOL     C715463   5.434   1.329   1.387  0.8916 -0.4237 -0.1251
   49MOL     H815464   5.367   0.769   1.454 -1.3458  0.6975 -1.7901
   49MOL     H915465   5.436   0.892   1.572 -0.8646  0.8936  0.5238
   49MOL    H1015466   5.278   0.969   1.329  0.3183  1.1254 -0.2995
   49MOL    H1115467   5.281   1.165   1.193 -1.4398  2.3590  3.0894
   49MOL    H1215468   5.446   1.228   1.158  1.2240 -0.5254  0.1367
   49MOL    H1315469   5.413   1.055   1.209 -0.5047  0.3707  0.5476
   49MOL    H1415470   5.486   1.387   1.310 -0.5748  0.6696 -0.3063
   49MOL    H1515471   5.508   1.331   1.467  1.3116  1.3824 -0.5259
   49MOL    H1615472   5.347   1.386   1.419 -0.3214 -1.8441 -0.8717
   49MOL    H1715473   5.486   0.883   1.397 -0.5323 -4.3168 -1.6338
   49MOL    C1815474   5.156   0.961   1.517  0.6337 -0.9006 -0.1117
   49MOL    C1915475   5.036   1.039   1.457  0.2389 -0.3306 -0.5879
   49MOL    C2015476   4.937   1.087   1.566 -0.9212 -0.2134 -0.5607
   49MOL    O2115477   4.920   1.009   1.664  0.1008 -0.1380  0.2933
   49MOL    N2215478   4.879   1.205   1.563  0.0964  0.1800 -1.0363
   49MOL    C2315479   4.867   1.299   1.447  0.1108  0.2355 -0.6834
   49MOL    C2415480   4.813   1.256   1.685 -0.2869 -0.2705 -0.0620
   49MOL    H2515481   5.126   0.857   1.518  0.9202 -0.9758  0.8685
   49MOL    H2615482   5.175   0.975   1.624 -0.3680 -0.2799 -0.0063
   49MOL    H2715483   5.080   1.131   1.419  0.7892 -0.4319 -0.2044
   49MOL    H2815484   4.905   1.249   1.358 -1.3257 -0.5877 -0.8522
   49MOL    H2915485   4.762   1.324   1.429 -0.0982 -0.7477 -0.8530
   49MOL    H3015486   4.918   1.394   1.465 -1.2673  0.6736  1.0659
   49MOL    H3115487   4.705   1.249   1.670 -0.2853  0.0600 -0.2310
   49MOL    H3215488   4.815   1.365   1.697  1.9113 -0.3941  0.9555
   49MOL    H3315489   4.833   1.197   1.775 -2.3515 -1.9011 -0.6506
   49MOL    C3415490   4.950   0.975   1.342 -0.1075 -0.3525 -0.1205
   49MOL    C3515491   4.872   0.838   1.372  0.3497  0.0831 -0.2511
   49MOL    C3615492   4.946   0.711   1.326 -0.0434 -0.4865 -0.1262
   49MOL    O3715493   4.994   0.697   1.213  0.8976 -0.1158 -0.2371
   49MOL    N3815494   4.967   0.611   1.410 -0.6806 -0.0298  0.4172
   49MOL    C3915495   5.043   0.493   1.374 -0.0051  0.4999  0.2191
   49MOL    C4015496   4.919   0.615   1.548  0.1871  0.1663 -0.3341
   49MOL    H4115497   4.894   1.054   1.291  1.3791  0.0942 -1.1068
   49MOL    H4215498   5.015   0.951   1.259 -1.9118  0.1395 -1.7260
   49MOL    H4315499   4.850   0.847   1.478 -2.0206  2.0831 -0.8600
   49MOL    H4415500   5.000   0.432   1.295 -0.2510  0.1868  0.5895
   49MOL    H4515501   5.147   0.510   1.346  0.1066 -1.0146 -0.3620
   49MOL    H4615502   5.063   0.429   1.461  1.6825  1.3084  0.4413
   49MOL    H4715503   4.923   0.511   1.580 -1.0952 -0.0228 -0.7735
   49MOL    H4815504   4.815   0.642   1.561  0.6239  1.2015  1.0854
   49MOL    H4915505   4.977   0.669   1.623 -0.1678  1.1593 -0.7723
   49MOL    C5015506   4.731   0.853   1.304 -0.3905  0.1695  0.4444
   49MOL    C5115507   4.643   0.722   1.281  0.4088 -0.0052  0.0279
   49MOL    C5215508   4.668   0.663   1.138 -0.2002 -0.2983 -0.3103
   49MOL    O5315509   4.662   0.740   1.042 -0.4572  0.3819  0.2541
   49MOL    N5415510   4.690   0.531   1.122  0.4703  0.7907  0.4907
   49MOL    C5515511   4.677   0.429   1.226 -0.0770  0.1597 -0.2276
   49MOL    C5615512   4.738   0.486   0.995 -0.9261  0.3953  0.4263
   49MOL    H5715513   4.673   0.932   1.350 -1.1961  0.2291 -0.6762
   49MOL    H5815514   4.759   0.883   1.203 -0.7433 -1.7258 -0.2557
   49MOL    H5915515   4.683   0.654   1.356  1.1963 -0.3621 -0.6994
   49MOL    H6015516   4.741   0.443   1.313  0.5484 -2.7608 -0.1672
   49MOL    H6115517   4.573   0.449   1.253  0.3876  1.2061  0.8203
   49MOL    H6215518   4.693   0.330   1.184  2.7272  1.0063 -1.2872
   49MOL    H6315519   4.845   0.502   0.990 -1.0126  0.8205 -0.1548
   49MOL    H6415520   4.688   0.529   0.908 -0.1875 -1.3207 -0.8599
   49MOL    H6515521   4.716   0.380   0.982  1.6045 -0.1621  0.5748
   49MOL    C6615522   4.491   0.728   1.318 -0.6334  0.2429 -0.5838
   49MOL    C6715523   4.388   0.800   1.222 -0.0884 -0.4766 -0.6530
   49MOL    C6815524   4.407   0.955   1.221 -0.0796  0.2819  0.5432
   49MOL    O6915525   4.371   1.014   1.318  0.0855  0.1725  0.0488
   49MOL    N7015526   4.455   1.025   1.112  0.6973  0.3238  0.3741
   49MOL    C7115527   4.525   1.155   1.131  0.5259  0.0381  0.0903
   49MOL    C7215528   4.443   0.979   0.974  0.4698  0.6393  0.0583
   49MOL    H7315529   4.448   0.629   1.328  0.5161 -0.4084 -1.9638
   49MOL    H7415530   4.481   0.762   1.421 -2.4436 -3.3620  0.5117
   49MOL    H7515531   4.393   0.755   1.123 -0.8629  1.4368 -1.5740
   49MOL    H7615532   4.448   1.226   1.160  1.5676  0.3207  2.2615
   49MOL    H7715533   4.570   1.126   1.226  3.1409 -1.1749 -1.4414
   49MOL    H7815534   4.604   1.183   1.061 -0.3411 -0.8157 -1.2732
   49MOL    H7915535   4.398   0.882   0.951  0.7073  0.6592 -0.5008
   49MOL    H8015536   4.542   0.963   0.932  0.1630  1.5860 -1.0699
   49MOL    H8115537   4.383   1.047   0.913  0.0173  1.1471  1.0503
   49MOL    C8215538   4.245   0.755   1.261 -0.2882 -0.9247  0.0005
   49MOL    C8315539   4.120   0.830   1.220  0.0663 -0.2000  0.5340
   49MOL    C8415540   4.002   0.772   1.305 -0.0577 -0.5047 -0.1489
   49MOL    O8515541   3.918   0.699   1.257 -0.5461 -0.1516 -0.1205
   49MOL    N8615542   3.988   0.812   1.434 -0.1204 -0.5936  0.6090
   49MOL    C8715543   3.905   0.737   1.530  0.0607  0.7179  0.5911
   49MOL    C8815544   4.060   0.932   1.485 -0.3937  0.6457 -0.0591
   49MOL    H8915545   4.231   0.650   1.234  1.1117 -1.1548  0.1224
   49MOL    H9015546   4.249   0.745   1.370  0.6431  0.2489  0.0787
   49MOL    H9115547   4.130   0.938   1.223  0.1656 -0.2055  0.3653
   49MOL    H9215548   3.803   0.771   1.509  0.1782  0.4408 -0.4521
   49MOL    H9315549   3.898   0.630   1.513 -1.8856  0.6979  1.3293
   49MOL    H9415550   3.943   0.751   1.631  1.4496  3.3813 -0.2289
   49MOL    H9515551   4.065   0.941   1.594 -0.5048 -1.2441  0.1078
   49MOL    H9615552   4.003   1.018   1.448  1.0336  1.9255  0.6599
   49MOL    H9715553   4.158   0.938   1.439  1.5884 -0.4728  3.8449
   49MOL    C9815554   4.083   0.821   1.068 -0.7505 -0.7743 -0.5153
   49MOL    C9915555   4.050   0.679   1.004  0.4230  1.1549 -0.0940
   49MOL   C10015556   4.182   0.601   0.967  0.9378 -0.3613  0.3997
   49MOL   O10115557   4.240   0.661   0.878  0.3488  0.0787 -0.3884
   49MOL   N10215558   4.222   0.484   1.016  0.0330 -0.7109 -0.4968
   49MOL   C10315559   4.357   0.436   0.996  1.0032 -0.2698 -0.2513
   49MOL   C10415560   4.138   0.385   1.088  0.7417 -0.1589  0.8705
   49MOL   H10515561   3.997   0.886   1.052  0.3440  1.0667  0.8303
   49MOL   H10615562   4.157   0.864   1.000  2.3204 -0.0447  3.1186
   49MOL   H10715563   4.004   0.607   1.071  0.3182 -3.1255 -4.5041
   49MOL   H10815564   4.346   0.341   0.943 -1.7312 -1.7840  2.8629
   49MOL   H10915565   4.423   0.505   0.943 -0.6372  0.6714 -1.1137
   49MOL   H11015566   4.398   0.411   1.094  4.2121  0.7777 -1.2730
   49MOL   H11115567   4.033   0.402   1.064  1.0558 -1.1703 -1.3715
   49MOL   H11215568   4.159   0.391   1.194 -0.2127  1.1406  1.0022
   49MOL   H11315569   4.151   0.284   1.050  0.8299  0.1881 -0.0336
   49MOL   C11415570   3.955   0.687   0.873  0.0337 -0.0672  0.5748
   49MOL   C11515571   3.805   0.724   0.894 -0.2168  0.1730 -0.0263
   49MOL   C11615572   3.744   0.620   0.990 -0.7657  0.1258 -0.1645
   49MOL   O11715573   3.749   0.498   0.952  0.3323 -0.0747 -0.1915
   49MOL   N11815574   3.674   0.664   1.101  0.5902 -0.4674  0.1045
   49MOL   C11915575   3.637   0.561   1.197  0.4452  0.7895 -0.6200
   49MOL   C12015576   3.619   0.799   1.122  0.0360  0.2317  0.0884
   49MOL   H12115577   3.995   0.765   0.808 -0.9818  0.3429  0.4448
   49MOL   H12215578   3.963   0.585   0.835  2.4728  0.6448 -0.9878
   49MOL   H12315579   3.787   0.822   0.937  0.0083 -0.0776  0.6481
   49MOL   H12415580   3.649   0.596   1.300  1.8551  0.3137 -0.6120
   49MOL   H12515581   3.539   0.516   1.190  1.8604 -2.5173  0.0790
   49MOL   H12615582   3.711   0.481   1.201 -2.2309 -1.6783  1.9425
   49MOL   H12715583   3.570   0.835   1.031 -1.4334 -0.9320  0.3839
   49MOL   H12815584   3.688   0.869   1.168  1.3257  0.2310 -1.7881
   49MOL   H12915585   3.536   0.788   1.192 -0.1992  2.4693  0.1782
   49MOL   C13015586   3.724   0.704   0.768 -0.5035  0.0587  0.5263
   49MOL   C13115587   3.723   0.823   0.671  0.3475  0.1311 -0.1148
   49MOL   C13215588   3.630   0.937   0.716 -0.6196 -0.3310 -0.3122
   49MOL   O13315589   3.523   0.915   0.767 -0.0722  0.0172  0.2465
   49MOL   N13415590   3.672   1.065   0.695  0.1871 -0.3727  0.2833
   49MOL   C13515591   3.782   1.103   0.606  0.4526 -0.3989  0.0401
   49MOL   C13615592   3.571   1.175   0.728  0.5236 -0.0794 -0.0020
   49MOL   H13715593   3.767   0.620   0.714 -0.9309  1.0956 -1.4671
   49MOL   H13815594   3.618   0.683   0.785 -1.4303  0.2987 -4.2342
   49MOL   H13915595   3.827   0.854   0.664 -0.0907  1.6649  0.0338
   49MOL   H14015596   3.818   1.022   0.542  0.6901 -1.3212  1.3267
   49MOL   H14115597   3.767   1.192   0.545  2.2703  0.6011  1.0077
   49MOL   H14215598   3.866   1.112   0.676 -1.1357  1.3734  1.7693
   49MOL   H14315599   3.546   1.185   0.834  0.9511 -1.9158  0.2810
   49MOL   H14415600   3.479   1.158   0.672  2.0558 -0.0041 -2.6396
   49MOL   H14515601   3.606   1.275   0.700  1.4062  0.0573  1.5142
   49MOL   C14615602   3.659   0.781   0.540 -0.2073 -0.1889 -0.9503
   49MOL   C14715603   3.738   0.686   0.444  0.1022  0.2301  0.1867
   49MOL   C14815604   3.770   0.752   0.306  0.2987 -0.7066  0.7757
   49MOL   O14915605   3.675   0.804   0.242 -0.3360  0.1923 -0.1049
   49MOL   N15015606   3.894   0.744   0.255 -0.4988  0.7940  0.1675
   49MOL   C15115607   3.922   0.784   0.113  0.5252 -0.3369  0.2337
   49MOL   C15215608   4.012   0.714   0.340 -0.2166 -0.1621  0.1506
   49MOL   H15315609   3.560   0.747   0.568  0.7549 -1.7632  0.5879
   49MOL   H15415610   3.636   0.874   0.487 -2.0527 -0.0819  0.0110
   49MOL   H15515611   3.814   0.633   0.501 -1.8463 -0.1855  2.4908
   49MOL   H15615612   3.979   0.876   0.122 -0.9728  0.6215  0.0202
   49MOL   H15715613   3.985   0.707   0.067 -0.4107 -0.2529 -1.2307
   49MOL   H15815614   3.832   0.806   0.056  1.3779  1.5223 -0.4384
   49MOL   H15915615   4.052   0.625   0.292 -1.9278 -0.3654 -0.9599
   49MOL   H16015616   4.001   0.687   0.445  2.1005  0.8541  0.6851
   49MOL   H16115617   4.077   0.800   0.327 -2.1447  1.3414  0.1291
   49MOL   C16215618   3.645   0.561   0.416 -0.2230 -0.0733  0.2830
   49MOL   C16315619   3.691   0.455   0.317  0.0006  0.5139  0.2567
   49MOL   C16415620   3.573   0.350   0.302 -0.1805  0.3317 -0.3622
   49MOL   O16515621   3.572   0.256   0.376  0.2637 -0.5490  0.2180
   49MOL   N16615622   3.487   0.367   0.196  0.1016  0.3846 -0.5207
   49MOL   C16715623   3.399   0.259   0.162  0.0459  0.2730 -0.2945
   49MOL   C16815624   3.466   0.499   0.139 -0.2302 -0.3158 -0.6743
   49MOL   H16915625   3.622   0.512   0.510 -0.5511 -0.1196  0.1780
   49MOL   H17015626   3.549   0.604   0.389 -0.1878  0.0813  0.3994
   49MOL   H17115627   3.708   0.508   0.223  0.8448  0.7835  0.5540
   49MOL   H17215628   3.451   0.185   0.101  0.6369  0.2530  0.2301
   49MOL   H17315629   3.346   0.203   0.239  1.1892 -1.0175 -0.4181
   49MOL   H17415630   3.316   0.298   0.104  0.7002  0.1309 -1.3484
   49MOL   H17515631   3.380   0.495   0.072 -0.6820 -0.1029 -0.1011
   49MOL   H17615632   3.546   0.518   0.067 -0.0617  0.3263 -0.3219
   49MOL   H17715633   3.447   0.579   0.210 -0.8385 -2.4765  1.6554
   49MOL   C17815634   3.822   0.371   0.367 -0.0343  0.2924  0.5136
   49MOL   C17915635   3.919   0.300   0.265  0.3531 -0.2658  0.4406
   49MOL   C18015636   3.856   0.255   0.138  0.4230 -0.2705 -0.5113
   49MOL   O18115637   3.787   0.157   0.153  0.2813  0.4652  0.0447
   49MOL   N18215638   3.868   0.321   0.021 -0.1525 -0.5492  0.3707
   49MOL   C18315639   3.919   0.454   0.001 -0.5166 -0.2962  0.1117
   49MOL   C18415640   3.790   0.275   7.761 -0.7086  0.2015 -1.1512
   49MOL   H18515641   3.892   0.429   0.426  1.8006 -1.6414  0.2707
   49MOL   H18615642   3.792   0.302   0.445  0.6033 -0.8789 -0.2680
   49MOL   H18715643   3.979   0.382   0.227  1.9252 -0.1562  3.0210
   49MOL   H18815644   3.853   0.519   0.059 -2.4271  0.6196 -2.9567
   49MOL   H18915645   4.022   0.460   0.035  0.2348  0.6096 -2.1793
   49MOL   H19015646   3.907   0.489   7.751  0.3583 -1.2857 -0.3264
   49MOL   H19115647   3.682   0.292   7.761 -0.6035  0.9371  0.7573
   49MOL   H19215648   3.809   0.168   7.747 -1.2821 -0.4457  2.4967
   49MOL   H19315649   3.816   0.329   7.670 -0.9906  0.7168 -0.9294
   49MOL   C19415650   4.013   0.200   0.336  0.4996  0.4457 -0.4345
   49MOL   C19515651   4.107   0.254   0.446 -0.2982 -0.5152 -0.6055
   49MOL   C19615652   4.208   0.360   0.381  0.9795  0.2418 -0.8442
   49MOL   O19715653   4.231   0.350   0.263 -0.1057  0.0290  0.2360
   49MOL   N19815654   4.244   0.472   0.444 -1.1138  0.3891  0.5112
   49MOL   C19915655   4.212   0.508   0.587  0.3282 -0.1019 -0.3386
   49MOL   C20015656   4.353   0.555   0.381 -0.3549  0.0305 -0.4066
   49MOL   H20115657   3.947   0.121   0.373 -0.4931  1.1984 -0.5787
   49MOL   H20215658   4.070   0.163   0.251 -2.1124 -0.2496 -1.9573
   49MOL   H20315659   4.059   0.306   0.529  1.9911 -0.8670  1.0107
   49MOL   H20415660   4.110   0.546   0.596  0.7906  0.4666  3.2668
   49MOL   H20515661   4.236   0.426   0.655  1.1152  0.9748  0.7153
   49MOL   H20615662   4.278   0.590   0.616  0.3771  0.5578 -2.2423
   49MOL   H20715663   4.294   0.633   0.333  1.5098  1.3194 -0.6637
   49MOL   H20815664   4.409   0.492   0.313  1.4553 -1.2712  2.2007
   49MOL   H20915665   4.419   0.608   0.450 -0.5910 -1.9855  1.4442
   49MOL   C21015666   4.197   0.143   0.496 -0.1628  0.1384  0.1799
   49MOL   C21115667   4.136   0.046   0.603 -0.1227 -0.1842 -0.9019
   49MOL   C21215668   4.084   0.131   0.724  0.0616  0.8594 -0.0456
   49MOL   O21315669   4.170   0.175   0.797  0.5623  0.2402 -0.1313
   49MOL   N21415670   3.951   0.165   0.730  0.2092  0.1013 -0.0272
   49MOL   C21515671   3.845   0.080   0.669 -0.1381 -0.8604 -0.1231
   49MOL   C21615672   3.901   0.269   0.816  0.1987 -0.5473 -0.0049
   49MOL   H21715673   4.247   0.074   0.429 -1.0064 -0.3256  0.0224
   49MOL   H21815674   4.285   0.183   0.547 -0.4600  1.2415 -0.1625
   49MOL   H21915675   4.049   7.853   0.556 -0.5545 -0.1318 -0.1646
   49MOL   H22015676   3.748   0.118   0.701  1.2697  2.2484  0.6929
   49MOL   H22115677   3.840   0.107   0.563  2.5089 -0.4283 -0.1716
   49MOL   H22215678   3.858   7.827   0.689 -1.7895 -1.0506  0.0225
   49MOL   H22315679   3.968   0.354   0.806 -0.1214 -0.3244 -0.3170
   49MOL   H22415680   3.884   0.235   0.918  1.2998 -0.8197  0.0928
   49MOL   H22515681   3.806   0.304   0.773 -1.1391  0.5299  3.6029
   49MOL   C22615682   4.235   7.790   0.647  0.0748 -0.0472  0.3888
   49MOL   C22715683   4.185   7.677   0.738  0.4737  0.1135  0.5355
   49MOL   C22815684   4.291   7.589   0.805  0.3115  0.3586 -0.6710
   49MOL   O22915685   4.367   7.526   0.730  0.6126  0.2143 -0.1496
   49MOL   N23015686   4.294   7.570   0.939 -0.6966  0.4635 -0.3777
   49MOL   C23115687   4.223   7.652   1.035  0.8127 -0.6731 -0.3267
   49MOL   C23215688   4.382   7.464   0.994 -0.1780  0.1311  0.0422
   49MOL   H23315689   4.276   7.742   0.558 -0.6929  3.3198 -1.9058
   49MOL   H23415690   4.320   7.837   0.698  1.5127 -0.3978 -1.6038
   49MOL   H23515691   4.114   7.714   0.812 -3.0017 -1.5274 -1.8676
   49MOL   H23615692   4.115   7.648   1.023  0.7365 -1.8693  0.6519
   49MOL   H23715693   4.256   7.635   1.138  2.1362  0.5716 -0.5353
   49MOL   H23815694   4.262   7.753   1.030 -0.0297 -0.3598 -0.7181
   49MOL   H23915695   4.369   7.365   0.950  1.8051 -2.4444  4.8974
   49MOL   H24015696   4.378   7.456   1.103  1.3940  1.5118  0.2256
   49MOL   H24115697   4.483   7.491   0.963  0.0527  0.0241  0.6925
   49MOL   C24215698   4.112   7.576   0.643 -0.0629  0.1612  1.1934
   49MOL   C24315699   4.050   7.444   0.709 -0.1007  0.6318  0.4263
   49MOL   C24415700   3.997   7.347   0.606 -0.3741  0.2665 -0.4982
   49MOL   O24515701   3.897   7.386   0.548  1.1932  0.6059 -0.7530
   49MOL   N24615702   4.062   7.231   0.575  0.2229  0.7716 -0.1654
   49MOL   C24715703   3.993   7.116   0.518  0.4515  0.0288  0.1134
   49MOL   C24815704   4.211   7.211   0.592  0.2774 -0.5620  0.1324
   49MOL   H24915705   4.023   7.633   0.615 -0.1594 -0.9851 -0.9895
   49MOL   H25015706   4.161   7.563   0.546  0.3993  3.7815  0.8761
   49MOL   H25115707   4.129   7.396   0.768 -1.0386 -1.5291  0.0014
   49MOL   H25215708   4.025   7.027   0.572 -1.3645 -1.2838 -0.9178
   49MOL   H25315709   3.885   7.123   0.531  0.7602  1.7397  2.1035
   49MOL   H25415710   4.026   7.104   0.415 -0.1940  0.0876 -0.1008
   49MOL   H25515711   4.241   7.193   0.695  3.2068 -1.5565 -0.8247
   49MOL   H25615712   4.269   7.291   0.547  0.5865 -1.2741 -0.7562
   49MOL   H25715713   4.259   7.127   0.542  1.3752  0.5329 -0.6868
   49MOL   C25815714   3.933   7.480   0.804 -0.4873 -0.2354 -0.2104
   49MOL   C25915715   3.886   7.364   0.901 -0.7196  0.2909 -0.3362
   49MOL   C26015716   3.734   7.372   0.923 -0.2877 -0.0372 -0.3711
   49MOL   O26115717   3.696   7.465   0.991  0.5215  0.9244  1.2217
   49MOL   N26215718   3.652   7.281   0.870  0.0019  0.2246  0.2750
   49MOL   C26315719   3.503   7.303   0.892 -0.4067 -0.2380 -1.3412
   49MOL   C26415720   3.691   7.157   0.799 -0.1402  0.2911 -0.4651
   49MOL   H26515721   3.960   7.554   0.879 -1.5765  0.8007 -0.8421
   49MOL   H26615722   3.853   7.530   0.750  0.9879  2.3477 -0.0951
   49MOL   H26715723   3.921   7.277   0.846  0.6636  0.0162  0.9388
   49MOL   H26815724   3.452   7.230   0.955 -1.1027  0.5243 -1.0139
   49MOL   H26915725   3.479   7.402   0.930 -0.7186 -0.4518 -0.9751
   49MOL   H27015726   3.462   7.297   0.791  0.7008  4.0874 -2.1414
   49MOL   H27115727   3.615   7.107   0.739  0.1989  0.3828 -0.9804
   49MOL   H27215728   3.720   7.076   0.866 -1.7786  0.4123  0.3973
   49MOL   H27315729   3.778   7.167   0.733 -0.0021 -1.4400 -0.5673
   49MOL   C27415730   3.959   7.363   1.029 -0.4395 -0.2178  0.6166
   49MOL   C27515731   3.969   7.218   1.076 -0.6897 -0.4506  0.3148
   49MOL   C27615732   3.995   7.230   1.229  0.3514  0.0841  0.2719
   49MOL   O27715733   4.108   7.270   1.264  0.0090  0.0500  0.5991
   49MOL   N27815734   3.906   7.186   1.322  0.0077 -0.0634  0.1544
   49MOL   C27915735   3.941   7.178   1.468 -0.0606 -0.3455  0.0836
   49MOL   C28015736   3.770   7.151   1.279 -0.1266  0.4227 -0.2236
   49MOL   H28115737   4.057   7.410   1.024  0.5544 -2.3550 -0.4461
   49MOL   H28215738   3.906   7.423   1.103 -1.4443  0.3688 -0.5545
   49MOL   H28315739   3.879   7.164   1.047 -2.0086  2.8084 -1.9803
   49MOL   H28415740   3.886   7.251   1.528  1.3542 -1.2757  2.5695
   49MOL   H28515741   3.903   7.090   1.520 -1.2360  0.0316 -0.1187
   49MOL   H28615742   4.048   7.167   1.487  0.3936 -1.5626 -2.9904
   49MOL   H28715743   3.707   7.102   1.353 -1.2777  1.5528 -0.4359
   49MOL   H28815744   3.751   7.079   1.199 -1.1442  0.5428 -0.0972
   49MOL   H28915745   3.717   7.245   1.271 -4.4735 -1.8352  0.5820
   49MOL   C29015746   4.104   7.152   1.011  0.0065  0.1810  0.7786
   49MOL   C29115747   4.108   6.997   1.027  0.1326  0.4196 -0.1881
   49MOL   C29215748   4.254   6.960   1.081  0.1077 -0.3677  0.3498
   49MOL   O29315749   4.353   6.999   1.021 -0.0539 -0.1315 -0.2204
   49MOL   N29415750   4.260   6.894   1.196 -0.7435 -1.2604 -0.7112
   49MOL   C29515751   4.148   6.822   1.262  0.1451  0.4264 -0.2463
   49MOL   C29615752   4.386   6.901   1.274  0.1876 -1.0835  0.1770
   49MOL   H29715753   4.122   7.185   0.908  0.1435  1.1193  1.0970
   49MOL   H29815754   4.192   7.199   1.057  0.2616  1.8767 -1.3449
   49MOL   H29915755   4.035   6.974   1.104 -0.9865 -0.7961 -1.5960
   49MOL   H30015756   4.053   6.869   1.286 -0.1169  0.0868 -0.6146
   49MOL   H30115757   4.129   6.727   1.212  1.1671  0.3515 -0.5009
   49MOL   H30215758   4.176   6.786   1.361  1.5376  2.1857  0.0159
   49MOL   H30315759   4.442   6.810   1.253  1.7922  0.3064 -1.7456
   49MOL   H30415760   4.376   6.913   1.382 -1.3521  1.0225 -0.1573
   49MOL   H30515761   4.439   6.996   1.259  1.6299 -1.7892  0.6992
   49MOL   C30615762   4.062   6.927   0.906  0.1736  0.1276 -0.3538
   49MOL   C30715763   4.046   6.773   0.921 -0.0245  0.7748  0.6316
   49MOL   C30815764   3.924   6.726   1.000 -0.0796  0.3481  0.7219
   49MOL   O30915765   3.860   6.808   1.066 -0.0780 -0.0523 -0.0535
   49MOL   N31015766   3.875   6.601   0.976 -0.1837  0.0788  0.1371
   49MOL   C31115767   3.744   6.557   1.014  0.0843 -0.4608 -0.4531
   49MOL   C31215768   3.952   6.502   0.892 -0.0182  0.0637 -0.1467
   49MOL   H31315769   3.965   6.959   0.867  0.4825 -0.1094 -1.3149
   49MOL   H31415770   4.132   6.950   0.826 -0.2163  1.3730 -0.3511
   49MOL   H31515771   4.030   6.732   0.822 -0.2473 -2.9433  2.1181
   49MOL   H31615772   3.673   6.566   0.932 -0.9317  0.7200  0.5346
   49MOL   H31715773   3.733   6.453   1.044 -2.4641 -0.4954 -1.3658
   49MOL   H31815774   3.702   6.619   1.093  1.6144 -0.5304  0.4242
   49MOL   H31915775   3.913   6.400   0.901 -4.5098  1.6309 -0.4829
   49MOL   H32015776   4.054   6.502   0.930  0.5473  2.3920 -1.5892
   49MOL   H32115777   3.957   6.534   0.788 -2.4358  1.2735  0.0755
   49MOL   H32215778   4.130   6.726   0.971 -0.9343  1.5229  2.9593
   50MOL     C115779   4.546   1.280   5.461 -0.3848  0.6114  0.2285
   50MOL     C215780   4.622   1.297   5.329  0.2041  0.3864 -1.0229
   50MOL     C315781   4.509   1.331   5.224  0.1656 -0.3953 -0.0207
   50MOL     O415782   4.421   1.246   5.194 -0.1359  0.0731  0.0268
   50MOL     N515783   4.503   1.447   5.153 -0.4320  1.1659 -0.2541
   50MOL     C615784   4.395   1.481   5.058 -0.7946 -0.7309  0.0338
   50MOL     C715785   4.599   1.554   5.183  0.4743  0.7507 -0.1378
   50MOL     H815786   4.474   1.360   5.476 -1.4188 -0.3079  0.2252
   50MOL     H915787   4.618   1.281   5.543 -2.7791  0.2498  2.3703
   50MOL    H1015788   4.699   1.373   5.339 -0.9627  1.6374 -1.4139
   50MOL    H1115789   4.302   1.497   5.112 -1.0721 -0.9746 -0.3714
   50MOL    H1215790   4.417   1.564   4.991  0.9820 -1.5380 -0.4187
   50MOL    H1315791   4.375   1.395   4.993  0.7266 -1.1792  0.1288
   50MOL    H1415792   4.581   1.640   5.117 -0.8702  1.1229  0.7003
   50MOL    H1515793   4.700   1.525   5.157  0.6536  2.0508 -0.9537
   50MOL    H1615794   4.585   1.584   5.287  0.7527  0.9442 -0.1563
   50MOL    H1715795   4.496   1.184   5.450 -2.1916  1.5017  0.5643
   50MOL    C1815796   4.706   1.167   5.287 -0.1500  0.0373  0.2097
   50MOL    C1915797   4.802   1.109   5.391 -0.0311 -0.2340  0.0826
   50MOL    C2015798   4.941   1.080   5.328  0.6687 -0.1383 -0.0340
   50MOL    O2115799   4.965   0.962   5.302 -0.1587  0.2864  0.0648
   50MOL    N2215800   5.035   1.173   5.314  0.0449 -0.3999  0.1256
   50MOL    C2315801   4.999   1.314   5.342 -0.6763 -0.2905 -0.2012
   50MOL    C2415802   5.174   1.141   5.273  0.1947  0.5371 -1.1343
   50MOL    H2515803   4.641   1.087   5.249 -2.2765  2.4970 -1.4730
   50MOL    H2615804   4.765   1.184   5.197  1.4102 -1.5384  0.8989
   50MOL    H2715805   4.818   1.188   5.465 -0.0714  1.8970 -2.1104
   50MOL    H2815806   4.925   1.352   5.272  0.7219 -0.9096 -2.0546
   50MOL    H2915807   4.966   1.324   5.445 -0.5692  1.8522 -0.3618
   50MOL    H3015808   5.085   1.379   5.329  0.1439 -1.5466 -1.2195
   50MOL    H3115809   5.220   1.222   5.217  0.4453  1.9067  0.9910
   50MOL    H3215810   5.175   1.041   5.230 -1.1886  1.2844 -3.0052
   50MOL    H3315811   5.236   1.145   5.362  0.6778 -1.7361 -1.3353
   50MOL    C3415812   4.748   0.983   5.469 -0.0003  0.4774  0.4243
   50MOL    C3515813   4.821   0.943   5.601 -0.4682 -0.3451 -0.0996
   50MOL    C3615814   4.762   0.800   5.636 -0.3489 -0.0872 -0.2553
   50MOL    O3715815   4.644   0.799   5.650 -0.2749  0.4685  0.5431
   50MOL    N3815816   4.840   0.692   5.664 -0.2803  0.9769  0.3944
   50MOL    C3915817   4.804   0.574   5.737 -0.4313  0.5054  0.1918
   50MOL    C4015818   4.978   0.684   5.621  0.8893  0.4222  0.4432
   50MOL    H4115819   4.641   1.000   5.485 -0.0284  0.0664  0.6980
   50MOL    H4215820   4.742   0.898   5.402  0.1497  1.3192 -0.6676
   50MOL    H4315821   4.927   0.932   5.581 -0.3673  1.3377 -0.5299
   50MOL    H4415822   4.877   0.507   5.781  0.5273  2.1176  1.1126
   50MOL    H4515823   4.764   0.618   5.829  0.6454 -1.7775  1.8107
   50MOL    H4615824   4.741   0.516   5.669  0.0345 -1.8383  1.7127
   50MOL    H4715825   4.994   0.747   5.534  2.0640 -0.9682 -0.3700
   50MOL    H4815826   5.006   0.581   5.600 -0.5387 -0.1021  1.0411
   50MOL    H4915827   5.031   0.721   5.709  2.2922 -1.8881  0.6222
   50MOL    C5015828   4.795   1.058   5.710 -0.0217 -0.1101 -0.1010
   50MOL    C5115829   4.878   1.032   5.831 -0.1869 -0.5743  0.3270
   50MOL    C5215830   4.811   1.097   5.956 -0.3088 -0.6204  0.5402
   50MOL    O5315831   4.849   1.217   5.974  0.3392 -0.1226  0.1907
   50MOL    N5415832   4.721   1.038   6.033  0.4924 -0.1698  0.1573
   50MOL    C5515833   4.662   0.904   6.011  0.0639 -0.4012  0.1167
   50MOL    C5615834   4.685   1.102   6.162  0.6047  0.9622  0.8135
   50MOL    H5715835   4.811   1.159   5.672  0.3420 -0.0175  0.2961
   50MOL    H5815836   4.687   1.050   5.727 -0.3326  0.4493 -1.7561
   50MOL    H5915837   4.885   0.924   5.844 -3.2612 -1.0250 -1.2621
   50MOL    H6015838   4.723   0.834   5.955  1.3674  0.8951 -0.0982
   50MOL    H6115839   4.635   0.858   6.106  1.1805  1.3513  1.3179
   50MOL    H6215840   4.571   0.920   5.953  0.5685  0.8619 -0.3619
   50MOL    H6315841   4.633   1.197   6.151 -2.2205 -0.8067 -1.9763
   50MOL    H6415842   4.776   1.107   6.222  1.8868  1.4792 -1.1148
   50MOL    H6515843   4.615   1.049   6.227  2.1270  0.8184  2.3824
   50MOL    C6615844   5.024   1.083   5.810  0.0799  0.6290 -0.4389
   50MOL    C6715845   5.123   1.053   5.928  0.6220 -0.7673  0.2880
   50MOL    C6815846   5.245   1.146   5.914  0.4786 -0.9928 -1.0188
   50MOL    O6915847   5.314   1.127   5.816 -0.3563 -0.0262 -0.8592
   50MOL    N7015848   5.285   1.247   5.999 -0.3363  0.0614 -0.5093
   50MOL    C7115849   5.206   1.274   6.123 -0.2849  0.0040 -0.4311
   50MOL    C7215850   5.416   1.323   5.982 -0.8667  0.4305 -0.0722
   50MOL    H7315851   5.061   1.038   5.718 -1.5638 -0.1318 -0.7388
   50MOL    H7415852   5.014   1.192   5.810  0.5607  0.6848  0.4319
   50MOL    H7515853   5.075   1.082   6.021  0.8833 -1.2843  0.5890
   50MOL    H7615854   5.234   1.375   6.154  0.6331 -1.1001  2.4659
   50MOL    H7715855   5.099   1.270   6.099 -0.2145 -0.4889 -0.6749
   50MOL    H7815856   5.220   1.196   6.197 -2.0898 -0.3970 -0.4738
   50MOL    H7915857   5.461   1.328   5.884 -2.6118  0.1059 -0.9128
   50MOL    H8015858   5.493   1.283   6.047  0.3082 -0.1842 -1.8211
   50MOL    H8115859   5.407   1.428   6.011 -1.1781  0.9251 -1.8934
   50MOL    C8215860   5.174   0.899   5.931  0.1376  0.7551 -0.1648
   50MOL    C8315861   5.127   0.831   6.065  0.1955 -0.3200  0.4509
   50MOL    C8415862   5.193   0.899   6.188  0.3008  0.5652 -0.6751
   50MOL    O8515863   5.317   0.914   6.187 -0.6897  1.0293  0.4893
   50MOL    N8615864   5.120   0.925   6.302  0.6328  1.0490 -0.5485
   50MOL    C8715865   5.181   0.935   6.436  0.4701  0.3167  0.4954
   50MOL    C8815866   4.981   0.972   6.289 -1.1544  0.1135 -0.0231
   50MOL    H8915867   5.131   0.854   5.842  0.1619 -1.8364  1.0904
   50MOL    H9015868   5.282   0.901   5.914 -0.0044 -2.4316 -1.6993
   50MOL    H9115869   5.018   0.835   6.072  0.2898  3.1991  1.0498
   50MOL    H9215870   5.277   0.886   6.451 -1.2451 -2.7417  2.1428
   50MOL    H9315871   5.190   1.043   6.445 -0.7219  0.3794  1.1070
   50MOL    H9415872   5.108   0.912   6.514 -2.4301 -1.3115 -2.5538
   50MOL    H9515873   4.924   0.937   6.376 -0.3508  0.5010  0.6629
   50MOL    H9615874   4.921   0.965   6.198 -0.6842  0.1709 -0.3349
   50MOL    H9715875   4.977   1.078   6.315  1.6098  0.9468 -2.8058
   50MOL    C9815876   5.155   0.679   6.056  0.0292  0.7451 -0.7870
   50MOL    C9915877   5.052   0.588   6.129  0.2047  0.1591  0.2928
   50MOL   C10015878   5.065   0.585   6.279  0.0601 -0.6989  0.5067
   50MOL   O10115879   5.183   0.565   6.320 -0.0927  0.2377 -0.7996
   50MOL   N10215880   4.953   0.598   6.356 -0.3275 -0.0112  0.0347
   50MOL   C10315881   4.973   0.593   6.503 -0.0689 -0.0041 -0.5229
   50MOL   C10415882   4.823   0.618   6.299 -0.8885  0.3888 -0.2197
   50MOL   H10515883   5.160   0.659   5.949 -2.7152 -1.8572 -0.4836
   50MOL   H10615884   5.254   0.655   6.095 -0.6346 -1.2487 -0.3022
   50MOL   H10715885   4.954   0.614   6.088  1.0943 -0.5377 -2.4027
   50MOL   H10815886   5.036   0.505   6.521  0.2277 -0.3062 -2.8487
   50MOL   H10915887   5.018   0.686   6.536 -2.0331  0.5814  0.5713
   50MOL   H11015888   4.875   0.578   6.547  0.3902 -0.6150  0.3175
   50MOL   H11115889   4.796   0.711   6.251 -0.9802  0.6767  0.3853
   50MOL   H11215890   4.742   0.599   6.369 -0.8150 -2.0130 -0.7206
   50MOL   H11315891   4.801   0.550   6.216 -1.8096  2.5621 -1.7969
   50MOL   C11415892   5.072   0.450   6.069  0.0805  0.3120 -0.5246
   50MOL   C11515893   4.981   0.338   6.121  0.1348  0.0074  0.0553
   50MOL   C11615894   5.063   0.207   6.139 -0.2893  0.1607  0.3658
   50MOL   O11715895   5.112   0.157   6.036  0.1709 -0.2132  0.1572
   50MOL   N11815896   5.084   0.153   6.257  0.2673 -0.3932 -0.0127
   50MOL   C11915897   5.161   0.028   6.265  0.3298 -0.1857  0.8816
   50MOL   C12015898   5.071   0.219   6.390  0.7073 -0.2724 -0.0219
   50MOL   H12115899   5.052   0.465   5.963  1.5471 -1.1802 -1.0354
   50MOL   H12215900   5.176   0.418   6.072 -0.4994 -1.7117 -0.6298
   50MOL   H12315901   4.938   0.355   6.220  2.1591 -2.2246  1.3787
   50MOL   H12415902   5.107   7.814   6.199 -1.1517  0.9987  0.8605
   50MOL   H12515903   5.266   0.041   6.237  0.2545 -1.6127 -0.1355
   50MOL   H12615904   5.153   7.830   6.361  0.2777  1.7723  1.9623
   50MOL   H12715905   5.149   0.180   6.455  1.6786  0.4041 -0.7627
   50MOL   H12815906   4.974   0.195   6.434  0.9107 -0.6450  0.2278
   50MOL   H12915907   5.096   0.323   6.370  2.2909 -0.4924  0.7895
   50MOL   C13015908   4.857   0.316   6.024  0.2128 -0.2494 -0.5677
   50MOL   C13115909   4.732   0.234   6.072  0.2445  0.0139  0.7005
   50MOL   C13215910   4.650   0.316   6.175 -0.1820 -0.0791  0.4013
   50MOL   O13315911   4.676   0.299   6.294  0.1410 -0.7011  0.1625
   50MOL   N13415912   4.550   0.397   6.146 -0.3012  0.2005  0.0145
   50MOL   C13515913   4.506   0.411   6.006  0.0067  0.2997  0.1105
   50MOL   C13615914   4.492   0.494   6.240 -0.6481 -0.1601 -0.6178
   50MOL   H13715915   4.817   0.416   6.010 -1.4052 -0.6048  1.1571
   50MOL   H13815916   4.894   0.274   5.931 -1.4056  1.1442 -1.8663
   50MOL   H13915917   4.669   0.217   5.985  1.8154 -0.9708 -0.2592
   50MOL   H14015918   4.472   0.318   5.959  0.4981 -0.6006  1.4831
   50MOL   H14115919   4.425   0.483   5.997 -0.0556  0.5900  2.6359
   50MOL   H14215920   4.587   0.443   5.940 -0.1112  1.4513  0.5276
   50MOL   H14315921   4.537   0.593   6.233 -1.2484  0.1748  0.2716
   50MOL   H14415922   4.500   0.459   6.343 -0.2011 -1.4496 -1.0758
   50MOL   H14515923   4.388   0.507   6.209 -0.2008  1.2493 -1.5561
   50MOL   C14615924   4.767   0.098   6.132 -0.4359  0.5815  0.7572
   50MOL   C14715925   4.643   7.852   6.155 -0.0312 -0.0733 -0.2876
   50MOL   C14815926   4.580   0.013   6.301  0.5477 -0.1597 -0.0723
   50MOL   O14915927   4.652   0.014   6.395  0.5445  0.2927 -0.3670
   50MOL   N15015928   4.447   0.021   6.322 -0.0999 -0.3988 -0.3960
   50MOL   C15115929   4.360   0.003   6.213 -0.6596 -0.2048 -0.4822
   50MOL   C15215930   4.395   0.013   6.452  0.2910 -0.2978 -0.1465
   50MOL   H15315931   4.839   0.053   6.064 -0.6755 -0.9993  1.5314
   50MOL   H15415932   4.824   0.106   6.225 -2.2238 -0.6612  1.9706
   50MOL   H15515933   4.576   0.032   6.076 -1.5662  0.5681  1.2653
   50MOL   H15615934   4.362   7.753   6.178  1.4335  0.2384 -1.7881
   50MOL   H15715935   4.253   0.012   6.232 -0.7302 -2.2813  0.2280
   50MOL   H15815936   4.386   0.080   6.141 -3.0545  1.6411  0.5642
   50MOL   H15915937   4.309   7.800   6.460 -0.3889  0.4780 -0.9264
   50MOL   H16015938   4.366   0.117   6.469  2.7817 -0.0041  2.8147
   50MOL   H16115939   4.466   7.843   6.531 -0.0566  0.1116  0.2886
   50MOL   C16215940   4.689   7.702   6.122  0.0370  0.4811 -0.1621
   50MOL   C16315941   4.659   7.647   5.981 -0.4595 -0.0583 -0.0098
   50MOL   C16415942   4.744   7.717   5.875 -0.1607 -0.8588 -0.0949
   50MOL   O16515943   4.697   7.816   5.820  0.0513  0.4700 -0.3400
   50MOL   N16615944   4.874   7.673   5.855 -0.2739 -0.2662 -0.1019
   50MOL   C16715945   4.985   7.748   5.791  0.5377  0.0963  0.5032
   50MOL   C16815946   4.918   7.538   5.889 -0.0897 -1.1714  0.2396
   50MOL   H16915947   4.797   7.699   6.132  0.1563  1.3684 -1.0732
   50MOL   H17015948   4.656   7.628   6.194 -0.7679  0.9567 -0.0298
   50MOL   H17115949   4.683   7.540   5.982  0.9989  0.2536  0.4561
   50MOL   H17215950   5.088   7.731   5.823  1.6580  1.5540 -2.2053
   50MOL   H17315951   4.972   7.737   5.684  0.7699  0.9516  0.3877
   50MOL   H17415952   4.968   0.001   5.805  0.2958 -0.1339  2.1716
   50MOL   H17515953   4.920   7.509   5.995  1.1271 -0.3410  0.4505
   50MOL   H17615954   5.020   7.517   5.856  0.1069 -0.3219  0.3090
   50MOL   H17715955   4.857   7.459   5.844 -1.6323 -0.0746  0.3711
   50MOL   C17815956   4.512   7.659   5.947  0.2091  0.1717 -0.3415
   50MOL   C17915957   4.471   7.585   5.819 -0.1539  0.0012  0.1544
   50MOL   C18015958   4.401   7.676   5.715 -0.2705 -0.0490 -0.2939
   50MOL   O18115959   4.321   7.746   5.762  0.0768  0.0033  0.4281
   50MOL   N18215960   4.427   7.668   5.581  0.1471  0.1569 -0.0980
   50MOL   C18315961   4.367   7.760   5.488  0.8473 -0.2108  0.3314
   50MOL   C18415962   4.511   7.565   5.521  0.1478  0.1496 -0.7258
   50MOL   H18515963   4.473   7.610   6.036  2.5143 -1.5933 -0.2664
   50MOL   H18615964   4.482   7.764   5.942 -0.9740 -0.1785 -0.7865
   50MOL   H18715965   4.560   7.551   5.766  0.0193 -1.1153  1.1466
   50MOL   H18815966   4.354   0.006   5.530  2.5199 -0.6247  1.8364
   50MOL   H18915967   4.428   7.772   5.399 -1.8617  0.4483 -1.5292
   50MOL   H19015968   4.266   7.726   5.462  0.9308 -0.5624  0.4623
   50MOL   H19115969   4.610   7.609   5.539  0.1683 -0.4595  0.7397
   50MOL   H19215970   4.507   7.559   5.413  0.2835  3.3275 -0.9343
   50MOL   H19315971   4.487   7.467   5.565 -1.1767  0.1887 -1.3635
   50MOL   C19415972   4.387   7.457   5.844  0.0606  0.6076 -0.0786
   50MOL   C19515973   4.443   7.341   5.925 -0.3827  0.1003 -0.5005
   50MOL   C19615974   4.580   7.291   5.862  0.2647 -0.1330 -0.2481
   50MOL   O19715975   4.591   7.295   5.742 -0.3595 -0.1965  0.2912
   50MOL   N19815976   4.682   7.257   5.940  0.3487  0.3827 -0.1540
   50MOL   C19915977   4.688   7.280   6.088  0.1060  0.3077  0.3115
   50MOL   C20015978   4.797   7.174   5.897 -0.3986  0.6225 -0.4508
   50MOL   H20115979   4.292   7.488   5.888  0.8110  1.1247  1.2150
   50MOL   H20215980   4.357   7.419   5.747 -0.0828  1.0741 -0.2164
   50MOL   H20315981   4.455   7.390   6.022 -0.6054 -0.7887 -0.0193
   50MOL   H20415982   4.615   7.353   6.122 -2.5483 -2.1826  0.1173
   50MOL   H20515983   4.669   7.184   6.135 -0.6400 -0.0971 -0.7847
   50MOL   H20615984   4.786   7.312   6.123  0.8831 -0.5950 -1.0061
   50MOL   H20715985   4.884   7.220   5.944 -1.6606  1.7407  0.8384
   50MOL   H20815986   4.814   7.202   5.793 -0.2156  0.3590 -0.4948
   50MOL   H20915987   4.792   7.066   5.911 -1.9378  0.1534 -4.0749
   50MOL   C21015988   4.350   7.218   5.927 -0.1218 -0.1514 -0.0968
   50MOL   C21115989   4.358   7.114   6.043  0.2455  0.2458 -0.1698
   50MOL   C21215990   4.249   7.002   6.023 -0.4394 -0.7922  0.2044
   50MOL   O21315991   4.141   7.035   5.985 -0.0236 -0.2721 -0.7043
   50MOL   N21415992   4.276   6.871   6.052 -0.3757 -0.3588  0.3035
   50MOL   C21515993   4.403   6.815   6.103  0.5812 -0.4108  0.0819
   50MOL   C21615994   4.188   6.759   6.013 -0.6994  0.1234  0.2175
   50MOL   H21715995   4.246   7.250   5.929 -0.2485 -0.6769  2.9112
   50MOL   H21815996   4.361   7.170   5.829  2.1522 -0.3268  0.2264
   50MOL   H21915997   4.455   7.066   6.030  0.0326 -0.3039  0.2677
   50MOL   H22015998   4.444   6.772   6.011 -0.9286 -0.0681 -0.7787
   50MOL   H22115999   4.471   6.892   6.139  0.6578 -1.9059  3.2641
   50MOL   H22216000   4.388   6.732   6.172 -0.4726 -0.6902 -0.4649
   50MOL   H22316001   4.090   6.777   6.056 -0.9917  1.1938 -0.8608
   50MOL   H22416002   4.229   6.659   6.030 -1.4048 -0.2887 -0.4623
   50MOL   H22516003   4.184   6.758   5.904 -2.8534 -2.5339  0.2686
   50MOL   C22616004   4.351   7.173   6.184 -0.2503  0.3785  0.3000
   50MOL   C22716005   4.218   7.244   6.237 -0.5522  0.1560  0.3554
   50MOL   C22816006   4.219   7.393   6.204  0.0287  0.7960 -0.2867
   50MOL   O22916007   4.316   7.457   6.239 -0.4896 -0.1301 -0.4700
   50MOL   N23016008   4.118   7.453   6.139  0.8258 -0.0875  0.2736
   50MOL   C23116009   4.126   7.599   6.099  0.0663  0.1260 -0.1264
   50MOL   C23216010   3.994   7.397   6.103 -0.0237 -0.0955 -0.5400
   50MOL   H23316011   4.391   7.091   6.243 -3.2616 -1.7492 -0.5328
   50MOL   H23416012   4.432   7.246   6.180 -0.5282  0.5719 -4.3038
   50MOL   H23516013   4.127   7.207   6.191 -1.0151 -0.5948  1.8886
   50MOL   H23616014   4.190   7.644   6.175  0.1644 -1.2787  0.6558
   50MOL   H23716015   4.172   7.631   6.006 -0.3748 -0.2798 -0.4853
   50MOL   H23816016   4.030   7.647   6.115  0.6464  1.6122 -0.9912
   50MOL   H23916017   3.910   7.467   6.095  0.2532  0.0176 -2.8962
   50MOL   H24016018   3.962   7.325   6.178 -0.6843 -1.0284 -1.6991
   50MOL   H24116019   4.013   7.347   6.008 -0.5113 -0.0908 -0.6418
   50MOL   C24216020   4.206   7.241   6.393 -0.7837  0.3547  0.3373
   50MOL   C24316021   4.110   7.131   6.443 -0.1523 -0.2794 -0.7910
   50MOL   C24416022   3.959   7.162   6.407  0.9139 -0.8115  0.3254
   50MOL   O24516023   3.904   7.261   6.466 -0.5461 -0.0219 -0.2405
   50MOL   N24616024   3.893   7.093   6.311  0.3510  1.1110  0.4688
   50MOL   C24716025   3.755   7.131   6.271  0.3646 -0.7264 -0.3510
   50MOL   C24816026   3.934   6.965   6.257  0.0544 -0.3376  0.2178
   50MOL   H24916027   4.306   7.230   6.434 -0.4101  0.4952 -0.5430
   50MOL   H25016028   4.157   7.330   6.432  0.4631  1.1289  0.1640
   50MOL   H25116029   4.143   7.036   6.401 -1.5618 -1.4163  0.5877
   50MOL   H25216030   3.719   7.090   6.177  0.7778 -2.1196  0.0869
   50MOL   H25316031   3.686   7.119   6.354  0.4407 -2.5519 -0.5184
   50MOL   H25416032   3.772   7.234   6.241 -1.5986 -0.9162 -2.2279
   50MOL   H25516033   3.994   6.906   6.326  0.2535  0.6989  0.9455
   50MOL   H25616034   3.998   6.986   6.171  0.4919 -0.9030  0.3983
   50MOL   H25716035   3.848   6.901   6.236 -0.4264  0.7876 -1.3498
   50MOL   C25816036   4.127   7.110   6.593 -0.7937  0.2750 -0.1303
   50MOL   C25916037   4.216   7.002   6.656 -0.3019  0.1860  0.7822
   50MOL   C26016038   4.199   6.870   6.582  0.7303 -0.2551 -0.3683
   50MOL   O26116039   4.086   6.823   6.578  0.6245  0.0197 -0.2061
   50MOL   N26216040   4.293   6.816   6.508  0.1589 -0.2925 -0.1402
   50MOL   C26316041   4.422   6.875   6.493  0.1078  0.3815 -0.2489
   50MOL   C26416042   4.260   6.704   6.419  0.2089 -0.0895 -0.8155
   50MOL   H26516043   4.148   7.205   6.642  0.9695  0.3114 -0.9063
   50MOL   H26616044   4.029   7.084   6.633 -0.5982  0.7165  0.6506
   50MOL   H26716045   4.319   7.038   6.648 -0.1474 -0.6792 -1.5042
   50MOL   H26816046   4.492   6.807   6.445  0.2388  1.1380 -1.1409
   50MOL   H26916047   4.439   6.973   6.448  1.3465  0.4118  0.2830
   50MOL   H27016048   4.466   6.863   6.592  0.6063  1.5758 -0.3249
   50MOL   H27116049   4.346   6.646   6.387  0.0608  0.1746 -1.6836
   50MOL   H27216050   4.201   6.732   6.332 -0.0277  0.5021 -0.4680
   50MOL   H27316051   4.202   6.630   6.475  0.2049  1.0315  0.7222
   50MOL   C27416052   4.183   6.978   6.806 -0.5447  0.3058 -0.3517
   50MOL   C27516053   4.266   6.875   6.878 -0.0471  0.0788 -0.4503
   50MOL   C27616054   4.202   6.851   7.012  0.5503 -0.2444  0.1040
   50MOL   O27716055   4.217   6.930   7.098  0.1428  0.1075 -0.3340
   50MOL   N27816056   4.143   6.730   7.032  0.3999  0.0530  0.2916
   50MOL   C27916057   4.100   6.693   7.169  0.4850 -0.2313  0.4847
   50MOL   C28016058   4.107   6.628   6.925  0.4467 -0.2881 -0.2226
   50MOL   H28116059   4.192   7.072   6.859 -0.9036  0.0243  0.2139
   50MOL   H28216060   4.075   6.963   6.819 -0.7688  2.1324  0.0564
   50MOL   H28316061   4.272   6.784   6.818  0.0308  1.2433 -2.2433
   50MOL   H28416062   4.022   6.619   7.182 -0.5416  0.7733  0.1700
   50MOL   H28516063   4.193   6.666   7.219 -1.5688 -1.9521  3.5081
   50MOL   H28616064   4.059   6.777   7.225  0.2456 -0.1048  0.1223
   50MOL   H28716065   4.036   6.676   6.857  0.6312 -0.5880 -0.6292
   50MOL   H28816066   4.056   6.544   6.972 -2.3188  1.9254  0.8996
   50MOL   H28916067   4.191   6.587   6.869  0.2690  1.3699 -1.7454
   50MOL   C29016068   4.411   6.925   6.898 -0.0397  1.0295  0.1275
   50MOL   C29116069   4.501   6.802   6.934  0.4614  0.2759  0.2766
   50MOL   C29216070   4.635   6.864   6.985  0.2364  0.0508 -0.1143
   50MOL   O29316071   4.698   6.939   6.914  0.0165 -0.5219 -0.2662
   50MOL   N29416072   4.684   6.828   7.104 -0.1998  0.2674 -0.0788
   50MOL   C29516073   4.813   6.886   7.154 -0.2550 -0.1833 -0.1595
   50MOL   C29616074   4.623   6.725   7.191  0.0476 -0.8644  0.2779
   50MOL   H29716075   4.450   6.954   6.800  0.6333 -0.1052  0.0520
   50MOL   H29816076   4.408   7.008   6.969 -0.6103 -0.8024  2.2707
   50MOL   H29916077   4.448   6.738   7.005 -0.5844 -0.6446 -1.3096
   50MOL   H30016078   4.833   6.981   7.105  0.6737  0.1480  0.8429
   50MOL   H30116079   4.813   6.901   7.262 -2.5178  1.5555 -0.3484
   50MOL   H30216080   4.901   6.829   7.128 -0.3220  0.2875 -1.4708
   50MOL   H30316081   4.515   6.736   7.208  0.1496 -1.0789  1.1118
   50MOL   H30416082   4.657   6.741   7.293 -1.2040 -0.7041  0.6870
   50MOL   H30516083   4.654   6.625   7.161  1.9989 -0.3132  0.4196
   50MOL   C30616084   4.535   6.716   6.812 -0.4612  0.6786  0.3222
   50MOL   C30716085   4.592   6.573   6.851 -0.5975  0.8184  0.3844
   50MOL   C30816086   4.471   6.480   6.900  0.5222 -0.7669  0.8265
   50MOL   O30916087   4.422   6.494   7.015  0.3805  0.4494 -0.1766
   50MOL   N31016088   4.421   6.382   6.823  0.0667  0.3222  0.7386
   50MOL   C31116089   4.321   6.293   6.873 -0.9718 -0.7796  0.0962
   50MOL   C31216090   4.438   6.381   6.677  0.0476  0.2889  0.5651
   50MOL   H31316091   4.446   6.700   6.750 -1.4532 -0.1653  1.9231
   50MOL   H31416092   4.591   6.772   6.737  2.3230 -2.4093 -0.0214
   50MOL   H31516093   4.637   6.515   6.771 -0.6092 -0.8481  1.5733
   50MOL   H31616094   4.224   6.342   6.875 -0.4642  0.2193  0.7355
   50MOL   H31716095   4.315   6.195   6.824 -0.7924 -0.7312 -0.0209
   50MOL   H31816096   4.337   6.267   6.978 -0.6349 -0.8250  0.0331
   50MOL   H31916097   4.526   6.320   6.657  0.6064  1.1880  0.2517
   50MOL   H32016098   4.444   6.480   6.632 -2.2475 -0.7128 -2.0887
   50MOL   H32116099   4.348   6.339   6.632  0.0689  0.8618 -0.0270
   50MOL   H32216100   4.673   6.574   6.924 -0.5659  2.0556  0.3435
   51MOL     C116101   3.991   1.724   2.995 -0.1798  0.1301  0.2269
   51MOL     C216102   3.969   1.583   2.945 -0.4823 -0.2560  0.5605
   51MOL     C316103   4.030   1.569   2.799 -0.0022 -0.5421  1.1355
   51MOL     O416104   3.982   1.629   2.708 -0.4503 -0.1037 -0.3250
   51MOL     N516105   4.139   1.490   2.774  0.1308  0.0412  0.2172
   51MOL     C616106   4.205   1.507   2.641 -0.0894 -0.6953  0.3692
   51MOL     C716107   4.202   1.400   2.878  0.2400  0.1236 -1.0826
   51MOL     H816108   3.954   1.798   2.923  1.4072 -0.2782 -1.0292
   51MOL     H916109   4.098   1.744   2.998 -0.3324  1.5876 -2.5524
   51MOL    H1016110   4.027   1.519   3.010 -0.3515  0.9268  1.6269
   51MOL    H1116111   4.202   1.614   2.619 -0.6954 -0.1423  3.0205
   51MOL    H1216112   4.302   1.458   2.642  0.6791  0.8066  0.2733
   51MOL    H1316113   4.162   1.448   2.560 -1.1709  0.4821  0.0737
   51MOL    H1416114   4.126   1.334   2.920 -0.6519  1.6141 -0.2770
   51MOL    H1516115   4.247   1.461   2.957 -1.6413  0.8810 -0.5585
   51MOL    H1616116   4.274   1.332   2.832 -0.1939  0.0507 -1.6543
   51MOL    H1716117   3.954   1.741   3.096 -1.5332  0.2923 -0.2826
   51MOL    C1816118   3.835   1.531   2.956  0.5033  0.5055 -1.1618
   51MOL    C1916119   3.721   1.614   2.893  0.2667 -0.1655  0.5906
   51MOL    C2016120   3.668   1.721   2.995  0.3601  0.4156 -1.2801
   51MOL    O2116121   3.668   1.692   3.114 -0.1970 -0.3610  0.5109
   51MOL    N2216122   3.629   1.844   2.958  0.3530  0.3776  0.0318
   51MOL    C2316123   3.617   1.948   3.056 -0.6604 -0.0096 -0.2891
   51MOL    C2416124   3.611   1.884   2.817 -0.7297 -0.5848  0.8474
   51MOL    H2516125   3.839   1.427   2.922  1.3964  0.6659 -1.5550
   51MOL    H2616126   3.809   1.518   3.061 -0.3225  1.4300 -1.2390
   51MOL    H2716127   3.766   1.670   2.811  0.5787  0.9222  1.4945
   51MOL    H2816128   3.596   1.905   3.154 -0.7203  1.1725  0.2241
   51MOL    H2916129   3.696   2.022   3.064 -0.5497 -0.2494  0.9401
   51MOL    H3016130   3.535   2.015   3.033 -1.0655 -0.1295  0.7903
   51MOL    H3116131   3.612   1.992   2.807  0.9679 -0.7136 -0.4533
   51MOL    H3216132   3.515   1.853   2.777 -0.9684  1.9067 -0.5510
   51MOL    H3316133   3.692   1.858   2.749  0.0915  0.6932  1.3132
   51MOL    C3416134   3.596   1.534   2.844  1.0620  0.2848 -0.0510
   51MOL    C3516135   3.508   1.462   2.954  0.0870 -0.6689 -0.2004
   51MOL    C3616136   3.573   1.325   3.005 -0.1164 -0.0153  0.2682
   51MOL    O3716137   3.608   1.248   2.917 -0.4944  0.1755  0.2693
   51MOL    N3816138   3.592   1.304   3.130  0.5131  0.1029  0.1206
   51MOL    C3916139   3.574   1.397   3.241 -0.1762 -0.2875 -0.1843
   51MOL    C4016140   3.623   1.168   3.166 -0.4261  0.8970  0.4831
   51MOL    H4116141   3.527   1.602   2.796 -1.1592 -2.6459 -1.1747
   51MOL    H4216142   3.630   1.466   2.765  0.0079 -0.6269  0.2714
   51MOL    H4316143   3.493   1.522   3.043 -0.6958 -1.0978 -0.0323
   51MOL    H4416144   3.472   1.426   3.268 -0.1618 -2.2348  2.1829
   51MOL    H4516145   3.622   1.348   3.326 -1.0902 -2.7022 -1.0264
   51MOL    H4616146   3.628   1.490   3.221 -1.4789  0.4470 -0.3564
   51MOL    H4716147   3.537   1.103   3.152  0.1938 -0.1514  1.4743
   51MOL    H4816148   3.656   1.143   3.267  1.7509 -1.8948 -0.8889
   51MOL    H4916149   3.711   1.126   3.118 -1.3683  0.4517 -0.8554
   51MOL    C5016150   3.370   1.426   2.889 -0.2140  0.2070  0.4494
   51MOL    C5116151   3.262   1.370   2.990 -0.0608 -0.4967  0.2291
   51MOL    C5216152   3.213   1.229   2.970  0.2340  0.2327  0.2779
   51MOL    O5316153   3.161   1.199   2.868  0.1425 -0.3453  0.5402
   51MOL    N5416154   3.224   1.140   3.075  0.2455  0.2785 -0.6378
   51MOL    C5516155   3.208   1.000   3.040  0.3052  0.2054  0.0728
   51MOL    C5616156   3.199   1.166   3.217 -0.2422  0.1057 -0.6227
   51MOL    H5716157   3.343   1.514   2.830  0.0830 -0.5585 -0.8503
   51MOL    H5816158   3.395   1.359   2.807  0.6025 -0.8182  1.5208
   51MOL    H5916159   3.316   1.369   3.084  1.1663  0.2704 -0.4562
   51MOL    H6016160   3.300   0.968   2.993  0.0423 -0.0939 -0.2440
   51MOL    H6116161   3.193   0.943   3.132  0.4499  0.2763  0.1397
   51MOL    H6216162   3.138   0.977   2.959  0.2208  1.1473 -0.1317
   51MOL    H6316163   3.165   1.268   3.232  0.6814  0.8256 -3.1343
   51MOL    H6416164   3.297   1.157   3.266 -0.2064  0.3266 -0.6544
   51MOL    H6516165   3.140   1.098   3.279  0.6512 -0.1068  0.0095
   51MOL    C6616166   3.146   1.474   2.982 -0.1328  0.9121 -0.8478
   51MOL    C6716167   3.174   1.611   3.045  0.0804  0.3045  0.5490
   51MOL    C6816168   3.182   1.599   3.199  0.1495 -1.0732 -0.2612
   51MOL    O6916169   3.092   1.535   3.260  0.0083 -0.0258  0.3534
   51MOL    N7016170   3.280   1.664   3.274  0.0923 -0.1879  0.1145
   51MOL    C7116171   3.364   1.771   3.225  0.8355  0.3634 -1.3236
   51MOL    C7216172   3.307   1.620   3.410  0.5613 -0.2205 -0.5400
   51MOL    H7316173   3.122   1.483   2.876  0.3487 -0.6692 -1.0993
   51MOL    H7416174   3.056   1.439   3.031  0.4868  0.0939 -0.2991
   51MOL    H7516175   3.271   1.644   3.007 -0.7995  0.9057 -1.2477
   51MOL    H7616176   3.320   1.870   3.232  1.7905  0.5661  2.7600
   51MOL    H7716177   3.456   1.779   3.284  0.1425 -1.2076  0.0207
   51MOL    H7816178   3.395   1.755   3.121 -1.9833 -1.6332 -1.8992
   51MOL    H7916179   3.275   1.681   3.494  0.1221 -0.8192 -0.2659
   51MOL    H8016180   3.416   1.611   3.415  0.9132  2.8303 -1.9307
   51MOL    H8116181   3.259   1.524   3.432  0.2619  0.0342 -0.0742
   51MOL    C8216182   3.063   1.710   3.003  0.1871  0.1213 -1.0564
   51MOL    C8316183   3.106   1.798   2.880  0.5036 -0.2074 -0.2022
   51MOL    C8416184   3.166   1.728   2.757 -0.0824 -0.5927  0.0897
   51MOL    O8516185   3.287   1.741   2.738  0.0438  0.1183  0.4306
   51MOL    N8616186   3.087   1.664   2.667 -0.3313  0.1571 -0.0975
   51MOL    C8716187   3.150   1.614   2.546  0.6685 -0.0581  0.2405
   51MOL    C8816188   2.947   1.633   2.685 -0.0575  0.3213 -0.4039
   51MOL    H8916189   2.975   1.654   2.975 -0.6565  1.0336 -0.2813
   51MOL    H9016190   3.023   1.774   3.081  4.4608  1.2442  0.3793
   51MOL    H9116191   3.016   1.850   2.846  0.3255 -0.1297  0.3754
   51MOL    H9216192   3.124   1.508   2.534 -3.1967  1.0100 -1.5668
   51MOL    H9316193   3.109   1.661   2.457 -0.9293  0.4099  1.1937
   51MOL    H9416194   3.257   1.619   2.527  0.5638  0.2853 -0.2573
   51MOL    H9516195   2.895   1.643   2.590 -2.0877  1.2859  0.7662
   51MOL    H9616196   2.901   1.698   2.760  4.3983 -0.3945  3.1466
   51MOL    H9716197   2.943   1.528   2.713  0.9411  0.7394  1.3535
   51MOL    C9816198   3.196   1.914   2.931  0.8238 -0.4569 -0.0485
   51MOL    C9916199   3.204   2.043   2.837 -0.0109  0.3184 -0.1781
   51MOL   C10016200   3.306   2.139   2.896  1.5083  0.5210 -0.1289
   51MOL   O10116201   3.292   2.166   3.014  0.0739 -0.4610 -0.0080
   51MOL   N10216202   3.396   2.204   2.813 -0.0643  1.0629  0.2695
   51MOL   C10316203   3.480   2.311   2.881  0.4396  0.1253 -0.3821
   51MOL   C10416204   3.408   2.176   2.672 -0.2792  0.6496  0.3821
   51MOL   H10516205   3.153   1.947   3.026 -0.1218 -1.9885  0.0712
   51MOL   H10616206   3.291   1.878   2.970  0.5548 -0.3182  0.7436
   51MOL   H10716207   3.221   2.007   2.735 -0.0385  0.0632 -0.0922
   51MOL   H10816208   3.544   2.367   2.812 -0.4640  2.0966  0.3490
   51MOL   H10916209   3.410   2.385   2.919 -0.6641 -2.8330  3.7023
   51MOL   H11016210   3.537   2.268   2.963  0.8164  1.7486  0.2238
   51MOL   H11116211   3.472   2.248   2.620 -0.7465  0.8104  0.0157
   51MOL   H11216212   3.308   2.179   2.628  0.2291  1.3997 -0.7365
   51MOL   H11316213   3.449   2.077   2.654 -1.6998  0.4242 -1.8165
   51MOL   C11416214   3.065   2.116   2.832 -0.2748 -0.1602 -0.5855
   51MOL   C11516215   2.967   2.098   2.710 -0.5417  0.0161  0.2323
   51MOL   C11616216   3.017   2.196   2.599 -0.7843  0.6168  0.3129
   51MOL   O11716217   3.070   2.307   2.632 -0.6559  0.3546  0.1232
   51MOL   N11816218   3.011   2.153   2.474  0.4399 -0.2820 -0.7208
   51MOL   C11916219   3.089   2.224   2.373  0.4864 -0.3552 -0.7358
   51MOL   C12016220   2.926   2.045   2.427 -0.1696 -0.5968  0.2451
   51MOL   H12116221   3.006   2.075   2.915 -0.5386  0.3032 -0.5424
   51MOL   H12216222   3.076   2.220   2.863  2.3073 -0.4804 -0.2775
   51MOL   H12316223   2.943   1.994   2.687  0.2552  0.0168 -0.5911
   51MOL   H12416224   3.085   2.189   2.269 -0.8460 -0.2873 -0.7167
   51MOL   H12516225   3.049   2.324   2.356  0.9021  0.0505  0.6087
   51MOL   H12616226   3.195   2.237   2.396  0.7407 -1.0127 -1.4843
   51MOL   H12716227   2.828   2.079   2.460  0.5844  1.9339 -0.0092
   51MOL   H12816228   2.950   1.946   2.468  0.9651 -0.2217  0.5152
   51MOL   H12916229   2.916   2.039   2.319  1.6660 -1.2087  0.0915
   51MOL   C13016230   2.826   2.149   2.746 -0.3758 -0.2318 -0.8449
   51MOL   C13116231   2.745   2.052   2.839  0.1300  0.1578  0.0608
   51MOL   C13216232   2.669   1.941   2.760 -0.3352 -0.6394  0.1959
   51MOL   O13316233   2.638   1.967   2.640  0.0849  0.0243 -0.4825
   51MOL   N13416234   2.670   1.819   2.811  0.2905 -0.7258  0.3175
   51MOL   C13516235   2.685   1.778   2.946  0.2301 -0.3434  0.0537
   51MOL   C13616236   2.616   1.713   2.725 -0.2025 -0.2499 -1.1719
   51MOL   H13716237   2.829   2.251   2.784 -3.3917 -0.0147 -1.1170
   51MOL   H13816238   2.780   2.157   2.648 -0.2302  1.1037 -0.8203
   51MOL   H13916239   2.817   1.998   2.901  2.0260  3.4101  0.8440
   51MOL   H14016240   2.590   1.735   2.978  0.7411 -1.6878 -0.2245
   51MOL   H14116241   2.768   1.708   2.950 -0.0533 -0.5937  2.7544
   51MOL   H14216242   2.704   1.862   3.014  3.4212  1.7649 -3.2439
   51MOL   H14316243   2.649   1.620   2.771 -0.6837  0.1158 -0.0732
   51MOL   H14416244   2.653   1.716   2.622  3.8688 -1.2753  0.1646
   51MOL   H14516245   2.508   1.726   2.722 -0.2467 -0.6141 -1.1745
   51MOL   C14616246   2.632   2.125   2.916  0.1141 -0.3005 -0.2583
   51MOL   C14716247   2.676   2.238   3.019 -0.5037 -1.1508  0.4185
   51MOL   C14816248   2.750   2.184   3.146  0.1882 -0.5139  0.3317
   51MOL   O14916249   2.714   2.076   3.186 -0.3564 -0.0931  0.5033
   51MOL   N15016250   2.858   2.249   3.200  0.3787  0.3268  0.1172
   51MOL   C15116251   2.922   2.358   3.134 -0.2839 -0.2901  0.6446
   51MOL   C15216252   2.948   2.186   3.293  0.2720  0.1796  0.5728
   51MOL   H15316253   2.561   2.161   2.841  0.3902 -0.0735 -0.4150
   51MOL   H15416254   2.574   2.053   2.974  2.2023  0.4428  2.8661
   51MOL   H15516255   2.732   2.322   2.978 -0.9350  0.4729  3.0840
   51MOL   H15616256   2.859   2.446   3.123  2.0028  1.4194  0.6942
   51MOL   H15716257   3.011   2.394   3.186  0.4020  0.3732 -0.9737
   51MOL   H15816258   2.955   2.318   3.038  0.3737  2.4011 -0.2968
   51MOL   H15916259   3.050   2.182   3.256  0.5501  1.9437  1.1387
   51MOL   H16016260   2.934   2.078   3.305 -2.5300  0.3849 -0.2736
   51MOL   H16116261   2.942   2.233   3.391  0.3279  0.5172  0.4121
   51MOL   C16216262   2.542   2.312   3.070 -0.3110  0.0315  0.0650
   51MOL   C16316263   2.463   2.392   2.962  0.0313 -0.2795 -0.0643
   51MOL   C16416264   2.557   2.499   2.906  0.6092 -1.6436  0.4691
   51MOL   O16516265   2.596   2.591   2.984 -0.0268  0.3779  0.5465
   51MOL   N16616266   2.613   2.475   2.782 -0.3494 -0.4161 -1.0183
   51MOL   C16716267   2.553   2.398   2.679  0.0156  0.1030 -0.6483
   51MOL   C16816268   2.742   2.536   2.740  0.2547 -0.4811  0.2485
   51MOL   H16916269   2.470   2.245   3.116  1.8693 -1.4281  1.4339
   51MOL   H17016270   2.568   2.390   3.142  0.3095 -0.6825  0.6323
   51MOL   H17116271   2.432   2.328   2.879 -1.3220  1.0389 -0.6157
   51MOL   H17216272   2.588   2.295   2.689  1.9722  0.8697  0.7421
   51MOL   H17316273   2.445   2.386   2.675  0.0408 -0.8490  1.0493
   51MOL   H17416274   2.596   2.415   2.580  0.0669 -0.0192 -0.6471
   51MOL   H17516275   2.822   2.523   2.812 -0.1216 -0.5100  0.6624
   51MOL   H17616276   2.736   2.643   2.718  0.2025 -0.1892  1.6578
   51MOL   H17716277   2.787   2.498   2.648  2.1169 -1.4618  1.5523
   51MOL   C17816278   2.327   2.449   3.010  0.3302  0.0976  0.3277
   51MOL   C17916279   2.219   2.337   3.051 -0.2799  0.0783  0.0861
   51MOL   C18016280   2.187   2.245   2.932  0.3191 -0.7212  0.5009
   51MOL   O18116281   2.128   2.302   2.838  0.4851  0.2948  0.2162
   51MOL   N18216282   2.215   2.115   2.937  0.4218  0.4975  0.2615
   51MOL   C18316283   2.259   2.037   3.053 -0.0513 -0.2214  0.2186
   51MOL   C18416284   2.180   2.034   2.820  0.8733  0.0558 -0.5647
   51MOL   H18516285   2.353   2.521   3.088  0.2442 -0.3474  0.7699
   51MOL   H18616286   2.279   2.516   2.939 -2.6535  0.4478  2.5263
   51MOL   H18716287   2.262   2.275   3.130  0.1791 -0.0433 -0.2557
   51MOL   H18816288   2.275   1.933   3.027  1.1545 -0.3521  1.4067
   51MOL   H18916289   2.350   2.071   3.103  0.0118 -1.3949  0.9121
   51MOL   H19016290   2.178   2.047   3.126 -0.6181  2.2125 -0.6971
   51MOL   H19116291   2.085   1.987   2.846  1.6420 -0.6147  1.1591
   51MOL   H19216292   2.243   1.953   2.785  0.1286 -0.2203 -1.2857
   51MOL   H19316293   2.171   2.098   2.732  0.8449  0.0050 -0.5985
   51MOL   C19416294   2.102   2.397   3.130  0.2316 -0.5793  0.4099
   51MOL   C19516295   1.981   2.451   3.059 -0.0459 -0.1240  0.3022
   51MOL   C19616296   2.005   2.581   2.974 -0.0521 -0.1668 -0.3499
   51MOL   O19716297   2.071   2.671   3.029 -0.0777 -0.5319 -0.1712
   51MOL   N19816298   1.946   2.596   2.855  0.1710  0.1713  0.0001
   51MOL   C19916299   1.982   2.709   2.764 -0.0531  0.5990 -0.2091
   51MOL   C20016300   1.841   2.510   2.805 -0.8132  0.3974 -0.1534
   51MOL   H20116301   2.071   2.325   3.206  2.4260 -0.2279  1.6688
   51MOL   H20216302   2.142   2.484   3.182  1.4427 -0.9852  0.1730
   51MOL   H20316303   1.948   2.365   3.000 -1.7501  1.5644 -1.3028
   51MOL   H20416304   2.016   2.800   2.813 -1.4794  1.8432 -1.4492
   51MOL   H20516305   2.054   2.676   2.689  0.7725  0.4083  0.6551
   51MOL   H20616306   1.887   2.735   2.716  0.7690  0.0934 -2.1570
   51MOL   H20716307   1.878   2.409   2.795 -0.7318  0.1821  2.0334
   51MOL   H20816308   1.803   2.539   2.707 -2.1123 -0.6117  0.0308
   51MOL   H20916309   1.757   2.517   2.875 -2.0038  1.9946 -1.6716
   51MOL   C21016310   1.864   2.478   3.154  0.5158  0.0180 -0.2471
   51MOL   C21116311   1.782   2.353   3.202  0.2269 -0.5187  0.2491
   51MOL   C21216312   1.693   2.287   3.095 -0.4583 -0.1033  0.3721
   51MOL   O21316313   1.589   2.345   3.070 -0.5756 -0.1350  0.2300
   51MOL   N21416314   1.737   2.183   3.027  0.3824 -0.6170 -0.9664
   51MOL   C21516315   1.686   2.160   2.889  0.4749  0.3081 -0.8177
   51MOL   C21616316   1.850   2.102   3.071  0.5731  0.0330 -0.7839
   51MOL   H21716317   1.900   2.540   3.236  0.1074  1.0145 -0.8231
   51MOL   H21816318   1.787   2.544   3.116  0.1154  1.6100  3.1762
   51MOL   H21916319   1.855   2.281   3.239 -0.6914 -2.6809 -1.9812
   51MOL   H22016320   1.711   2.240   2.820 -1.4379  1.5963 -0.0667
   51MOL   H22116321   1.716   2.065   2.845  1.4499  0.7181 -1.0493
   51MOL   H22216322   1.577   2.156   2.885  0.3955  1.4303 -0.0310
   51MOL   H22316323   1.846   2.013   3.008  0.9475  1.6743 -3.1776
   51MOL   H22416324   1.849   2.060   3.172  1.3653  0.0855 -0.7496
   51MOL   H22516325   1.936   2.166   3.055 -0.0108  0.6351 -1.5498
   51MOL   C22616326   1.686   2.405   3.317  0.1295  0.7542 -0.7557
   51MOL   C22716327   1.761   2.423   3.449  0.2241  0.8076 -0.3872
   51MOL   C22816328   1.748   2.299   3.543  0.2595 -0.2092 -1.0395
   51MOL   O22916329   1.638   2.267   3.585  0.3002  0.3428  0.5263
   51MOL   N23016330   1.852   2.220   3.579 -0.2702  0.1964  0.0213
   51MOL   C23116331   1.982   2.222   3.506 -0.2226 -0.3753  0.1847
   51MOL   C23216332   1.840   2.112   3.681  0.3266 -0.5502  0.0369
   51MOL   H23316333   1.627   2.488   3.279  2.1101  2.3929 -0.2749
   51MOL   H23416334   1.605   2.333   3.332  0.2028  1.0349  1.1644
   51MOL   H23516335   1.865   2.442   3.420  1.0812 -2.8878 -0.0118
   51MOL   H23616336   1.970   2.166   3.414  0.6573 -0.6361  0.2182
   51MOL   H23716337   2.018   2.321   3.480 -1.8624  0.1463 -0.1251
   51MOL   H23816338   2.057   2.175   3.570  1.0789  0.0859 -0.9834
   51MOL   H23916339   1.762   2.122   3.757  0.2851  0.5349 -0.1458
   51MOL   H24016340   1.932   2.116   3.739  1.4289  0.0477 -1.7004
   51MOL   H24116341   1.839   2.009   3.644  2.0852 -0.4755 -0.2419
   51MOL   C24216342   1.704   2.552   3.519  0.4544 -0.0952 -0.3500
   51MOL   C24316343   1.737   2.691   3.456  0.1042 -0.0714 -0.2501
   51MOL   C24416344   1.888   2.726   3.468  0.2269  0.1609 -0.3752
   51MOL   O24516345   1.950   2.668   3.557  0.0325  0.1722  0.0179
   51MOL   N24616346   1.949   2.815   3.380 -0.0983  0.0593  1.3273
   51MOL   C24716347   1.875   2.899   3.287  0.7780 -0.1251  0.0350
   51MOL   C24816348   2.089   2.856   3.400 -0.6638 -0.5312 -0.5544
   51MOL   H24916349   1.599   2.545   3.546  0.9865 -1.2567  1.4700
   51MOL   H25016350   1.751   2.561   3.617  0.7149 -1.5091 -0.3416
   51MOL   H25116351   1.721   2.676   3.349  2.4368  1.2932 -0.8093
   51MOL   H25216352   1.940   2.965   3.230 -1.1196  0.2036 -1.7998
   51MOL   H25316353   1.819   2.839   3.214  0.0416 -3.7116  3.3428
   51MOL   H25416354   1.814   2.975   3.337 -1.6241 -0.7062 -1.8964
   51MOL   H25516355   2.137   2.796   3.477  0.4421  0.7488 -0.2411
   51MOL   H25616356   2.091   2.953   3.449 -0.0453 -0.6334 -0.3732
   51MOL   H25716357   2.152   2.856   3.311 -0.4353 -0.0715 -0.3916
   51MOL   C25816358   1.647   2.809   3.517  0.1576 -0.1395  0.1104
   51MOL   C25916359   1.499   2.797   3.464  0.0690 -0.1611  0.9020
   51MOL   C26016360   1.493   2.797   3.306 -1.2608 -0.0800  0.4637
   51MOL   O26116361   1.550   2.892   3.256 -0.1392 -0.1781  0.1916
   51MOL   N26216362   1.431   2.706   3.227 -0.0789 -0.2803  0.1836
   51MOL   C26316363   1.469   2.691   3.086 -0.1053 -0.8305  1.2551
   51MOL   C26416364   1.327   2.606   3.277 -0.6141 -1.1613  0.1398
   51MOL   H26516365   1.653   2.798   3.625  1.4525 -1.0383 -0.0435
   51MOL   H26616366   1.689   2.906   3.493 -0.4581  0.2505  0.5995
   51MOL   H26716367   1.460   2.697   3.482  0.2754 -0.8129 -2.0976
   51MOL   H26816368   1.572   2.713   3.056 -0.7793 -0.1271 -0.5897
   51MOL   H26916369   1.447   2.586   3.067 -0.4794 -0.2889 -1.4385
   51MOL   H27016370   1.397   2.734   3.016  0.7340 -1.7480 -0.2072
   51MOL   H27116371   1.376   2.518   3.319  1.3733  0.0144  0.3634
   51MOL   H27216372   1.263   2.586   3.191 -0.8853 -0.3040  0.1408
   51MOL   H27316373   1.260   2.642   3.355  0.0977 -1.2917  0.8135
   51MOL   C27416374   1.405   2.891   3.536  0.1316  0.0430 -0.1062
   51MOL   C27516375   1.382   2.888   3.689 -0.4777  0.2638 -0.2032
   51MOL   C27616376   1.356   2.741   3.732 -0.9749 -0.0374 -0.1390
   51MOL   O27716377   1.262   2.678   3.684 -0.0088 -0.3772  0.0927
   51MOL   N27816378   1.450   2.673   3.802 -0.0256  0.0789 -0.2465
   51MOL   C27916379   1.445   2.532   3.827 -0.3914  0.4303  0.0004
   51MOL   C28016380   1.549   2.752   3.879 -0.2789  0.4775 -0.7296
   51MOL   H28116381   1.443   2.990   3.509  0.5029  0.8307  3.1560
   51MOL   H28216382   1.307   2.879   3.490 -0.5032 -0.0788  1.2494
   51MOL   H28316383   1.466   2.932   3.744 -0.7002  1.9327 -1.1664
   51MOL   H28416384   1.497   2.503   3.919  0.3873 -2.6813 -1.3537
   51MOL   H28516385   1.345   2.491   3.830 -0.2784  0.0952 -0.7553
   51MOL   H28616386   1.492   2.484   3.741 -1.2506  0.0015 -0.2253
   51MOL   H28716387   1.614   2.681   3.930 -0.8207 -1.1496 -2.2633
   51MOL   H28816388   1.507   2.813   3.959  0.4352 -0.5985  0.4794
   51MOL   H28916389   1.617   2.813   3.820  0.1152  0.7766  0.0345
   51MOL   C29016390   1.267   2.976   3.739  0.4503 -0.6340  0.3016
   51MOL   C29116391   1.300   3.123   3.747 -0.2159 -0.0460 -0.2633
   51MOL   C29216392   1.361   3.159   3.883  0.3126 -0.1287 -0.0126
   51MOL   O29316393   1.294   3.122   3.979 -0.3939 -0.1052  0.7530
   51MOL   N29416394   1.483   3.214   3.902  0.2711 -0.2175 -0.3363
   51MOL   C29516395   1.578   3.237   3.797  0.5264 -0.4774 -0.8799
   51MOL   C29616396   1.527   3.268   4.030  0.7266  0.1875  0.5935
   51MOL   H29716397   1.191   2.977   3.661  0.4162  0.4650  0.3444
   51MOL   H29816398   1.223   2.944   3.833  0.8020  0.3599  0.8083
   51MOL   H29916399   1.385   3.150   3.684  0.5784 -1.5055  0.1568
   51MOL   H30016400   1.681   3.243   3.832 -0.7973  1.0607  3.0644
   51MOL   H30116401   1.578   3.149   3.733 -2.2448 -0.6074 -0.7684
   51MOL   H30216402   1.549   3.328   3.746  0.1251  0.2882  0.6694
   51MOL   H30316403   1.568   3.367   4.014  2.3124 -0.8516 -2.0013
   51MOL   H30416404   1.590   3.193   4.077  0.6756 -1.4566 -1.9223
   51MOL   H30516405   1.438   3.283   4.091  0.5876 -0.3135  0.5191
   51MOL   C30616406   1.180   3.211   3.712  0.3323 -0.5629  0.4509
   51MOL   C30716407   1.194   3.357   3.746 -0.4562 -0.4714 -0.3271
   51MOL   C30816408   1.095   3.453   3.680 -0.5493  0.5311 -0.1728
   51MOL   O30916409   0.987   3.414   3.646  0.6153 -0.1245  0.2389
   51MOL   N31016410   1.131   3.582   3.666 -0.1172  0.2448  0.7731
   51MOL   C31116411   1.224   3.652   3.761  0.0341  0.1485 -0.1537
   51MOL   C31216412   1.060   3.674   3.568 -0.3088 -0.1925 -0.3156
   51MOL   H31316413   1.158   3.207   3.605  0.3100  1.6630  0.3539
   51MOL   H31416414   1.089   3.173   3.760  0.6439  0.2381  1.6863
   51MOL   H31516415   1.194   3.387   3.851  0.2589  0.3270 -0.5524
   51MOL   H31616416   1.239   3.759   3.747 -0.5518  0.3445  0.6623
   51MOL   H31716417   1.197   3.631   3.864  3.1858 -1.0311  0.4626
   51MOL   H31816418   1.324   3.617   3.736  0.7178  0.8374  1.6099
   51MOL   H31916419   1.116   3.758   3.529  0.0388 -1.0832 -1.7378
   51MOL   H32016420   0.988   3.727   3.631 -1.4514  0.3691 -2.0497
   51MOL   H32116421   1.005   3.618   3.492  1.5228 -0.0912 -1.7418
   51MOL   H32216422   1.288   3.394   3.705 -0.4853 -0.9852 -0.8659
   52MOL     C116423   4.544   0.286   0.688 -0.5474 -0.0491  0.2284
   52MOL     C216424   4.643   0.361   0.597 -0.4124  0.0173  0.4882
   52MOL     C316425   4.634   0.316   0.452 -0.3000  0.0542  0.4103
   52MOL     O416426   4.589   0.201   0.421 -0.8749 -0.1056  0.9117
   52MOL     N516427   4.673   0.409   0.360  0.1638 -0.5052  0.4112
   52MOL     C616428   4.664   0.358   0.218 -0.7457  0.8134  0.1220
   52MOL     C716429   4.726   0.544   0.373  0.3294  0.1156  0.2753
   52MOL     H816430   4.564   0.179   0.694 -0.9519 -0.3067 -2.1808
   52MOL     H916431   4.438   0.303   0.665 -0.7207 -1.7802 -0.3885
   52MOL    H1016432   4.612   0.464   0.612  1.6984  0.5324  1.5448
   52MOL    H1116433   4.576   0.297   0.198 -0.3939 -0.7362  3.1439
   52MOL    H1216434   4.667   0.448   0.156  1.0157  1.0999  0.5722
   52MOL    H1316435   4.752   0.294   0.207 -0.3889  1.3756 -0.4154
   52MOL    H1416436   4.653   0.612   0.328  1.2743  0.6885 -0.4177
   52MOL    H1516437   4.821   0.561   0.322  1.2299 -2.0919  1.1702
   52MOL    H1616438   4.731   0.575   0.477 -0.0815 -1.1384  0.6672
   52MOL    H1716439   4.568   0.329   0.785  2.5836  0.5822 -0.7772
   52MOL    C1816440   4.787   0.341   0.653  0.5625 -0.2243  0.1475
   52MOL    C1916441   4.855   0.207   0.644  0.1868  0.2344  0.2559
   52MOL    C2016442   4.810   0.123   0.769 -0.3502 -0.2665  0.1444
   52MOL    O2116443   4.859   0.164   0.878  0.3649  0.3994  0.1876
   52MOL    N2216444   4.734   0.012   0.761  0.5009  0.0888  0.0672
   52MOL    C2316445   4.676   7.805   0.889  0.0614 -0.5503  0.8682
   52MOL    C2416446   4.699   7.791   0.641  0.2949 -0.2766  0.2809
   52MOL    H2516447   4.849   0.419   0.609 -4.6662  3.9992 -0.2589
   52MOL    H2616448   4.801   0.376   0.755 -1.3905  1.9511 -0.2912
   52MOL    H2716449   4.824   0.168   0.547 -1.3677 -0.3041  0.9434
   52MOL    H2816450   4.744   7.774   0.968  2.4870  0.5551 -0.7063
   52MOL    H2916451   4.613   0.030   0.931 -2.8235 -1.9218 -0.8066
   52MOL    H3016452   4.602   7.727   0.874 -0.3251 -0.3489  1.7247
   52MOL    H3116453   4.789   7.737   0.612  1.5706  1.5077  0.8383
   52MOL    H3216454   4.674   0.008   0.561  0.5515 -0.1918  0.2760
   52MOL    H3316455   4.617   7.722   0.661  2.1145 -2.1127  1.5749
   52MOL    C3416456   5.009   0.222   0.636  0.4234 -0.1839 -0.9275
   52MOL    C3516457   5.075   0.198   0.497  0.2742  0.1924 -0.3128
   52MOL    C3616458   5.060   0.046   0.453  0.2287 -0.5056  0.1846
   52MOL    O3716459   5.104   7.814   0.534  1.0720 -0.3010  0.6444
   52MOL    N3816460   5.018   0.007   0.334  0.3884  0.6390  0.2268
   52MOL    C3916461   5.019   7.720   0.290  0.0539  0.7871 -0.1720
   52MOL    C4016462   4.985   0.099   0.221 -0.3318  0.0117 -0.1734
   52MOL    H4116463   5.035   0.325   0.664  2.1747  0.0454 -3.2153
   52MOL    H4216464   5.065   0.164   0.709 -0.7030 -0.9135 -0.6433
   52MOL    H4316465   5.016   0.254   0.425  0.2748 -2.6773 -2.6578
   52MOL    H4416466   4.988   7.654   0.371 -0.3559  2.0373  0.7041
   52MOL    H4516467   4.953   7.689   0.208 -0.2506  1.4228 -0.1736
   52MOL    H4616468   5.123   7.691   0.278  0.2637  0.3862  2.3945
   52MOL    H4716469   5.080   0.138   0.182 -0.6293 -0.2542 -1.1936
   52MOL    H4816470   4.922   0.184   0.246 -1.2932 -0.9772  0.7926
   52MOL    H4916471   4.935   0.054   0.135 -1.1348  1.1935 -0.3358
   52MOL    C5016472   5.226   0.229   0.491 -0.0880  0.0559  0.2298
   52MOL    C5116473   5.249   0.381   0.471 -0.1078 -0.1374  0.6777
   52MOL    C5216474   5.210   0.424   0.327 -0.0512  0.0030  0.6719
   52MOL    O5316475   5.249   0.359   0.232 -0.0929  0.1423  0.4464
   52MOL    N5416476   5.120   0.530   0.317  0.4857  0.3060  0.4624
   52MOL    C5516477   5.066   0.567   0.185  0.0249  0.0445  0.0753
   52MOL    C5616478   5.083   0.620   0.422 -0.6609 -0.0110  0.4833
   52MOL    H5716479   5.285   0.204   0.579  0.4958  1.3997  0.2221
   52MOL    H5816480   5.278   0.170   0.415 -0.7191 -0.6481  0.3468
   52MOL    H5916481   5.187   0.421   0.552 -2.6131  0.8620 -1.6407
   52MOL    H6016482   5.084   0.495   0.106  2.2077  1.4321 -0.7468
   52MOL    H6116483   4.959   0.586   0.188  0.0131  0.3338 -1.5668
   52MOL    H6216484   5.110   0.664   0.161 -1.6360  1.1234  1.2928
   52MOL    H6316485   4.996   0.680   0.396 -0.8551 -0.1897  0.7246
   52MOL    H6416486   5.147   0.706   0.438 -0.1008 -0.2700 -0.2999
   52MOL    H6516487   5.063   0.567   0.515  1.0155 -1.6738 -0.0622
   52MOL    C6616488   5.404   0.421   0.496  0.2287 -0.0371 -0.5526
   52MOL    C6716489   5.430   0.566   0.553  0.4229  0.0740 -1.0392
   52MOL    C6816490   5.577   0.599   0.520 -0.5903  0.7408 -0.3246
   52MOL    O6916491   5.658   0.520   0.569  0.1881  0.3516 -0.3515
   52MOL    N7016492   5.613   0.710   0.450 -0.2765 -0.6735 -0.6186
   52MOL    C7116493   5.746   0.764   0.450  0.0020 -0.3590 -0.2980
   52MOL    C7216494   5.522   0.788   0.357 -0.0604 -0.0646 -0.3006
   52MOL    H7316495   5.449   0.349   0.563 -1.3728 -0.4792  0.0762
   52MOL    H7416496   5.456   0.412   0.401 -1.3825  1.0697 -1.5742
   52MOL    H7516497   5.360   0.625   0.492  0.4208  0.2114 -0.9022
   52MOL    H7616498   5.811   0.691   0.402 -2.8956 -2.4373 -1.1566
   52MOL    H7716499   5.760   0.855   0.392 -0.6959 -1.2181 -1.8316
   52MOL    H7816500   5.779   0.782   0.553  2.2662 -0.7374 -0.9127
   52MOL    H7916501   5.479   0.712   0.293 -0.0694 -0.1775 -0.1613
   52MOL    H8016502   5.568   0.856   0.285 -1.7999  1.7619  0.2545
   52MOL    H8116503   5.444   0.843   0.410  1.2860  0.4201  1.2375
   52MOL    C8216504   5.391   0.592   0.699 -0.3564  0.1871 -0.0823
   52MOL    C8316505   5.420   0.735   0.754  0.3640 -0.4622  0.7290
   52MOL    C8416506   5.438   0.728   0.905 -0.1031  0.3811 -0.3403
   52MOL    O8516507   5.336   0.731   0.973 -0.1015 -0.4245  0.3956
   52MOL    N8616508   5.558   0.718   0.957 -0.3474 -0.3959 -0.5883
   52MOL    C8716509   5.681   0.686   0.884  0.2359 -0.1485  0.0301
   52MOL    C8816510   5.576   0.739   1.106 -0.2252  0.1093  0.7564
   52MOL    H8916511   5.287   0.559   0.703 -0.5203  0.3165 -2.5146
   52MOL    H9016512   5.444   0.519   0.761  2.3346  1.2818 -1.0093
   52MOL    H9116513   5.517   0.770   0.719  1.4833 -2.7276  1.4609
   52MOL    H9216514   5.757   0.661   0.958 -0.3996  2.3450  1.5588
   52MOL    H9316515   5.662   0.606   0.812  3.4320 -1.1158  0.1604
   52MOL    H9416516   5.729   0.775   0.843 -1.3851  0.5527 -0.3817
   52MOL    H9516517   5.491   0.792   1.148 -1.2785 -0.6953 -0.3569
   52MOL    H9616518   5.662   0.805   1.121 -0.3391  0.5890 -0.6115
   52MOL    H9716519   5.590   0.641   1.151 -0.7258 -1.5142 -2.4786
   52MOL    C9816520   5.312   0.828   0.705  0.5644  0.1130 -0.4839
   52MOL    C9916521   5.352   0.977   0.675  1.4038 -0.0387 -0.0671
   52MOL   C10016522   5.428   1.051   0.786  0.2642  0.7277  0.6449
   52MOL   O10116523   5.370   1.082   0.886  0.1225 -0.1695 -0.2807
   52MOL   N10216524   5.560   1.081   0.766 -0.4368 -0.5234  0.0661
   52MOL   C10316525   5.628   1.087   0.634 -0.3270 -0.1391  0.2386
   52MOL   C10416526   5.645   1.113   0.883 -0.8364  0.3026  0.4509
   52MOL   H10516527   5.255   0.794   0.619 -2.0946 -0.4196  1.4188
   52MOL   H10616528   5.232   0.830   0.780  1.0191 -0.5358  0.0285
   52MOL   H10716529   5.408   0.968   0.582  0.2099  1.2198 -0.9405
   52MOL   H10816530   5.644   0.986   0.596  0.6933 -0.1791  0.7723
   52MOL   H10916531   5.569   1.146   0.564 -1.0958 -1.5634 -0.3301
   52MOL   H11016532   5.728   1.129   0.634 -0.0791 -0.6322 -1.9012
   52MOL   H11116533   5.589   1.146   0.971 -2.2966 -0.5053 -0.1796
   52MOL   H11216534   5.705   1.196   0.845 -0.9249  0.7195  1.1945
   52MOL   H11316535   5.698   1.019   0.900 -0.0334  0.9060  1.4008
   52MOL   C11416536   5.229   1.064   0.626  0.4884 -0.1261  0.1140
   52MOL   C11516537   5.103   1.082   0.716  0.4923 -0.0298 -0.2612
   52MOL   C11616538   5.003   0.968   0.682  0.2717  0.2067 -0.5584
   52MOL   O11716539   4.954   0.966   0.569 -0.5541 -0.1568 -0.8507
   52MOL   N11816540   4.956   0.875   0.772 -0.1558 -0.3170 -0.0248
   52MOL   C11916541   4.992   0.867   0.912 -0.7808 -0.4050 -0.7994
   52MOL   C12016542   4.877   0.754   0.730  0.4189  0.0936 -0.1161
   52MOL   H12116543   5.273   1.163   0.611 -1.0451  0.5596  0.0026
   52MOL   H12216544   5.196   1.024   0.530  2.8902  1.2404 -1.3488
   52MOL   H12316545   5.144   1.078   0.817  0.7173 -1.1143 -0.3825
   52MOL   H12416546   5.020   0.767   0.943 -1.1499 -1.2270 -3.0410
   52MOL   H12516547   5.075   0.930   0.946 -0.5827 -0.5452 -1.0263
   52MOL   H12616548   4.903   0.900   0.966 -0.0211 -1.2862  1.0404
   52MOL   H12716549   4.930   0.666   0.694 -0.0274 -1.2244  2.2934
   52MOL   H12816550   4.821   0.773   0.639  2.2655  1.6641 -0.9615
   52MOL   H12916551   4.806   0.714   0.803  0.5465  1.6038  0.8460
   52MOL   C13016552   5.031   1.220   0.693  1.0482 -0.0809  0.2254
   52MOL   C13116553   4.924   1.271   0.796  0.8754  0.0919  0.8760
   52MOL   C13216554   4.978   1.278   0.938 -0.4831  0.7591  0.4219
   52MOL   O13316555   4.954   1.180   1.011 -0.0242 -0.2775 -0.7326
   52MOL   N13416556   5.035   1.390   0.984 -0.1066 -0.0775  0.0712
   52MOL   C13516557   5.049   1.507   0.896  0.5839 -0.3343 -0.4380
   52MOL   C13616558   5.072   1.413   1.123 -0.1758 -0.2149 -0.7825
   52MOL   H13716559   5.118   1.287   0.696 -0.4703  2.0634 -1.7223
   52MOL   H13816560   4.988   1.225   0.593 -0.0399  0.5519  0.7146
   52MOL   H13916561   4.889   1.372   0.775  1.8742  0.6988  2.0625
   52MOL   H14016562   5.144   1.559   0.911 -0.2743  1.6701 -1.8309
   52MOL   H14116563   5.061   1.485   0.790 -0.7902 -1.1184 -0.4365
   52MOL   H14216564   4.968   1.578   0.912 -0.0553 -1.5021  1.8338
   52MOL   H14316565   5.012   1.480   1.184  0.6654 -1.0875  1.0641
   52MOL   H14416566   5.174   1.448   1.139  0.0370 -0.7068 -1.0581
   52MOL   H14516567   5.068   1.320   1.180 -2.0051  1.7773  2.4408
   52MOL   C14616568   4.792   1.183   0.789  0.2342 -0.3215 -0.1829
   52MOL   C14716569   4.711   1.192   0.657 -0.2830  0.2409 -0.0309
   52MOL   C14816570   4.645   1.331   0.643 -0.0659 -0.9708 -0.0819
   52MOL   O14916571   4.569   1.361   0.729 -0.2128  0.1197 -0.0393
   52MOL   N15016572   4.668   1.416   0.540  0.1267 -0.5672  0.1256
   52MOL   C15116573   4.568   1.519   0.503  0.3866  0.0583  0.5192
   52MOL   C15216574   4.771   1.384   0.444 -0.8646 -0.3065  0.2674
   52MOL   H15316575   4.820   1.080   0.810  1.9570  0.3697  1.0485
   52MOL   H15416576   4.726   1.209   0.872  1.2493 -0.5009  0.6906
   52MOL   H15516577   4.774   1.165   0.572 -1.0400 -1.3677 -0.0986
   52MOL   H15616578   4.614   1.603   0.450  2.2919 -0.3023  1.5567
   52MOL   H15716579   4.493   1.477   0.436  1.1341 -0.3494 -0.0760
   52MOL   H15816580   4.507   1.547   0.588  1.7199 -1.4078  1.9989
   52MOL   H15916581   4.791   1.469   0.379 -0.2438  0.7994  1.8832
   52MOL   H16016582   4.745   1.299   0.380 -1.7436  0.0734  0.1106
   52MOL   H16116583   4.868   1.355   0.485 -0.5331  1.1150  0.5189
   52MOL   C16216584   4.606   1.076   0.665  0.2079  0.9100  0.1963
   52MOL   C16316585   4.523   1.064   0.533  0.1141 -0.0990  0.1859
   52MOL   C16416586   4.397   0.981   0.555  0.8312  0.8484 -0.3419
   52MOL   O16516587   4.404   0.861   0.536 -0.1576 -0.4418  0.2324
   52MOL   N16616588   4.283   1.032   0.603  0.0940  0.3151  0.6158
   52MOL   C16716589   4.256   1.174   0.605 -0.1083  0.0321 -0.0721
   52MOL   C16816590   4.179   0.943   0.644  0.2828 -0.3526  0.4653
   52MOL   H16916591   4.647   0.979   0.691 -1.8928 -0.4006 -1.2502
   52MOL   H17016592   4.532   1.100   0.742 -1.2824 -2.2104 -0.1951
   52MOL   H17116593   4.504   1.170   0.516  0.0015 -0.4298 -1.9190
   52MOL   H17216594   4.149   1.199   0.605  0.2208  1.5201 -1.4054
   52MOL   H17316595   4.293   1.229   0.691  2.4374 -0.6827 -0.6678
   52MOL   H17416596   4.284   1.223   0.512 -0.1765 -0.1509 -0.1905
   52MOL   H17516597   4.184   0.858   0.577 -3.4694  2.1242 -3.2182
   52MOL   H17616598   4.079   0.985   0.638  1.0734  1.5352 -0.1112
   52MOL   H17716599   4.209   0.911   0.744  2.1467  2.5549  0.8955
   52MOL   C17816600   4.612   1.001   0.419 -0.7539  0.1615  0.4509
   52MOL   C17916601   4.550   1.010   0.274  0.4945 -0.1935 -0.2209
   52MOL   C18016602   4.655   0.952   0.178  0.0108  0.2095 -0.3970
   52MOL   O18116603   4.761   1.014   0.171 -0.1332  0.1020  0.9550
   52MOL   N18216604   4.628   0.838   0.111 -0.1184 -0.3718 -0.3089
   52MOL   C18316605   4.726   0.770   0.029 -0.4013  0.3057  0.7691
   52MOL   C18416606   4.509   0.764   0.127 -0.0427 -0.0280 -0.8055
   52MOL   H18516607   4.717   1.033   0.421 -0.5113 -0.3507 -2.0080
   52MOL   H18616608   4.609   0.895   0.445  0.1833 -0.2352 -1.0114
   52MOL   H18716609   4.463   0.946   0.257  0.9601 -0.7032 -0.7044
   52MOL   H18816610   4.678   0.777   7.785 -2.2759  0.4810  1.6919
   52MOL   H18916611   4.827   0.812   0.039 -0.5333  0.4872  1.3321
   52MOL   H19016612   4.726   0.665   0.058 -1.6039  0.7903  2.6126
   52MOL   H19116613   4.486   0.684   0.056  0.4401 -0.4891 -0.4445
   52MOL   H19216614   4.414   0.817   0.117 -0.4166 -0.6910 -0.7678
   52MOL   H19316615   4.508   0.729   0.230  0.8423  3.2460  0.3643
   52MOL   C19416616   4.505   1.156   0.237 -0.3792 -0.3358  1.1702
   52MOL   C19516617   4.514   1.228   0.090  0.2511  0.0300 -0.3121
   52MOL   C19616618   4.500   1.372   0.101  0.5417  0.0564 -0.0073
   52MOL   O19716619   4.414   1.423   0.170 -0.0190 -0.3515 -0.0089
   52MOL   N19816620   4.582   1.457   0.038 -0.2061  0.3532 -0.4998
   52MOL   C19916621   4.666   1.416   7.780  0.4216  0.3814 -0.1119
   52MOL   C20016622   4.570   1.601   0.067  0.0574 -0.1141  0.1162
   52MOL   H20116623   4.401   1.166   0.268 -0.3474  2.8112  0.3621
   52MOL   H20216624   4.548   1.221   0.313 -0.3913 -0.3154  1.1591
   52MOL   H20316625   4.611   1.205   0.046 -0.8515 -2.3353 -1.6607
   52MOL   H20416626   4.752   1.356   7.807  0.5985  1.6995  2.4467
   52MOL   H20516627   4.615   1.356   7.705 -1.5629 -0.3733  1.7931
   52MOL   H20616628   4.700   1.510   7.736 -0.6562  0.8859  0.1186
   52MOL   H20716629   4.494   1.639   7.852 -0.9729  1.0172  1.8406
   52MOL   H20816630   4.666   1.643   0.038 -0.3403 -0.2103 -1.3866
   52MOL   H20916631   4.545   1.616   0.172 -0.1849 -0.3972  0.0989
   52MOL   C21016632   4.411   1.165   7.848  0.1822 -0.1812 -0.3509
   52MOL   C21116633   4.254   1.203   7.850  0.4559 -0.4219 -0.4522
   52MOL   C21216634   4.169   1.130   0.112 -0.1101 -0.4044 -0.1373
   52MOL   O21316635   4.174   1.008   0.121 -0.3155 -0.0456 -0.6978
   52MOL   N21416636   4.085   1.204   0.194  0.2262 -0.5362 -0.2621
   52MOL   C21516637   4.083   1.349   0.209 -0.4300 -0.6481  0.7971
   52MOL   C21616638   4.009   1.136   0.303 -0.3816  0.0538 -0.3554
   52MOL   H21716639   4.447   1.182   7.746  0.2899  1.2046 -0.0996
   52MOL   H21816640   4.424   1.057   7.850  1.6128 -0.0025  2.2425
   52MOL   H21916641   4.249   1.310   0.018  0.1433 -0.5034 -0.1249
   52MOL   H22016642   4.054   1.392   0.113  1.4864 -0.9451  0.0706
   52MOL   H22116643   4.015   1.379   0.288 -2.3014 -0.2903 -0.9063
   52MOL   H22216644   4.184   1.383   0.231  0.3115 -1.3348 -1.3917
   52MOL   H22316645   3.949   1.205   0.362  2.1939  2.7624 -0.7780
   52MOL   H22416646   4.082   1.090   0.369 -0.5981 -1.0917 -0.9064
   52MOL   H22516647   3.948   1.054   0.265 -0.1588 -0.9100  1.3631
   52MOL   C22616648   4.193   1.199   7.712  1.1616  0.7806 -0.3851
   52MOL   C22716649   4.253   1.290   7.600 -0.2377 -0.0392 -0.0664
   52MOL   C22816650   4.150   1.396   7.563  0.7610 -0.4658 -0.5949
   52MOL   O22916651   4.069   1.370   7.478 -0.8570  0.0693  0.0373
   52MOL   N23016652   4.153   1.520   7.620 -0.6483  0.2765  0.1639
   52MOL   C23116653   4.040   1.610   7.602  0.0927  0.1722  0.5905
   52MOL   C23216654   4.261   1.570   7.699 -0.0569  0.2600 -0.3229
   52MOL   H23316655   4.194   1.098   7.672  2.4794  0.9720 -0.8499
   52MOL   H23416656   4.087   1.222   7.709  1.5171  3.3133  2.9605
   52MOL   H23516657   4.345   1.342   7.629 -0.6192  0.9216 -0.5546
   52MOL   H23616658   4.052   1.710   7.645 -0.2956  0.9762 -1.1050
   52MOL   H23716659   4.017   1.630   7.497  2.4032 -1.4223 -0.2484
   52MOL   H23816660   3.954   1.571   7.657 -0.9350  1.8784  0.2326
   52MOL   H23916661   4.249   1.677   7.715  0.8730  0.4620 -0.9729
   52MOL   H24016662   4.361   1.568   7.656 -0.5381 -1.1553 -1.4441
   52MOL   H24116663   4.233   1.533   7.798  1.1856  1.4857  0.4900
   52MOL   C24216664   4.303   1.205   7.476 -0.1387  0.3389  0.6967
   52MOL   C24316665   4.378   1.275   7.364  0.6480  0.0131  0.5311
   52MOL   C24416666   4.392   1.191   7.242  0.6713 -0.4047  0.0834
   52MOL   O24516667   4.476   1.104   7.241 -0.3531  0.3853 -0.0677
   52MOL   N24616668   4.316   1.206   7.134  0.3047  0.4019 -0.4686
   52MOL   C24716669   4.173   1.233   7.136 -0.0133 -0.3430 -0.3432
   52MOL   C24816670   4.382   1.198   7.000 -0.1024 -0.0937 -0.6901
   52MOL   H24916671   4.368   1.132   7.525 -0.4274 -2.2116 -2.5012
   52MOL   H25016672   4.221   1.154   7.426  1.4540 -0.1818 -1.4604
   52MOL   H25116673   4.318   1.362   7.342 -0.8427 -0.6942  1.7133
   52MOL   H25216674   4.141   1.301   7.214 -0.4626 -0.0122 -0.8116
   52MOL   H25316675   4.150   1.284   7.042 -1.0535  1.9109  1.1023
   52MOL   H25416676   4.131   1.133   7.138  1.3238 -0.9405 -1.1689
   52MOL   H25516677   4.319   1.242   6.923 -1.8931  1.0851  1.3973
   52MOL   H25616678   4.396   1.093   6.974  0.5626  0.0775 -1.0381
   52MOL   H25716679   4.476   1.252   7.003 -1.1987  1.7671  0.7994
   52MOL   C25816680   4.515   1.333   7.404 -0.5933 -0.0823  0.5473
   52MOL   C25916681   4.569   1.453   7.332 -1.0259  0.3574  0.0269
   52MOL   C26016682   4.723   1.461   7.331 -0.6704 -0.5122  0.0285
   52MOL   O26116683   4.776   1.521   7.423 -0.4039  0.3699  0.3332
   52MOL   N26216684   4.799   1.400   7.234  0.3262  0.2745 -0.0987
   52MOL   C26316685   4.750   1.325   7.124 -0.0210 -0.1124  0.3536
   52MOL   C26416686   4.949   1.405   7.245 -0.4269  1.0732  0.5715
   52MOL   H26516687   4.514   1.363   7.509  1.5997 -1.5539  1.0197
   52MOL   H26616688   4.588   1.252   7.402  0.3784  0.7923 -1.4486
   52MOL   H26716689   4.543   1.439   7.227  0.3517 -0.3393 -0.2435
   52MOL   H26816690   4.661   1.265   7.140 -1.4490  1.6132 -0.8401
   52MOL   H26916691   4.737   1.393   7.040  0.0627  0.2590  0.6380
   52MOL   H27016692   4.821   1.251   7.088  1.4922  1.3763  0.1885
   52MOL   H27116693   4.977   1.487   7.311  1.0399  0.5273  0.6480
   52MOL   H27216694   4.989   1.438   7.150  1.7077 -0.4259  0.9137
   52MOL   H27316695   4.975   1.307   7.285  1.8200  1.7372  0.7938
   52MOL   C27416696   4.507   1.588   7.394  0.1285  0.0454  0.0498
   52MOL   C27516697   4.557   1.720   7.336  0.0502  0.0406  0.3320
   52MOL   C27616698   4.480   1.834   7.419 -0.1769 -0.1559 -0.6142
   52MOL   O27716699   4.364   1.859   7.383 -0.1914  0.0424  0.3743
   52MOL   N27816700   4.527   1.892   7.533 -0.3195 -0.6540 -0.2456
   52MOL   C27916701   4.669   1.877   7.577  0.2774 -0.0970  0.2128
   52MOL   C28016702   4.446   1.971   7.623  0.7960  0.5719 -0.8460
   52MOL   H28116703   4.399   1.586   7.393  0.1073  0.8125  0.5344
   52MOL   H28216704   4.529   1.586   7.501 -1.3405 -1.1628  0.3462
   52MOL   H28316705   4.663   1.735   7.357  0.2695 -0.3311 -0.4778
   52MOL   H28416706   4.708   1.959   7.637  0.8738  0.9625 -1.5872
   52MOL   H28516707   4.682   1.784   7.632 -1.1891 -0.6299 -0.3091
   52MOL   H28616708   4.731   1.881   7.488  0.6887  0.4221  0.5205
   52MOL   H28716709   4.369   1.913   7.675  1.3448 -1.0456 -1.8025
   52MOL   H28816710   4.390   2.058   7.590 -2.1839 -0.9337  0.0383
   52MOL   H28916711   4.511   2.005   7.703  1.6736 -1.5941 -0.6040
   52MOL   C29016712   4.538   1.723   7.181 -0.5835  0.9792 -0.1110
   52MOL   C29116713   4.399   1.761   7.115 -0.5245 -0.2427 -0.3256
   52MOL   C29216714   4.291   1.649   7.140  1.1064 -0.2782 -1.1974
   52MOL   O29316715   4.335   1.532   7.124  0.0749 -0.5603 -0.4619
   52MOL   N29416716   4.165   1.674   7.180  0.5312 -0.2288 -0.5975
   52MOL   C29516717   4.095   1.799   7.178 -0.3769 -0.3165  0.3593
   52MOL   C29616718   4.064   1.567   7.194 -0.5883 -0.2367  0.4100
   52MOL   H29716719   4.609   1.797   7.144 -0.4098  0.1107 -1.5429
   52MOL   H29816720   4.566   1.628   7.136  0.8866  2.5996 -2.7245
   52MOL   H29916721   4.370   1.860   7.150 -1.3523 -0.0288 -1.5746
   52MOL   H30016722   4.043   1.808   7.083 -2.1733 -2.6943  1.0843
   52MOL   H30116723   4.027   1.825   7.259 -1.7893  0.7171 -1.1275
   52MOL   H30216724   4.162   1.885   7.168 -2.4118  1.3606  0.9486
   52MOL   H30316725   4.091   1.499   7.274  0.5059  2.3736  2.3272
   52MOL   H30416726   4.059   1.511   7.100 -3.0587 -1.8123  1.4233
   52MOL   H30516727   3.960   1.590   7.219 -0.7715  0.6319 -1.0732
   52MOL   C30616728   4.418   1.776   6.960 -0.4989 -0.5049 -0.4712
   52MOL   C30716729   4.316   1.871   6.897  0.2841  0.1487  0.6653
   52MOL   C30816730   4.355   1.918   6.757  0.3511  0.2321  0.5217
   52MOL   O30916731   4.444   1.862   6.702  0.8456 -0.0329 -0.4484
   52MOL   N31016732   4.286   2.022   6.697  0.3102  0.1941 -0.1081
   52MOL   C31116733   4.174   2.088   6.765 -0.2503  0.1668 -0.0440
   52MOL   C31216734   4.313   2.067   6.562  0.0331 -0.3466 -0.2691
   52MOL   H31316735   4.517   1.816   6.942  0.2277 -1.4018  1.4349
   52MOL   H31416736   4.416   1.677   6.914 -1.3057 -1.3038  1.2293
   52MOL   H31516737   4.219   1.823   6.886  1.6088 -2.1440 -1.4578
   52MOL   H31616738   4.101   2.018   6.807 -0.2123 -0.1856 -0.5604
   52MOL   H31716739   4.211   2.140   6.853  0.5097  0.3884 -0.4963
   52MOL   H31816740   4.134   2.163   6.697  0.4500  0.8523  0.3029
   52MOL   H31916741   4.337   1.983   6.497  0.2240  0.0335 -0.6909
   52MOL   H32016742   4.404   2.129   6.561  0.0052 -0.0309  4.4574
   52MOL   H32116743   4.232   2.128   6.522 -0.4048  0.0922  1.2548
   52MOL   H32216744   4.312   1.964   6.953  0.7048  0.7363 -0.2598
   53MOL     C116745   7.627   4.990   2.095 -0.6919 -0.2400  0.5619
   53MOL     C216746   7.761   4.926   2.056 -0.5449  0.2497  0.8564
   53MOL     C316747   7.782   4.935   1.906 -0.4547 -0.1424 -0.2152
   53MOL     O416748   7.690   4.926   1.826  0.5861  0.2512  0.3207
   53MOL     N516749   0.054   4.952   1.859  0.0769  0.0538 -0.1002
   53MOL     C616750   0.085   4.971   1.721 -0.2020  0.2993 -0.3732
   53MOL     C716751   0.169   4.989   1.947  0.0046  0.3338 -0.6323
   53MOL     H816752   7.538   4.953   2.044 -0.3488  1.7314 -1.5400
   53MOL     H916753   7.640   5.094   2.067  2.4649 -0.1509  2.2016
   53MOL    H1016754   7.840   4.985   2.103  1.0414 -0.4021 -0.9393
   53MOL    H1116755   0.051   4.878   1.676 -1.7664  0.2669  0.8316
   53MOL    H1216756   0.023   5.051   1.680 -2.1224  0.6785  3.1299
   53MOL    H1316757   0.187   4.998   1.696 -0.7021 -0.1370 -3.1675
   53MOL    H1416758   0.146   5.091   1.979  0.6463  0.6628 -1.2040
   53MOL    H1516759   0.270   4.995   1.905  0.5436 -1.7386  0.3273
   53MOL    H1616760   0.184   4.931   2.038  2.5635 -0.5788 -1.5905
   53MOL    H1716761   7.610   4.984   2.202 -1.6999  1.0092  0.4850
   53MOL    C1816762   7.773   4.772   2.096  0.1061 -0.2680  0.1304
   53MOL    C1916763   7.784   4.729   2.247  0.2789 -0.2110 -0.9950
   53MOL    C2016764   0.032   4.820   2.329 -0.9149  0.0398 -0.1130
   53MOL    O2116765   0.146   4.831   2.285  0.4005 -0.5756  0.7950
   53MOL    N2216766   7.841   4.882   2.437 -0.1725 -0.0516 -0.1648
   53MOL    C2316767   0.056   5.005   2.492  0.6172 -0.2676 -0.1042
   53MOL    C2416768   7.726   4.829   2.510  0.0965 -0.1634  0.6020
   53MOL    H2516769   7.680   4.727   2.062  0.1417 -0.2528  0.0120
   53MOL    H2616770   0.002   4.730   2.039  0.6631 -1.4545  1.7806
   53MOL    H2716771   7.683   4.739   2.287  0.4219  0.2843 -0.7521
   53MOL    H2816772   0.164   5.005   2.476  0.7031  1.4115  0.4825
   53MOL    H2916773   0.010   5.092   2.447 -0.7653 -0.7188  0.4117
   53MOL    H3016774   0.033   5.016   2.598 -1.7368  2.9909 -0.8672
   53MOL    H3116775   7.634   4.850   2.456  0.3641 -0.5425 -0.0129
   53MOL    H3216776   7.709   4.893   2.596 -0.6359  0.6731 -0.1445
   53MOL    H3316777   7.733   4.723   2.536  3.4987 -0.0041  0.6026
   53MOL    C3416778   7.839   4.582   2.263 -0.4943  0.4013 -0.4686
   53MOL    C3516779   7.731   4.469   2.248  0.0368 -0.5262  0.5168
   53MOL    C3616780   7.613   4.495   2.343 -0.2261 -0.1253  0.3823
   53MOL    O3716781   7.636   4.465   2.460  0.0535 -0.3675  0.3835
   53MOL    N3816782   7.493   4.543   2.293  0.0641 -0.1671  0.1239
   53MOL    C3916783   7.405   4.600   2.399 -0.3646  0.8513  0.6203
   53MOL    C4016784   7.437   4.534   2.157 -0.2728 -0.5845  0.5868
   53MOL    H4116785   0.084   4.568   2.218 -0.3675  0.3726 -0.1912
   53MOL    H4216786   0.025   4.581   2.365 -0.8147  2.5411 -0.2984
   53MOL    H4316787   7.694   4.470   2.146  1.2218 -1.9248  0.0652
   53MOL    H4416788   7.451   4.661   2.477  1.0574 -1.1578  1.3937
   53MOL    H4516789   7.317   4.644   2.352  0.3164 -1.0249 -2.5707
   53MOL    H4616790   7.365   4.514   2.453 -1.8419  0.2335 -1.4193
   53MOL    H4716791   7.376   4.446   2.137 -0.4064 -0.0407 -1.4453
   53MOL    H4816792   7.505   4.542   2.073  0.0756 -0.1586  0.9060
   53MOL    H4916793   7.363   4.611   2.137 -0.8719 -0.7293  2.1772
   53MOL    C5016794   7.777   4.322   2.263 -0.2289 -0.1004  0.1217
   53MOL    C5116795   7.659   4.214   2.242  0.0789 -0.5946 -0.0462
   53MOL    C5216796   7.632   4.138   2.374  0.2595  0.5293  0.3214
   53MOL    O5316797   7.726   4.072   2.418  0.5745 -0.1604 -0.0447
   53MOL    N5416798   7.512   4.142   2.437  0.2527  0.2278 -0.1819
   53MOL    C5516799   7.500   4.105   2.576 -0.1827 -0.2454  0.5231
   53MOL    C5616800   7.394   4.208   2.383 -0.5273 -0.6474 -0.4273
   53MOL    H5716801   0.004   4.301   2.193 -0.5543  0.6979 -0.4919
   53MOL    H5816802   7.826   4.312   2.360  3.5242 -2.1711 -1.8930
   53MOL    H5916803   7.569   4.255   2.197  0.0930 -0.1265  0.3514
   53MOL    H6016804   7.429   4.176   2.618 -0.4357  0.1264 -0.5308
   53MOL    H6116805   7.474   3.999   2.586  0.8822 -0.4560  1.2071
   53MOL    H6216806   7.591   4.113   2.637 -1.1532 -1.3103  2.1560
   53MOL    H6316807   7.418   4.314   2.389  1.7590 -1.1779  0.2046
   53MOL    H6416808   7.309   4.190   2.449  1.2679 -0.4877  1.9793
   53MOL    H6516809   7.376   4.190   2.277 -0.4817  0.3832 -0.6171
   53MOL    C6616810   7.693   4.117   2.128 -0.2165 -0.1470  0.6816
   53MOL    C6716811   7.707   4.167   1.979 -0.6205 -0.7747 -0.7764
   53MOL    C6816812   7.581   4.249   1.925 -0.2797 -0.0031  0.1007
   53MOL    O6916813   7.471   4.206   1.948  0.1370  0.6835 -0.3718
   53MOL    N7016814   7.614   4.357   1.848  0.5913  0.2945  0.1347
   53MOL    C7116815   7.505   4.441   1.792  0.2867 -0.4353  0.2928
   53MOL    C7216816   7.740   4.398   1.800 -0.1683  0.6847 -0.3371
   53MOL    H7316817   7.777   4.053   2.156 -1.1546 -2.5836 -1.8498
   53MOL    H7416818   7.605   4.054   2.126 -1.1048  1.0792  0.3065
   53MOL    H7516819   7.800   4.222   1.973 -1.1157  0.4562  2.0619
   53MOL    H7616820   7.538   4.544   1.778  1.2494 -0.8508 -0.5019
   53MOL    H7716821   7.457   4.392   1.707  2.9613 -1.1229 -0.8631
   53MOL    H7816822   7.426   4.447   1.868 -0.4105 -2.1012 -0.2875
   53MOL    H7916823   7.804   4.422   1.885  0.4697 -1.1557 -0.2915
   53MOL    H8016824   7.739   4.491   1.742  1.5624  0.0648 -1.3904
   53MOL    H8116825   7.793   4.327   1.737 -1.0747 -0.7273  0.4579
   53MOL    C8216826   7.709   4.035   1.895 -0.2380 -0.1409 -0.4137
   53MOL    C8316827   7.843   3.961   1.890 -0.1338 -0.3891  0.0523
   53MOL    C8416828   0.086   4.019   1.780 -0.3181  0.0773  0.3154
   53MOL    O8516829   0.043   4.075   1.678  0.0055 -0.9253 -0.3242
   53MOL    N8616830   0.221   4.010   1.795  0.0983  0.4112 -0.1031
   53MOL    C8716831   0.319   4.066   1.696 -0.1875 -0.3886 -0.2637
   53MOL    C8816832   0.289   3.929   1.901 -0.0390 -0.3710  0.3898
   53MOL    H8916833   7.635   3.965   1.935 -0.3699  0.2501  0.0335
   53MOL    H9016834   7.665   4.053   1.797 -1.5390 -1.8567 -0.1720
   53MOL    H9116835   0.035   3.977   1.988  0.0123 -2.4096  0.3333
   53MOL    H9216836   0.269   4.114   1.612 -0.1619  0.2081  0.0525
   53MOL    H9316837   0.381   4.152   1.722 -0.1289 -0.6873  0.5883
   53MOL    H9416838   0.392   3.987   1.676  1.8743  1.1058  1.1451
   53MOL    H9516839   0.258   3.963   2.000  1.3336  0.4007  0.5742
   53MOL    H9616840   0.397   3.943   1.895 -0.0265 -0.0337  1.2747
   53MOL    H9716841   0.276   3.825   1.871 -3.9118  0.4730 -1.0807
   53MOL    C9816842   7.811   3.812   1.880  0.3847  0.4936 -0.5173
   53MOL    C9916843   7.776   3.743   2.012 -0.3626 -0.1294  0.1242
   53MOL   C10016844   0.058   3.698   2.079 -0.4919 -0.1395  0.1478
   53MOL   O10116845   0.154   3.663   2.008 -0.2209 -0.3581 -0.3202
   53MOL   N10216846   0.075   3.710   2.216 -0.5557  0.5490  0.5545
   53MOL   C10316847   0.191   3.647   2.283 -0.4793 -0.1869  0.2665
   53MOL   C10416848   7.825   3.770   2.299 -0.0475 -0.5359 -0.5996
   53MOL   H10516849   7.722   3.803   1.819  1.1927 -0.5676 -1.5567
   53MOL   H10616850   0.041   3.761   1.832  1.2732 -0.6185  2.0995
   53MOL   H10716851   7.731   3.814   2.082  0.3654 -0.7253  1.2062
   53MOL   H10816852   0.202   3.690   2.383  0.3036 -0.2715  0.2227
   53MOL   H10916853   0.169   3.541   2.292  2.0913 -0.8960 -1.2522
   53MOL   H11016854   0.285   3.653   2.227 -1.4690  1.5434 -1.2503
   53MOL   H11116855   7.731   3.715   2.300  1.5261 -3.2784  0.7559
   53MOL   H11216856   7.802   3.876   2.281 -0.5569 -0.2769  1.4714
   53MOL   H11316857   0.001   3.772   2.404 -0.7741 -1.8989 -0.3607
   53MOL   C11416858   7.685   3.620   2.001  0.1050  0.0702 -0.8501
   53MOL   C11516859   7.537   3.644   2.003  1.1831 -0.1210  0.5693
   53MOL   C11616860   7.474   3.693   2.139  0.2991  0.2089 -0.9550
   53MOL   O11716861   7.482   3.620   2.242 -0.1515  0.1159  0.3584
   53MOL   N11816862   7.413   3.813   2.157 -0.5102 -0.5019 -0.0037
   53MOL   C11916863   7.365   3.889   2.045 -0.0873  0.3348  0.7201
   53MOL   C12016864   7.352   3.842   2.283  0.2073  0.6996 -0.2803
   53MOL   H12116865   7.710   3.559   1.915  1.6715  0.0673 -0.4054
   53MOL   H12216866   7.705   3.553   2.084  1.7861  0.9234 -0.5450
   53MOL   H12316867   7.518   3.723   1.930  0.7189  0.5403  1.3990
   53MOL   H12416868   7.350   3.994   2.070 -1.7882  0.3025 -0.0736
   53MOL   H12516869   7.435   3.899   1.962  1.4017 -1.4032  1.7306
   53MOL   H12616870   7.273   3.852   1.999  0.7290  0.3808 -0.9937
   53MOL   H12716871   7.274   3.918   2.277  0.6111  1.2132  0.8283
   53MOL   H12816872   7.424   3.885   2.353  0.1420 -0.6849  0.6557
   53MOL   H12916873   7.307   3.753   2.327  1.5439 -0.2770 -0.8538
   53MOL   C13016874   7.459   3.517   1.957 -0.5486 -0.4153  0.1793
   53MOL   C13116875   7.391   3.513   1.816 -0.1968  0.7828 -0.2398
   53MOL   C13216876   7.495   3.504   1.700 -0.2971 -0.1553  0.1405
   53MOL   O13316877   7.540   3.612   1.666 -0.3446 -0.0250  0.1935
   53MOL   N13416878   7.538   3.389   1.641  0.2763 -0.8676 -0.1214
   53MOL   C13516879   7.653   3.393   1.549  0.8971 -0.0649  0.6201
   53MOL   C13616880   7.481   3.257   1.672 -0.3326  0.0614  0.3594
   53MOL   H13716881   7.521   3.427   1.962 -1.6425 -1.2383 -0.7586
   53MOL   H13816882   7.394   3.491   2.041 -1.9107  1.7776 -0.1597
   53MOL   H13916883   7.334   3.420   1.812 -1.1849  1.3753 -0.2304
   53MOL   H14016884   7.654   3.313   1.475  1.0935  0.1479  0.3932
   53MOL   H14116885   7.656   3.484   1.490 -2.0425 -1.4771 -1.8187
   53MOL   H14216886   7.737   3.390   1.619  2.4476  0.9114 -1.1602
   53MOL   H14316887   7.519   3.169   1.622 -0.2413 -1.8763  3.6842
   53MOL   H14416888   7.379   3.275   1.637  0.6418  1.1712 -1.9816
   53MOL   H14516889   7.489   3.244   1.780  1.7104  2.5282  0.5369
   53MOL   C14616890   7.300   3.631   1.800 -0.1026 -0.2651  0.6938
   53MOL   C14716891   7.170   3.606   1.722 -0.1325  0.2510 -0.3859
   53MOL   C14816892   7.194   3.562   1.577 -0.0562  0.1223  0.1474
   53MOL   O14916893   7.274   3.628   1.516 -0.1243 -0.1095  0.3731
   53MOL   N15016894   7.134   3.451   1.523 -0.4949  0.2230 -0.3284
   53MOL   C15116895   7.013   3.385   1.582  0.7347 -0.4717  0.1468
   53MOL   C15216896   7.194   3.390   1.409  0.1075 -0.1426  0.2931
   53MOL   H15316897   7.255   3.657   1.896 -1.3942 -0.6786  0.2207
   53MOL   H15416898   7.355   3.721   1.773 -0.5929 -0.2659 -0.3690
   53MOL   H15516899   7.130   3.523   1.780  1.9410 -1.0953 -0.8448
   53MOL   H15616900   6.944   3.348   1.507  0.7644  0.5167 -0.3723
   53MOL   H15716901   7.036   3.299   1.646 -1.9641 -0.4446  1.2027
   53MOL   H15816902   6.962   3.460   1.643 -0.4155  0.4245 -1.8701
   53MOL   H15916903   7.195   3.463   1.328  2.1007 -1.0993 -0.5674
   53MOL   H16016904   7.125   3.311   1.378 -0.9254  1.0898 -0.6202
   53MOL   H16116905   7.295   3.350   1.418  0.3182  0.2485 -0.3221
   53MOL   C16216906   7.068   3.727   1.725 -0.1365 -0.0680 -0.0379
   53MOL   C16316907   7.098   3.853   1.635  0.2476  0.8895 -0.3755
   53MOL   C16416908   7.073   3.991   1.717  0.1539  0.4568 -0.1156
   53MOL   O16516909   6.962   3.997   1.775  0.1160 -0.3571 -0.1455
   53MOL   N16616910   7.164   4.092   1.722  0.6632  0.0458  0.3611
   53MOL   C16716911   7.300   4.077   1.681  0.0218  0.3140 -0.1688
   53MOL   C16816912   7.132   4.220   1.784 -0.5332  0.2478 -0.1476
   53MOL   H16916913   6.964   3.697   1.716 -0.6703  2.0375 -1.5349
   53MOL   H17016914   7.078   3.765   1.826 -0.2873  2.0569 -0.7855
   53MOL   H17116915   7.202   3.850   1.602  0.3954  0.8783  0.0871
   53MOL   H17216916   7.342   3.984   1.718  0.5464 -0.2843 -2.2245
   53MOL   H17316917   7.298   4.081   1.572 -2.6159 -5.2236 -0.4831
   53MOL   H17416918   7.368   4.155   1.715 -0.8365  0.4285  1.3531
   53MOL   H17516919   7.098   4.190   1.883 -1.4744 -1.9003 -1.0749
   53MOL   H17616920   7.053   4.275   1.733 -1.2305  0.5630  1.2563
   53MOL   H17716921   7.216   4.289   1.791 -0.9992  0.7709  0.3025
   53MOL   C17816922   7.018   3.857   1.507  0.0983  0.6910  0.5129
   53MOL   C17916923   7.052   3.962   1.399 -0.1351 -0.8879 -0.1639
   53MOL   C18016924   6.947   4.079   1.393  0.1170  0.2413  0.9606
   53MOL   O18116925   6.823   4.055   1.402 -0.6199  0.6184  0.6726
   53MOL   N18216926   6.993   4.208   1.388  0.3352  0.5696 -0.4222
   53MOL   C18316927   6.903   4.315   1.431  0.4819 -0.7793  0.4405
   53MOL   C18416928   7.120   4.247   1.331 -0.5617 -0.3377 -0.5644
   53MOL   H18516929   7.019   3.758   1.460  0.1936 -0.0345  2.0031
   53MOL   H18616930   6.912   3.856   1.530  0.3911  0.8921  1.9157
   53MOL   H18716931   7.145   4.006   1.437 -1.3953  0.0136  1.9595
   53MOL   H18816932   6.964   4.402   1.458  0.6529 -1.2220  1.5389
   53MOL   H18916933   6.828   4.330   1.354  1.0341 -1.1029 -0.1636
   53MOL   H19016934   6.845   4.288   1.520  0.2701  0.9178  0.8514
   53MOL   H19116935   7.120   4.333   1.264  0.0458 -1.2998 -1.8194
   53MOL   H19216936   7.152   4.176   1.254 -0.0678 -2.1181  1.2387
   53MOL   H19316937   7.202   4.251   1.403  1.5607 -0.1577 -2.8968
   53MOL   C19416938   7.084   3.900   1.264  0.1082  0.3170  0.4592
   53MOL   C19516939   6.967   3.854   1.174  0.6726  0.3695 -0.5942
   53MOL   C19616940   6.914   3.724   1.237 -0.0597 -0.1404 -0.0384
   53MOL   O19716941   6.985   3.622   1.240  0.0899 -0.0376 -0.1174
   53MOL   N19816942   6.789   3.713   1.281  0.1548  0.1355  0.0098
   53MOL   C19916943   6.756   3.606   1.378 -0.5302 -0.7776  0.3260
   53MOL   C20016944   6.673   3.794   1.224 -0.0435 -0.2083 -0.4053
   53MOL   H20116945   7.126   3.982   1.206 -0.9698  0.4872 -0.0908
   53MOL   H20216946   7.162   3.828   1.289 -0.5662 -0.6966 -0.3168
   53MOL   H20316947   6.883   3.924   1.173 -0.6524 -1.0093  3.8572
   53MOL   H20416948   6.830   3.600   1.458  0.0110  2.5415  0.1433
   53MOL   H20516949   6.659   3.606   1.428 -0.5249 -1.9644  0.3496
   53MOL   H20616950   6.749   3.510   1.326 -2.2839 -1.3313  1.5275
   53MOL   H20716951   6.683   3.838   1.125 -1.4057  2.4512  0.6152
   53MOL   H20816952   6.656   3.867   1.303 -1.6604 -0.2408 -0.7211
   53MOL   H20916953   6.585   3.730   1.215  0.8708 -1.3194 -1.6739
   53MOL   C21016954   7.001   3.828   1.025  0.6024 -0.6071 -0.1674
   53MOL   C21116955   7.069   3.930   0.938  0.3935 -0.2862 -0.3925
   53MOL   C21216956   7.017   4.076   0.963  0.0977  0.4955  0.2926
   53MOL   O21316957   6.899   4.093   0.975 -0.0742 -0.3143  0.1216
   53MOL   N21416958   7.104   4.179   0.953  0.0337  0.3028 -0.8514
   53MOL   C21516959   7.065   4.318   0.993 -0.7652  0.5946 -0.2881
   53MOL   C21616960   7.238   4.164   0.895 -0.3524 -0.6045 -0.9597
   53MOL   H21716961   7.066   3.741   1.015  2.5914  0.7511  0.7354
   53MOL   H21816962   6.907   3.805   0.973  0.2605 -0.9495  0.5984
   53MOL   H21916963   7.169   3.920   0.982  0.3509  1.8084  0.2380
   53MOL   H22016964   7.150   4.376   1.028  0.1694  0.5739 -2.4327
   53MOL   H22116965   7.020   4.369   0.908 -0.6409  0.8431 -0.2053
   53MOL   H22216966   6.985   4.313   1.067 -0.8469 -2.7347 -0.5366
   53MOL   H22316967   7.289   4.085   0.950 -0.4929  0.3925  0.6273
   53MOL   H22416968   7.311   4.245   0.901  0.5052 -1.4744  0.7107
   53MOL   H22516969   7.247   4.133   0.791  0.2715 -0.5891 -0.9159
   53MOL   C22616970   7.083   3.880   0.794 -0.7495 -0.1687  0.5316
   53MOL   C22716971   6.960   3.909   0.695 -0.1718  0.5678  0.4571
   53MOL   C22816972   6.833   3.824   0.715  0.4667  0.0271  0.3507
   53MOL   O22916973   6.842   3.709   0.748  0.9029  0.2496  0.4668
   53MOL   N23016974   6.706   3.876   0.718 -0.8529  0.3078  0.1039
   53MOL   C23116975   6.669   4.012   0.667  0.0651  0.1032  0.1892
   53MOL   C23216976   6.593   3.796   0.762 -0.0036 -0.5393  0.1675
   53MOL   H23316977   7.167   3.935   0.751 -1.8254  0.3013 -0.9689
   53MOL   H23416978   7.129   3.782   0.782  0.6320  0.3813  1.1468
   53MOL   H23516979   6.937   4.015   0.686  0.3968  0.5377 -1.7830
   53MOL   H23616980   6.689   4.011   0.560  1.4386 -0.0098  0.4296
   53MOL   H23716981   6.563   4.034   0.678  0.3990  0.7479  2.3949
   53MOL   H23816982   6.725   4.095   0.711  0.0765  1.3157 -2.0401
   53MOL   H23916983   6.595   3.701   0.709 -0.8037  0.1375 -1.0877
   53MOL   H24016984   6.493   3.829   0.735  0.6118  0.5861 -0.7337
   53MOL   H24116985   6.607   3.774   0.868 -0.1014 -2.3392 -0.1620
   53MOL   C24216986   7.014   3.881   0.550  0.2173  0.3266 -0.1579
   53MOL   C24316987   7.069   3.997   0.466  0.7653 -0.5945  0.0887
   53MOL   C24416988   6.960   4.097   0.425  0.2613  0.3301  0.2066
   53MOL   O24516989   6.867   4.051   0.353 -0.3814 -0.3709 -0.8209
   53MOL   N24616990   6.956   4.227   0.472  0.2816  0.1061  0.1628
   53MOL   C24716991   7.055   4.288   0.560  0.0228 -0.4268 -0.1944
   53MOL   C24816992   6.848   4.316   0.428  0.0803 -0.1270  0.0134
   53MOL   H24916993   7.083   3.796   0.558  0.0485  0.0694 -1.2979
   53MOL   H25016994   6.938   3.827   0.493 -0.3665 -1.0654  1.9029
   53MOL   H25116995   7.139   4.049   0.532 -0.7513  1.4956  0.0813
   53MOL   H25216996   7.026   4.291   0.666  0.5694 -2.1979  0.0253
   53MOL   H25316997   7.160   4.261   0.559  0.5424  1.4820  1.0157
   53MOL   H25416998   7.060   4.393   0.532  1.1833 -1.3453 -3.6578
   53MOL   H25516999   6.850   4.335   0.320  0.1700  0.6734  0.1531
   53MOL   H25617000   6.869   4.413   0.472 -0.3973  0.7822 -1.7197
   53MOL   H25717001   6.754   4.281   0.471  0.7116 -1.2102  0.5464
   53MOL   C25817002   7.140   3.941   0.334 -0.5268 -0.5647 -0.3318
   53MOL   C25917003   7.230   4.021   0.230 -0.2127  0.0508  0.1994
   53MOL   C26017004   7.349   4.104   0.285 -0.6151  0.3202 -0.6214
   53MOL   O26117005   7.319   4.174   0.384  0.2319  0.0534  0.3189
   53MOL   N26217006   7.475   4.099   0.231 -0.3408 -0.2551 -1.0880
   53MOL   C26317007   7.513   4.018   0.119 -0.0036 -0.3478 -0.5999
   53MOL   C26417008   7.587   4.156   0.308 -0.0155  0.6906  0.2567
   53MOL   H26517009   7.190   3.850   0.368  1.0995  0.7158  0.7876
   53MOL   H26617010   7.054   3.892   0.287 -0.7388 -1.1055  0.5891
   53MOL   H26717011   7.281   3.951   0.164 -0.1122  0.6400 -0.3568
   53MOL   H26817012   7.511   3.922   0.169  0.8399  0.6253  1.3211
   53MOL   H26917013   7.448   4.024   0.031 -1.0348  0.0890  0.1854
   53MOL   H27017014   7.612   4.034   0.077  0.2973 -2.1487 -0.5746
   53MOL   H27117015   7.678   4.097   0.303  0.2239  1.1683 -1.1675
   53MOL   H27217016   7.545   4.172   0.407  0.5203 -1.1053  0.8083
   53MOL   H27317017   7.615   4.258   0.283  0.7190 -0.3326 -3.3846
   53MOL   C27417018   7.136   4.117   0.139  0.4190  0.3926  0.0115
   53MOL   C27517019   7.059   4.053   0.016 -0.3805 -0.0190  0.5437
   53MOL   C27617020   7.161   4.001   7.768  0.6427 -0.8076 -0.6292
   53MOL   O27717021   7.225   4.086   7.704  0.3936 -0.2578 -0.5047
   53MOL   N27817022   7.186   3.868   7.759 -0.1505 -0.7939  0.4766
   53MOL   C27917023   7.112   3.757   7.830  0.1256 -0.0929  0.1273
   53MOL   C28017024   7.291   3.821   7.666 -0.8719 -0.5230  0.3460
   53MOL   H28117025   7.065   4.179   0.193  0.1305  1.0616 -1.1136
   53MOL   H28217026   7.202   4.190   0.091  0.6323  0.4774  0.4358
   53MOL   H28317027   7.003   3.969   0.059  1.8752 -1.5667  0.5231
   53MOL   H28417028   7.007   3.786   7.836  0.4251  0.9301  0.5528
   53MOL   H28517029   7.120   3.661   7.779 -2.2041  0.9673 -2.3929
   53MOL   H28617030   7.158   3.740   0.074  0.1332 -3.3555 -0.4000
   53MOL   H28717031   7.267   3.718   7.639 -0.3276 -0.4245 -0.5177
   53MOL   H28817032   7.388   3.820   7.715 -0.7246 -1.3148  0.0464
   53MOL   H28917033   7.289   3.882   7.576  0.3610  0.8311  1.2189
   53MOL   C29017034   6.953   4.145   7.801  1.1084  0.2276 -0.3842
   53MOL   C29117035   6.879   4.078   7.683  0.1313  0.4946 -0.3175
   53MOL   C29217036   6.940   4.128   7.546  0.2023 -0.1985 -0.4513
   53MOL   O29317037   6.975   4.246   7.543 -0.4919  0.5747 -0.3808
   53MOL   N29417038   6.976   4.044   7.445 -0.2804 -0.0576  0.5801
   53MOL   C29517039   6.987   3.897   7.441 -0.0727 -0.4518  0.4273
   53MOL   C29617040   7.030   4.107   7.321  0.1021 -0.3085  0.5121
   53MOL   H29717041   6.888   4.189   0.023 -1.7867 -0.9300 -2.1248
   53MOL   H29817042   7.005   4.236   7.772 -0.0589  1.4275  1.2055
   53MOL   H29917043   6.892   3.970   7.688  1.8897  0.7198  0.4502
   53MOL   H30017044   7.047   3.864   7.356 -2.2080  0.7279 -1.6170
   53MOL   H30117045   7.030   3.846   7.527  0.3520 -2.1976 -0.7993
   53MOL   H30217046   6.886   3.860   7.426  0.4082 -1.7903  0.4625
   53MOL   H30317047   7.129   4.146   7.346 -1.5766  2.1644  3.7756
   53MOL   H30417048   6.968   4.192   7.294  0.6965 -0.1417 -0.3515
   53MOL   H30517049   7.047   4.045   7.234  1.2242 -0.2182  0.6516
   53MOL   C30617050   6.726   4.112   7.684  0.3608 -0.4026  0.8386
   53MOL   C30717051   6.642   4.068   7.812 -0.0863 -0.5297  0.1178
   53MOL   C30817052   6.618   3.916   7.823 -0.2573 -0.1198 -0.9946
   53MOL   O30917053   6.655   3.843   7.733 -0.1040  0.4025 -0.1919
   53MOL   N31017054   6.558   3.861   0.079  0.0071  0.3309 -0.4122
   53MOL   C31117055   6.502   3.938   0.185  0.5491  0.4993 -0.2387
   53MOL   C31217056   6.540   3.717   0.093 -0.5661 -0.6417 -0.3209
   53MOL   H31317057   6.714   4.220   7.685 -0.4195 -0.4435 -1.6103
   53MOL   H31417058   6.686   4.062   7.596 -0.0363  0.3369  0.5927
   53MOL   H31517059   6.704   4.089   0.046 -1.2771  2.3173  0.3246
   53MOL   H31617060   6.582   3.964   0.256  1.6461 -0.8829 -0.9363
   53MOL   H31717061   6.444   4.025   0.155 -0.9150 -0.6501 -0.7901
   53MOL   H31817062   6.413   3.889   0.225  0.2490  1.0389 -0.2436
   53MOL   H31917063   6.531   3.689   0.198  1.4826  1.4093  0.4460
   53MOL   H32017064   6.626   3.661   0.055  1.0800  0.2394  2.0080
   53MOL   H32117065   6.458   3.693   0.025 -0.0783  0.2501 -1.2333
   53MOL   H32217066   6.550   4.127   7.809  0.1198 -0.2506 -1.2686
   54MOL     C117067   3.605   7.297   6.639 -0.4611  0.3550  0.5280
   54MOL     C217068   3.704   7.364   6.740 -0.0689  0.1285 -0.9295
   54MOL     C317069   3.662   7.308   6.878  0.5389 -0.5271  0.9020
   54MOL     O417070   3.538   7.305   6.903 -0.8994  0.8655 -0.6409
   54MOL     N517071   3.753   7.257   6.962 -0.4330  0.5971  0.3055
   54MOL     C617072   3.901   7.279   6.955  0.6310  0.1139 -0.3079
   54MOL     C717073   3.707   7.174   7.075 -0.1110 -0.2218  0.7215
   54MOL     H817074   3.502   7.331   6.649 -1.8450 -1.9336 -4.0761
   54MOL     H917075   3.603   7.192   6.666 -1.7596 -0.1921 -1.5538
   54MOL    H1017076   3.807   7.336   6.720  0.2785 -0.4262  1.5391
   54MOL    H1117077   3.942   7.240   6.863 -1.7815 -1.3754 -0.8038
   54MOL    H1217078   3.932   7.384   6.951 -0.7395  0.4673 -2.0463
   54MOL    H1317079   3.943   7.235   7.046 -1.1580 -2.2028 -0.5475
   54MOL    H1417080   3.680   7.235   7.161  0.8642  0.4590  0.5520
   54MOL    H1517081   3.770   7.087   7.097 -1.4031 -1.3125  0.2203
   54MOL    H1617082   3.612   7.126   7.052 -0.1824 -0.0422  0.6461
   54MOL    H1717083   3.629   7.305   6.532 -0.6181 -2.2316  0.2733
   54MOL    C1817084   3.687   7.516   6.734 -0.2344  0.0366  0.3555
   54MOL    C1917085   3.779   7.584   6.639 -0.2648 -0.9055  0.1974
   54MOL    C2017086   3.920   7.588   6.687 -0.1717 -1.3290 -0.0136
   54MOL    O2117087   3.937   7.621   6.804  0.0920 -0.0001 -0.6084
   54MOL    N2217088   4.022   7.560   6.604 -0.2111  0.4752 -0.3187
   54MOL    C2317089   4.160   7.537   6.651 -0.6240  0.7346 -0.0851
   54MOL    C2417090   4.024   7.568   6.462 -0.8777 -0.0541 -0.1842
   54MOL    H2517091   3.585   7.528   6.698 -0.5035 -1.8917  0.4076
   54MOL    H2617092   3.696   7.558   6.834 -2.9986 -0.8519  1.0101
   54MOL    H2717093   3.776   7.528   6.545 -4.3131  0.5485 -0.6542
   54MOL    H2817094   4.216   7.630   6.660  0.3584  0.1444 -0.0976
   54MOL    H2917095   4.164   7.477   6.742  0.5615  2.3117  0.9446
   54MOL    H3017096   4.219   7.480   6.580  0.9518  1.1224  0.8960
   54MOL    H3117097   3.954   7.644   6.427 -0.2846  0.7598  0.3975
   54MOL    H3217098   4.000   7.471   6.419 -1.3839 -0.1977  0.4066
   54MOL    H3317099   4.122   7.600   6.429  0.0056 -0.0719  2.3532
   54MOL    C3417100   3.743   7.723   6.598  0.1414 -0.9374 -0.3395
   54MOL    C3517101   3.628   7.745   6.499  0.6466 -0.0901 -0.3562
   54MOL    C3617102   3.642   7.679   6.360  0.6630 -1.0616  0.4825
   54MOL    O3717103   3.736   7.707   6.293  0.4713 -0.2854  0.5991
   54MOL    N3817104   3.538   7.590   6.322  0.3632 -0.0586  0.3908
   54MOL    C3917105   3.424   7.548   6.406  0.3388 -0.4780 -0.1241
   54MOL    C4017106   3.526   7.551   6.188 -0.0884  0.9318 -0.3086
   54MOL    H4117107   3.745   7.788   6.685 -1.9490  0.9231 -1.6112
   54MOL    H4217108   3.825   7.777   6.550  1.1399 -0.3745  1.9450
   54MOL    H4317109   3.552   7.695   6.558  1.2735 -1.8183 -0.9714
   54MOL    H4417110   3.345   7.624   6.404 -0.4149 -1.2616 -0.3157
   54MOL    H4517111   3.372   7.460   6.368  0.2351 -1.4619  2.1996
   54MOL    H4617112   3.462   7.535   6.508 -1.1194 -0.1881  0.4669
   54MOL    H4717113   3.470   7.460   6.170  0.0090  0.4953  1.5370
   54MOL    H4817114   3.617   7.543   6.129 -0.7201  2.5512 -1.5605
   54MOL    H4917115   3.469   7.624   6.130  0.4623  1.5935 -0.0227
   54MOL    C5017116   3.594   0.044   6.478  0.4549 -0.0283  0.1386
   54MOL    C5117117   3.516   0.112   6.593  0.1054 -0.1231 -0.9947
   54MOL    C5217118   3.365   0.072   6.594 -0.1756 -1.0196 -0.6016
   54MOL    O5317119   3.299   0.091   6.489 -0.2537  0.6891  0.2048
   54MOL    N5417120   3.303   0.012   6.699 -0.0416 -0.3011  0.6114
   54MOL    C5517121   3.163   0.005   6.715  0.2319  0.0951 -0.2287
   54MOL    C5617122   3.380   7.807   6.809 -0.0774 -0.4632 -0.3375
   54MOL    H5717123   3.694   0.085   6.462  0.4865  0.5639  1.7999
   54MOL    H5817124   3.532   0.061   6.390  0.2578  2.5076  0.7314
   54MOL    H5917125   3.560   0.087   6.689  1.4201 -0.4756 -1.6763
   54MOL    H6017126   3.125   0.055   6.804  0.6979  0.3036 -0.1451
   54MOL    H6117127   3.108   0.051   6.633  0.3132 -1.3317 -1.1107
   54MOL    H6217128   3.131   7.754   6.713  1.0115 -0.1565  0.1692
   54MOL    H6317129   3.482   7.773   6.789  0.3560 -0.1410  1.1753
   54MOL    H6417130   3.349   7.716   6.861  2.1428 -0.4824  1.0248
   54MOL    H6517131   3.390   0.027   6.890 -1.5733  0.3575 -0.8911
   54MOL    C6617132   3.526   0.261   6.580  0.2359 -0.2564 -0.4475
   54MOL    C6717133   3.664   0.318   6.624 -0.2229  0.5126 -0.2757
   54MOL    C6817134   3.703   0.305   6.774 -0.1993  0.1563  0.5341
   54MOL    O6917135   3.618   0.345   6.853 -0.5942 -0.3258  0.0038
   54MOL    N7017136   3.822   0.251   6.819 -0.1552  0.9259 -0.0663
   54MOL    C7117137   3.842   0.218   6.965 -0.1232 -1.3116 -0.1182
   54MOL    C7217138   3.935   0.206   6.735 -0.2260 -0.2210  0.6363
   54MOL    H7317139   3.506   0.293   6.478  1.2966 -0.4062 -0.7102
   54MOL    H7417140   3.451   0.309   6.644  0.3394  0.7479 -1.0644
   54MOL    H7517141   3.738   0.261   6.569  3.7419  2.4530  2.7229
   54MOL    H7617142   3.871   0.113   6.967 -0.3331 -1.3630  1.4686
   54MOL    H7717143   3.929   0.273   7.001  1.1176 -3.7789  0.7966
   54MOL    H7817144   3.759   0.239   7.032  0.1507  1.3086 -0.5394
   54MOL    H7917145   4.025   0.257   6.767 -0.5838 -0.0925  1.4597
   54MOL    H8017146   3.922   0.220   6.627 -0.2506 -1.0216  0.5286
   54MOL    H8117147   3.943   0.097   6.740 -0.7609 -0.2312  1.2737
   54MOL    C8217148   3.676   0.463   6.579 -0.3250 -0.4078 -0.2591
   54MOL    C8317149   3.719   0.497   6.429  0.2379  0.0276  0.3565
   54MOL    C8417150   3.825   0.406   6.354 -0.2943 -0.2095  0.1100
   54MOL    O8517151   3.923   0.364   6.421  0.3817 -0.5458  0.6653
   54MOL    N8617152   3.794   0.350   6.234 -0.2764  0.6609 -0.2285
   54MOL    C8717153   3.869   0.230   6.189 -0.0309  0.0144 -0.2882
   54MOL    C8817154   3.675   0.393   6.156 -0.0368  0.2492  0.5507
   54MOL    H8917155   3.585   0.518   6.600 -0.5512 -1.5980  2.0283
   54MOL    H9017156   3.752   0.510   6.641 -0.9496  1.6216 -1.0075
   54MOL    H9117157   3.628   0.476   6.373  1.1847 -0.9323 -0.8804
   54MOL    H9217158   3.797   0.148   6.186 -0.2526  0.2149 -0.4472
   54MOL    H9317159   3.898   0.247   6.085  0.1104 -1.5285 -0.5189
   54MOL    H9417160   3.956   0.195   6.244  0.9679 -0.4775 -2.1282
   54MOL    H9517161   3.574   0.366   6.189  0.7942 -0.0807  2.9048
   54MOL    H9617162   3.682   0.356   6.054 -1.9180  2.9697 -0.6497
   54MOL    H9717163   3.668   0.502   6.144  1.3205  0.0860 -1.9079
   54MOL    C9817164   3.748   0.650   6.424  0.3057 -0.0710 -0.0072
   54MOL    C9917165   3.618   0.735   6.436 -0.2070 -0.4408  0.8585
   54MOL   C10017166   3.555   0.735   6.292  0.9414 -0.5367  0.1799
   54MOL   O10117167   3.623   0.791   6.204  0.9003  0.7806 -0.2223
   54MOL   N10217168   3.438   0.672   6.270 -0.6795  0.1021 -0.3051
   54MOL   C10317169   3.359   0.607   6.371 -0.0957 -0.1591  0.7839
   54MOL   C10417170   3.372   0.686   6.143  0.4522 -0.0379 -0.1044
   54MOL   H10517171   3.813   0.685   6.505 -0.1281  0.3998  0.1437
   54MOL   H10617172   3.806   0.665   6.333  1.6888 -0.7377  0.7531
   54MOL   H10717173   3.551   0.699   6.514  1.7308  1.9618  3.7877
   54MOL   H10817174   3.258   0.598   6.331 -0.4026  1.8401  1.0772
   54MOL   H10917175   3.395   0.509   6.403 -1.4237 -0.8056  0.3522
   54MOL   H11017176   3.351   0.669   6.460  1.9226 -0.9879  1.5626
   54MOL   H11117177   3.442   0.720   6.066 -0.3250  2.5644  0.2982
   54MOL   H11217178   3.288   0.755   6.140 -0.4003 -1.0310  0.6232
   54MOL   H11317179   3.348   0.581   6.122  1.9953 -0.6367  0.9877
   54MOL   C11417180   3.648   0.884   6.480 -0.8005 -0.5336  0.0921
   54MOL   C11517181   3.535   0.979   6.525  0.8688 -0.5876  0.1612
   54MOL   C11617182   3.457   0.923   6.652  0.5538  0.1617  0.2624
   54MOL   O11717183   3.359   0.849   6.628  0.5302  0.2502  0.3639
   54MOL   N11817184   3.504   0.945   6.779  0.0539  0.7682  0.7604
   54MOL   C11917185   3.610   1.042   6.806 -0.1532  0.6824  0.2464
   54MOL   C12017186   3.462   0.870   6.898  0.0254  0.1416 -0.5101
   54MOL   H12117187   3.717   0.868   6.562 -1.8500 -1.2354  0.8592
   54MOL   H12217188   3.710   0.929   6.403 -1.0622 -2.9697 -1.6063
   54MOL   H12317189   3.587   1.071   6.550  2.5877 -1.9622  1.8856
   54MOL   H12417190   3.691   1.052   6.733  0.9315 -0.7772  1.2116
   54MOL   H12517191   3.568   1.140   6.825  2.1434  1.4472  1.6889
   54MOL   H12617192   3.656   1.011   6.900 -0.4095  0.8353  0.4194
   54MOL   H12717193   3.355   0.852   6.882  0.0014  0.3210 -0.5620
   54MOL   H12817194   3.466   0.934   6.987 -1.8956 -0.5793  0.1278
   54MOL   H12917195   3.508   0.772   6.911 -0.9698 -0.3375 -0.5624
   54MOL   C13017196   3.442   1.016   6.411  0.4442 -0.3298 -0.1377
   54MOL   C13117197   3.339   1.134   6.414 -0.4936  0.1651  0.3396
   54MOL   C13217198   3.401   1.259   6.486  0.7387  0.3251  0.8391
   54MOL   O13317199   3.405   1.252   6.607  0.2443  0.0040 -0.2548
   54MOL   N13417200   3.429   1.374   6.418 -0.6929 -0.3338  0.0315
   54MOL   C13517201   3.448   1.381   6.273  0.3075  0.5225  0.2496
   54MOL   C13617202   3.494   1.475   6.491  1.2786  0.2800 -0.3327
   54MOL   H13717203   3.505   1.038   6.324  0.5520  1.7849  0.4674
   54MOL   H13817204   3.395   0.926   6.372 -0.3016  0.5259 -1.2272
   54MOL   H13917205   3.307   1.153   6.311  1.2583 -4.2540 -1.1503
   54MOL   H14017206   3.472   1.280   6.239 -0.9106  0.5535 -0.7165
   54MOL   H14117207   3.354   1.419   6.233 -0.9204  0.9003  3.3929
   54MOL   H14217208   3.530   1.441   6.233  1.2558 -0.3488  0.8628
   54MOL   H14317209   3.514   1.554   6.419  0.3275  1.0400  0.2209
   54MOL   H14417210   3.590   1.442   6.531 -0.4539 -2.1125  2.0503
   54MOL   H14517211   3.440   1.521   6.574 -0.0614  2.6033 -2.4203
   54MOL   C14617212   3.204   1.083   6.484  0.1298  0.1010 -0.2323
   54MOL   C14717213   3.079   1.184   6.488 -0.2100 -0.1143  0.6513
   54MOL   C14817214   3.051   1.242   6.628 -0.6069 -0.6059 -0.0226
   54MOL   O14917215   3.034   1.158   6.718 -0.4648 -0.3729  0.0402
   54MOL   N15017216   3.053   1.374   6.655 -0.0171 -0.2396 -0.2428
   54MOL   C15117217   3.025   1.429   6.788  0.4374 -0.1462  0.1311
   54MOL   C15217218   3.059   1.480   6.555  0.8347  0.0966 -0.0214
   54MOL   H15317219   3.174   0.997   6.426 -0.4029  0.9541 -1.2415
   54MOL   H15417220   3.211   1.052   6.589  0.7759 -1.5660 -0.7552
   54MOL   H15517221   3.116   1.262   6.422 -0.0251 -0.0059  0.8816
   54MOL   H15617222   3.031   1.538   6.790 -1.4051 -0.0379  0.7325
   54MOL   H15717223   2.928   1.395   6.826 -0.0634 -0.0690 -1.0503
   54MOL   H15817224   3.097   1.390   6.860  3.0703  0.2751 -2.1989
   54MOL   H15917225   3.151   1.533   6.579  1.3808 -1.0269  0.4514
   54MOL   H16017226   2.974   1.548   6.551 -0.0619 -0.7088  3.1964
   54MOL   H16117227   3.089   1.454   6.454  0.8965 -0.4803  0.1428
   54MOL   C16217228   2.954   1.142   6.415  0.5569  0.2025 -0.1526
   54MOL   C16317229   2.876   1.019   6.478  0.0666 -0.2103 -1.0297
   54MOL   C16417230   2.855   0.913   6.372  1.0751 -0.3040  0.7821
   54MOL   O16517231   2.773   0.939   6.281  0.2501  0.1139  0.2795
   54MOL   N16617232   2.910   0.790   6.381  0.2249  0.5220  0.2471
   54MOL   C16717233   2.869   0.672   6.299  0.6100 -0.4753 -0.8160
   54MOL   C16817234   3.002   0.759   6.487 -0.1068 -0.0337 -0.1932
   54MOL   H16917235   2.884   1.224   6.404 -1.2032 -1.5653 -2.7925
   54MOL   H17017236   2.977   1.112   6.313 -2.0804  0.1701 -0.7589
   54MOL   H17117237   2.924   0.990   6.571 -0.1631  0.5428 -0.6693
   54MOL   H17217238   2.763   0.683   6.279  0.7672  0.2651 -1.2973
   54MOL   H17317239   2.937   0.666   6.213  2.7954  1.1609  0.7310
   54MOL   H17417240   2.867   0.584   6.362 -2.5206 -0.2789 -0.5791
   54MOL   H17517241   2.962   0.765   6.588 -2.5568  1.0945 -1.2082
   54MOL   H17617242   3.085   0.829   6.497  0.3732 -0.5308 -0.6235
   54MOL   H17717243   3.044   0.658   6.482  0.4269  0.1184  1.0451
   54MOL   C17817244   2.737   1.064   6.531  0.5319  0.1077 -0.0343
   54MOL   C17917245   2.631   0.957   6.586  0.1284  0.2021 -0.6332
   54MOL   C18017246   2.504   1.033   6.630 -0.2808 -0.2538  0.3025
   54MOL   O18117247   2.520   1.114   6.720  0.0104 -0.1850 -0.2654
   54MOL   N18217248   2.383   1.006   6.582 -0.0377  0.2387  0.2690
   54MOL   C18317249   2.344   0.902   6.487 -0.0573 -0.7432  0.2272
   54MOL   C18417250   2.266   1.071   6.639  0.2896 -0.7625  0.0308
   54MOL   H18517251   2.751   1.143   6.605 -1.0003 -0.4814  0.9055
   54MOL   H18617252   2.677   1.114   6.455 -0.5217 -1.1319 -0.0401
   54MOL   H18717253   2.600   0.881   6.514  2.0769 -0.4049 -0.8782
   54MOL   H18817254   2.365   0.809   6.540  0.4880 -0.5504  0.3536
   54MOL   H18917255   2.236   0.911   6.480 -0.4940 -3.5469  2.5271
   54MOL   H19017256   2.392   0.914   6.389 -1.4977 -2.6374 -0.7532
   54MOL   H19117257   2.207   0.997   6.694 -0.9148  0.9567  1.1171
   54MOL   H19217258   2.200   1.118   6.566  2.0875 -0.2191 -1.2802
   54MOL   H19317259   2.292   1.146   6.714  1.7320 -0.2306 -0.9811
   54MOL   C19417260   2.690   0.876   6.703  0.3728  0.1763 -0.7265
   54MOL   C19517261   2.624   0.730   6.730 -1.3316 -0.1365  0.6275
   54MOL   C19617262   2.653   0.689   6.877  0.0836 -0.4308 -0.7460
   54MOL   O19717263   2.768   0.656   6.914  0.0790  0.4862  0.0278
   54MOL   N19817264   2.547   0.673   6.963  0.3816 -0.3168 -0.6268
   54MOL   C19917265   2.563   0.604   7.093  0.6553 -0.1590 -0.3187
   54MOL   C20017266   2.406   0.714   6.934 -0.0963 -0.3481  0.2207
   54MOL   H20117267   2.798   0.867   6.710  0.2935 -0.2082  0.0101
   54MOL   H20217268   2.662   0.933   6.791 -0.4012 -0.8271 -0.3116
   54MOL   H20317269   2.516   0.728   6.710 -1.4601 -1.2040  1.4207
   54MOL   H20417270   2.542   0.674   7.174  0.4630  0.4659 -0.9041
   54MOL   H20517271   2.495   0.519   7.083  2.5998 -1.9309  1.2021
   54MOL   H20617272   2.660   0.560   7.116  0.6831 -0.1835 -0.4782
   54MOL   H20717273   2.366   0.644   6.861  0.3811 -0.4345  0.0436
   54MOL   H20817274   2.403   0.819   6.902 -1.3427  0.1289  1.7726
   54MOL   H20917275   2.339   0.717   7.020 -1.8051 -1.6991 -1.0279
   54MOL   C21017276   2.690   0.632   6.634  0.0015  0.2980  0.1117
   54MOL   C21117277   2.633   0.491   6.603  0.5900 -0.4417 -0.0440
   54MOL   C21217278   2.480   0.493   6.597 -0.3903 -0.0155  0.2349
   54MOL   O21317279   2.424   0.464   6.698 -0.2094  0.1710 -0.3657
   54MOL   N21417280   2.420   0.541   6.494 -0.1810  0.2576 -0.4316
   54MOL   C21517281   2.495   0.558   6.366  0.3518  0.6018  0.1090
   54MOL   C21617282   2.275   0.551   6.495 -0.1795 -0.6189 -0.5544
   54MOL   H21717283   2.687   0.669   6.532 -1.0124  0.0622  0.0525
   54MOL   H21817284   2.798   0.622   6.647 -0.0240  1.8370  1.5297
   54MOL   H21917285   2.678   0.461   6.509 -0.9737 -2.3486 -0.2261
   54MOL   H22017286   2.541   0.470   6.322 -1.5462 -1.7088  2.5830
   54MOL   H22117287   2.419   0.586   6.292 -1.1260  0.3073  1.4991
   54MOL   H22217288   2.560   0.645   6.367  1.7035 -0.3585 -1.4398
   54MOL   H22317289   2.223   0.590   6.407 -1.4325  0.1139  0.4982
   54MOL   H22417290   2.257   0.615   6.581  0.4744  0.1200 -0.9511
   54MOL   H22517291   2.234   0.455   6.525  0.3679 -0.1939  1.6393
   54MOL   C22617292   2.680   0.383   6.701 -0.0208 -0.2139 -0.4443
   54MOL   C22717293   2.827   0.349   6.707  0.0462  0.7369 -0.0512
   54MOL   C22817294   2.870   0.289   6.567 -0.3204 -0.3526 -0.2158
   54MOL   O22917295   2.784   0.227   6.505  0.2202 -0.6772 -0.8145
   54MOL   N23017296   2.990   0.323   6.517 -0.2632  0.5703 -0.3792
   54MOL   C23117297   3.017   0.297   6.374 -0.5765  0.1172 -0.3823
   54MOL   C23217298   3.111   0.368   6.590 -0.3466 -0.1165 -0.0661
   54MOL   H23317299   2.645   0.407   6.802  0.3989 -0.9601 -0.1149
   54MOL   H23417300   2.625   0.297   6.663 -0.5365 -1.3924  2.8314
   54MOL   H23517301   2.889   0.438   6.719  0.2163  0.5496  0.5060
   54MOL   H23617302   3.097   0.224   6.363  1.3659  2.2738 -0.8860
   54MOL   H23717303   2.926   0.264   6.324 -0.0194 -1.1226 -0.5933
   54MOL   H23817304   3.050   0.389   6.325  0.1589  0.0815  0.0452
   54MOL   H23917305   3.195   0.314   6.547 -0.3310  1.7159 -2.5049
   54MOL   H24017306   3.110   0.345   6.696 -1.5891  2.3441  0.5011
   54MOL   H24117307   3.127   0.475   6.573  2.2497 -0.4121  0.2972
   54MOL   C24217308   2.857   0.258   6.831  0.3057  0.0625  0.2179
   54MOL   C24317309   2.925   0.327   6.958 -0.7831 -0.5877  0.1230
   54MOL   C24417310   3.081   0.322   6.976  0.1012  0.1908 -0.1618
   54MOL   O24517311   3.137   0.223   7.021  0.0220  0.3486 -0.4703
   54MOL   N24617312   3.163   0.425   6.932  1.0871  0.0852 -0.2730
   54MOL   C24717313   3.116   0.560   6.905 -0.0171  0.1372 -0.3313
   54MOL   C24817314   3.303   0.406   6.897  0.2779  0.2773 -0.2430
   54MOL   H24917315   2.761   0.225   6.871  0.9008 -0.1432  1.4835
   54MOL   H25017316   2.901   0.163   6.802  1.8150  0.6660  0.4776
   54MOL   H25117317   2.893   0.430   6.943 -1.3559 -0.7692  0.0556
   54MOL   H25217318   3.090   0.573   6.800 -1.2523  1.0695  0.0758
   54MOL   H25317319   3.026   0.590   6.959  1.5669 -0.0667  2.5002
   54MOL   H25417320   3.191   0.633   6.936  2.1378 -0.6393 -3.4569
   54MOL   H25517321   3.369   0.478   6.946  1.2606 -0.2384 -0.7848
   54MOL   H25617322   3.304   0.420   6.789 -0.2526 -3.0909 -0.7535
   54MOL   H25717323   3.341   0.305   6.914  2.8160  0.8287 -2.4397
   54MOL   C25817324   2.847   0.293   7.089 -0.3353 -0.5469 -0.6767
   54MOL   C25917325   2.867   0.151   7.160 -0.1110 -0.0906 -0.1714
   54MOL   C26017326   2.839   0.030   7.061 -0.6338 -0.6239 -0.2634
   54MOL   O26117327   2.731   0.039   7.004  0.3240  0.0254 -0.2455
   54MOL   N26217328   2.935   7.791   7.036  0.2241 -0.1518  0.3540
   54MOL   C26317329   3.069   7.765   7.088 -0.2705  0.2837  0.4653
   54MOL   C26417330   2.904   7.688   6.928 -0.5025  0.3784 -0.4582
   54MOL   H26517331   2.873   0.377   7.153  0.1407 -2.0968  1.2307
   54MOL   H26617332   2.741   0.309   7.073 -0.3462  0.5102  0.3909
   54MOL   H26717333   2.970   0.152   7.194 -0.7913  1.4537  1.9321
   54MOL   H26817334   3.063   7.800   7.191  4.0229  1.8140  0.3322
   54MOL   H26917335   3.107   7.663   7.082  1.9885  1.1195 -0.0031
   54MOL   H27017336   3.135   7.832   7.032  0.3387 -1.2113 -0.6485
   54MOL   H27117337   2.984   7.614   6.918 -1.0498 -0.3599  0.5019
   54MOL   H27217338   2.894   7.741   6.834 -1.0805  0.3389 -0.4156
   54MOL   H27317339   2.811   7.635   6.944 -0.5898 -0.1331 -2.5881
   54MOL   C27417340   2.772   0.153   7.283 -0.6493 -1.1244  0.5620
   54MOL   C27517341   2.793   0.039   7.389 -0.6630  0.1765 -0.3557
   54MOL   C27617342   2.766   7.751   7.341  0.4404  0.2965  0.6718
   54MOL   O27717343   2.858   7.673   7.313  0.0790  0.4853 -0.1041
   54MOL   N27817344   2.642   7.712   7.296 -0.6592  0.2282 -0.5763
   54MOL   C27917345   2.517   7.776   7.325 -0.6388 -0.0881 -0.9187
   54MOL   C28017346   2.617   7.582   7.230  0.0385 -0.7954 -0.2513
   54MOL   H28117347   2.780   0.250   7.331 -0.5474 -0.9263  0.1455
   54MOL   H28217348   2.674   0.154   7.236 -0.0907 -0.7641 -0.6075
   54MOL   H28317349   2.901   0.030   7.395 -0.8389 -2.2365 -0.0886
   54MOL   H28417350   2.462   7.721   7.401  1.4124 -1.5378 -0.4717
   54MOL   H28517351   2.526   0.023   7.367 -1.2085  0.5800 -2.3626
   54MOL   H28617352   2.457   7.802   7.238 -0.8948  0.5828 -0.5499
   54MOL   H28717353   2.631   7.506   7.307  1.0822 -0.2003  0.1607
   54MOL   H28817354   2.682   7.569   7.144 -0.8103 -2.1940 -0.6967
   54MOL   H28917355   2.511   7.587   7.206  0.0544  3.3211  0.1825
   54MOL   C29017356   2.762   0.078   7.535 -0.0662 -0.3298  0.0557
   54MOL   C29117357   2.776   7.828   7.648  0.1055  0.0164  0.2100
   54MOL   C29217358   2.661   7.722   7.674 -0.4209  0.5043  0.1067
   54MOL   O29317359   2.546   7.756   7.663 -0.0394 -0.2214 -0.6324
   54MOL   N29417360   2.681   7.588   7.700  0.7970 -0.4204 -0.2947
   54MOL   C29517361   2.813   7.523   7.697 -0.0297  0.9862  0.2470
   54MOL   C29617362   2.563   7.501   7.693  0.1602  0.4297 -0.3051
   54MOL   H29717363   2.807   0.173   7.565  1.8173 -1.5983  1.3809
   54MOL   H29817364   2.664   0.126   7.542  0.1075  0.0858 -0.2904
   54MOL   H29917365   2.866   7.774   7.619 -0.6872 -0.3837 -1.5566
   54MOL   H30017366   2.854   7.511   7.597  1.4537  2.2311  0.6977
   54MOL   H30117367   2.884   7.586   7.751  2.3278 -0.2226 -1.3909
   54MOL   H30217368   2.807   7.423   7.740 -1.8502  0.1153 -1.9279
   54MOL   H30317369   2.542   7.493   7.586  3.1262 -1.6215 -0.7879
   54MOL   H30417370   2.479   7.553   7.740 -0.6986 -0.5743 -0.7208
   54MOL   H30517371   2.569   7.404   7.742 -0.6046  0.2299 -0.6067
   54MOL   C30617372   2.824   0.036   7.781 -0.6131  0.7674 -0.3889
   54MOL   C30717373   2.720   0.118   0.005  0.1123  0.3418  0.1202
   54MOL   C30817374   2.770   0.191   0.130 -0.1695 -0.0347  0.7005
   54MOL   O30917375   2.892   0.191   0.153  0.2370  0.3506  0.1454
   54MOL   N31017376   2.676   0.252   0.219  0.0229 -0.3964 -1.1766
   54MOL   C31117377   2.529   0.256   0.191  0.2656  0.8124 -0.0707
   54MOL   C31217378   2.707   0.310   0.356  0.5379  0.9336  0.1122
   54MOL   H31317379   2.864   7.813   7.848 -0.3516  1.0228 -0.2529
   54MOL   H31417380   2.913   0.096   7.761  0.1246 -0.8377 -2.0886
   54MOL   H31517381   2.687   0.197   7.791 -0.5838 -1.3938 -1.6079
   54MOL   H31617382   2.482   0.343   0.237  0.0050  0.7151 -0.1503
   54MOL   H31717383   2.507   0.258   0.085 -0.9004 -1.0545  0.1160
   54MOL   H31817384   2.470   0.172   0.228  0.9610 -0.7754 -2.4854
   54MOL   H31917385   2.805   0.281   0.394 -0.4350 -0.8473  1.2942
   54MOL   H32017386   2.650   0.277   0.442 -1.1140  0.5554 -1.1064
   54MOL   H32117387   2.710   0.419   0.347 -2.3845  1.1115  0.8259
   54MOL   H32217388   2.632   0.055   0.009 -1.0441  1.9279  0.0970
   55MOL     C117389   3.151   5.475   6.493 -0.2397  0.3976  0.2129
   55MOL     C217390   3.056   5.581   6.557 -0.2480  0.3938  0.3535
   55MOL     C317391   3.034   5.548   6.705  0.3334 -0.0304  0.7481
   55MOL     O417392   2.993   5.435   6.731 -0.4783  0.6479  0.0517
   55MOL     N517393   3.067   5.636   6.802 -0.1002 -0.0278 -0.2546
   55MOL     C617394   3.097   5.778   6.786  0.1762  1.0688 -0.3877
   55MOL     C717395   3.032   5.591   6.945  0.1792 -0.5334 -0.4846
   55MOL     H817396   3.250   5.461   6.537 -0.4074 -0.4066  0.3516
   55MOL     H917397   3.165   5.492   6.386 -0.2934  2.0955  0.4629
   55MOL    H1017398   3.104   5.678   6.556  0.2922  0.1194 -0.2796
   55MOL    H1117399   3.204   5.797   6.783  0.6911 -1.8344 -1.8927
   55MOL    H1217400   3.039   5.832   6.711 -3.5474 -0.5427  1.1904
   55MOL    H1317401   3.053   5.827   6.873 -2.8178 -2.7331  0.3902
   55MOL    H1417402   3.069   5.490   6.960  1.8809  0.1880  0.3626
   55MOL    H1517403   2.923   5.585   6.949  0.2137 -0.1493  1.3090
   55MOL    H1617404   3.084   5.652   7.019 -2.0438  1.3954 -0.4456
   55MOL    H1717405   3.092   5.383   6.497 -1.2041  1.0709  1.8116
   55MOL    C1817406   2.915   5.606   6.479 -0.0552  0.0297  0.3846
   55MOL    C1917407   2.827   5.480   6.447 -0.4674  0.1245  0.7221
   55MOL    C2017408   2.883   5.366   6.357  0.2594 -0.1054 -0.6696
   55MOL    O2117409   2.944   5.399   6.253  0.2435  0.1682 -0.1479
   55MOL    N2217410   2.873   5.234   6.388  0.1539  0.0569  0.0894
   55MOL    C2317411   2.828   5.197   6.520  0.4534  0.0598 -0.0444
   55MOL    C2417412   2.935   5.135   6.299 -0.0116 -1.3200 -0.4224
   55MOL    H2517413   2.852   5.679   6.528  0.1279  0.6227 -0.2575
   55MOL    H2617414   2.950   5.647   6.384 -0.9951 -2.1843 -0.9716
   55MOL    H2717415   2.797   5.447   6.547 -0.1205 -0.1312  0.7413
   55MOL    H2817416   2.822   5.089   6.533  1.7807  0.0239  0.3512
   55MOL    H2917417   2.906   5.229   6.590  0.1026  0.1265  0.3188
   55MOL    H3017418   2.734   5.236   6.557  0.7794 -0.1527  1.0132
   55MOL    H3117419   2.907   5.135   6.194  0.5541 -2.6260 -0.5791
   55MOL    H3217420   2.904   5.037   6.337  0.8122 -1.1692  0.6711
   55MOL    H3317421   3.043   5.126   6.311  0.5191  1.2867 -2.7146
   55MOL    C3417422   2.709   5.541   6.367 -0.0339 -0.0205  0.3298
   55MOL    C3517423   2.599   5.439   6.329 -0.0068 -0.5151 -0.0026
   55MOL    C3617424   2.512   5.482   6.202 -0.2365 -0.3165 -0.8079
   55MOL    O3717425   2.447   5.593   6.217 -0.1923 -0.4037  0.0408
   55MOL    N3817426   2.496   5.412   6.088  0.0576 -0.0158  0.0006
   55MOL    C3917427   2.414   5.456   5.976  0.2131 -0.0796  0.8363
   55MOL    C4017428   2.592   5.302   6.060  0.6311  0.3699  0.3695
   55MOL    H4117429   2.671   5.630   6.418 -0.2588  0.2206 -0.2522
   55MOL    H4217430   2.748   5.581   6.274 -0.4049  1.9713  0.9998
   55MOL    H4317431   2.645   5.348   6.290 -1.3096 -1.0089 -0.4094
   55MOL    H4417432   2.337   5.528   6.004 -0.6539 -0.7079  0.1028
   55MOL    H4517433   2.483   5.499   5.903 -2.7635  0.0175 -2.0355
   55MOL    H4617434   2.375   5.372   5.919  0.7685 -0.9745  1.7509
   55MOL    H4717435   2.693   5.332   6.089  1.4640 -1.9887  0.0328
   55MOL    H4817436   2.598   5.288   5.952 -1.3153 -1.1799  0.4322
   55MOL    H4917437   2.566   5.204   6.101 -1.4813  0.6953 -0.1477
   55MOL    C5017438   2.512   5.410   6.455 -0.3903 -0.2541  0.5178
   55MOL    C5117439   2.393   5.312   6.432  0.4188  0.0018 -0.5530
   55MOL    C5217440   2.289   5.345   6.549 -0.2615 -0.3599 -0.4259
   55MOL    O5317441   2.302   5.289   6.654 -0.5542 -0.6500 -0.1164
   55MOL    N5417442   2.176   5.422   6.527  0.2627 -0.4431 -0.4689
   55MOL    C5517443   2.067   5.441   6.627  0.4146  0.5174  0.7699
   55MOL    C5617444   2.150   5.507   6.406 -0.2814  0.0811  0.7534
   55MOL    H5717445   2.571   5.374   6.540 -1.2217  1.9385  2.0468
   55MOL    H5817446   2.476   5.509   6.480  0.5572  0.2513 -0.0758
   55MOL    H5917447   2.335   5.333   6.342 -3.8807 -2.6223  1.4319
   55MOL    H6017448   2.054   5.547   6.650  1.3018  0.6800  0.5388
   55MOL    H6117449   1.972   5.397   6.597  1.0570 -0.7263  0.5373
   55MOL    H6217450   2.088   5.404   6.728 -0.3841 -0.3719  0.6186
   55MOL    H6317451   2.056   5.562   6.409 -0.5303  0.0061 -3.0027
   55MOL    H6417452   2.129   5.452   6.314  0.8727 -2.2897  1.8496
   55MOL    H6517453   2.238   5.568   6.384  0.4710 -1.9484 -2.2123
   55MOL    C6617454   2.431   5.167   6.417 -0.0023  0.6294  0.5046
   55MOL    C6717455   2.330   5.065   6.359  0.4202 -0.0730 -0.3792
   55MOL    C6817456   2.287   5.095   6.212  0.1884 -0.0005  0.6471
   55MOL    O6917457   2.231   5.197   6.191 -0.0215 -0.0267 -0.0709
   55MOL    N7017458   2.306   5.003   6.114  0.2757  0.6359 -0.4467
   55MOL    C7117459   2.338   4.862   6.144  1.0840 -0.5085  0.1545
   55MOL    C7217460   2.270   5.032   5.981  0.3366  0.0356 -0.5901
   55MOL    H7317461   2.522   5.150   6.359  0.1846 -1.1057  1.2881
   55MOL    H7417462   2.468   5.128   6.512 -0.4641 -2.1225 -0.4067
   55MOL    H7517463   2.380   4.968   6.360 -1.2616 -0.9577 -0.2540
   55MOL    H7617464   2.330   4.797   6.057  1.7843 -2.5371  1.5597
   55MOL    H7717465   2.444   4.857   6.169  0.5959  0.3006  2.5240
   55MOL    H7817466   2.269   4.826   6.220  1.2350 -1.1864 -0.0322
   55MOL    H7917467   2.161   5.034   5.982  0.3399  0.7717  2.5523
   55MOL    H8017468   2.303   4.956   5.909 -1.6962 -1.3107 -0.1514
   55MOL    H8117469   2.311   5.128   5.952  1.0123 -0.1601 -0.2778
   55MOL    C8217470   2.194   5.048   6.439  0.3776 -0.4722  0.4990
   55MOL    C8317471   2.198   4.964   6.569 -0.1420  0.0527  0.3612
   55MOL    C8417472   2.224   4.820   6.525 -0.2296 -0.1727  0.4025
   55MOL    O8517473   2.140   4.776   6.451  0.5500 -0.2280 -0.0315
   55MOL    N8617474   2.335   4.750   6.576  0.5791 -0.5559  0.4506
   55MOL    C8717475   2.365   4.609   6.527  0.3576 -0.4848 -0.1429
   55MOL    C8817476   2.441   4.801   6.663 -0.1007  0.5020 -0.1481
   55MOL    H8917477   2.157   5.148   6.460 -0.9258 -0.6967 -0.6089
   55MOL    H9017478   2.120   5.013   6.367  1.4982 -0.5704 -0.6160
   55MOL    H9117479   2.275   5.013   6.628 -0.3424  0.3450  0.3795
   55MOL    H9217480   2.422   4.550   6.599  1.2031  0.7578  0.2333
   55MOL    H9317481   2.286   4.541   6.496  0.8270 -0.8347 -0.5838
   55MOL    H9417482   2.416   4.616   6.431  0.2990  4.8897  0.0786
   55MOL    H9517483   2.502   4.724   6.709 -2.4254 -1.1868  0.1594
   55MOL    H9617484   2.400   4.855   6.749  1.3347  1.2990  0.0431
   55MOL    H9717485   2.502   4.869   6.604  0.7594  0.3377  0.5451
   55MOL    C9817486   2.055   4.989   6.632  0.7376 -0.2736  0.0454
   55MOL    C9917487   2.043   4.967   6.785  0.1281  0.5866 -0.4536
   55MOL   C10017488   2.141   5.063   6.862  0.8608  0.7812 -0.5366
   55MOL   O10117489   2.256   5.035   6.878  0.7697 -0.0669  0.0012
   55MOL   N10217490   2.084   5.165   6.927  0.7671  0.4222 -0.0481
   55MOL   C10317491   2.152   5.266   6.997 -0.1581 -0.4270 -0.3496
   55MOL   C10417492   1.945   5.214   6.907  0.0124 -0.3362  0.2412
   55MOL   H10517493   2.023   5.092   6.611 -1.3069 -0.9731 -0.4052
   55MOL   H10617494   1.976   4.928   6.588  0.0737 -0.3722  1.3551
   55MOL   H10717495   1.941   4.990   6.814  1.2306  5.0347  0.2208
   55MOL   H10817496   2.099   5.304   7.084 -3.7336 -1.8502 -1.7859
   55MOL   H10917497   2.253   5.237   7.028 -0.0977 -0.5392 -0.6460
   55MOL   H11017498   2.177   5.347   6.929  0.2108  0.4225  0.7928
   55MOL   H11117499   1.903   5.211   6.806  3.0546  1.0904 -1.1277
   55MOL   H11217500   1.927   5.314   6.946 -1.0397 -0.6232  0.4987
   55MOL   H11317501   1.875   5.161   6.971 -3.2731  2.3397 -0.9547
   55MOL   C11417502   2.063   4.819   6.818  0.8581 -0.3096  0.1999
   55MOL   C11517503   2.055   4.775   6.961 -0.2876  0.0150  0.0939
   55MOL   C11617504   2.129   4.636   6.983 -0.9015 -0.9121 -0.7966
   55MOL   O11717505   2.073   4.535   6.939  0.9150  0.3776  0.4339
   55MOL   N11817506   2.252   4.637   7.039 -0.1598 -0.9122  0.0940
   55MOL   C11917507   2.328   4.756   7.076 -0.9494 -0.0252  0.1547
   55MOL   C12017508   2.322   4.512   7.041 -0.2271 -0.1303  0.1179
   55MOL   H12117509   1.997   4.756   6.759  1.1294 -0.6023  0.2028
   55MOL   H12217510   2.163   4.784   6.791  1.1406  0.2563  0.5099
   55MOL   H12317511   2.101   4.857   7.015 -0.7018 -1.1550  2.2796
   55MOL   H12417512   2.427   4.723   7.107 -0.5902  0.8350 -0.0629
   55MOL   H12517513   2.336   4.816   6.986  1.5425  1.6416  1.4232
   55MOL   H12617514   2.286   4.820   7.154 -1.0159  0.4016 -0.2287
   55MOL   H12717515   2.375   4.501   6.946 -0.2146  1.4845 -0.0741
   55MOL   H12817516   2.255   4.427   7.055  0.1467 -0.6026 -0.8772
   55MOL   H12917517   2.397   4.503   7.119 -1.2482 -0.3833  1.0819
   55MOL   C13017518   1.912   4.775   7.023  0.1200 -0.2428 -0.7522
   55MOL   C13117519   1.916   4.801   7.174 -0.2486  0.9234 -0.3857
   55MOL   C13217520   1.781   4.743   7.226 -0.4705 -0.2786 -0.2598
   55MOL   O13317521   1.678   4.796   7.203 -0.2756 -0.0102  0.0493
   55MOL   N13417522   1.783   4.632   7.302 -0.2671  0.0516 -0.1392
   55MOL   C13517523   1.890   4.541   7.326  0.1702 -1.1949 -0.4493
   55MOL   C13617524   1.664   4.587   7.377 -0.7367 -0.0601 -0.2394
   55MOL   H13717525   1.841   4.839   6.970 -1.6652  1.3292  3.2906
   55MOL   H13817526   1.872   4.677   6.996  1.0292 -0.7336 -0.3449
   55MOL   H13917527   2.000   4.735   7.198  0.4453  2.2999  1.0419
   55MOL   H14017528   1.885   4.487   7.420  0.8246  1.7324  1.3279
   55MOL   H14117529   1.875   4.471   7.244  0.4127 -0.0683 -1.4711
   55MOL   H14217530   1.992   4.580   7.334 -0.5160  0.3315  1.2238
   55MOL   H14317531   1.581   4.657   7.384 -1.8717 -1.5843  2.7075
   55MOL   H14417532   1.689   4.580   7.483  0.1455 -0.0407 -0.4446
   55MOL   H14517533   1.628   4.489   7.344 -0.9501 -0.2349  0.4949
   55MOL   C14617534   1.951   4.944   7.208  0.3776 -1.1682 -0.6042
   55MOL   C14717535   1.945   4.987   7.354  0.1497 -0.1232  0.4549
   55MOL   C14817536   1.957   5.140   7.359  0.5707 -0.1270  0.6432
   55MOL   O14917537   2.065   5.189   7.324  0.0132  0.3056 -0.4499
   55MOL   N15017538   1.855   5.215   7.408  0.1533 -0.2065 -0.5682
   55MOL   C15117539   1.713   5.172   7.421  0.6656 -1.1289 -0.1824
   55MOL   C15217540   1.874   5.357   7.428 -0.4070 -0.2039  0.8402
   55MOL   H15317541   2.051   4.974   7.177 -0.0019  1.2123  0.3850
   55MOL   H15417542   1.882   5.005   7.149  1.9186  0.7662 -0.4150
   55MOL   H15517543   1.845   4.957   7.386  0.6694 -3.1606 -0.5784
   55MOL   H15617544   1.646   5.256   7.399  0.1892 -1.7958 -1.3222
   55MOL   H15717545   1.698   5.093   7.347 -0.9354 -0.9016 -0.1157
   55MOL   H15817546   1.700   5.129   7.520 -0.3455  0.1924  0.2802
   55MOL   H15917547   1.874   5.418   7.338  1.4367  0.5470  1.3273
   55MOL   H16017548   1.967   5.387   7.476 -0.4958  1.3691  0.0713
   55MOL   H16117549   1.799   5.401   7.494  0.1502  2.1562 -0.0413
   55MOL   C16217550   2.054   4.908   7.430  0.2547  0.1128  0.5829
   55MOL   C16317551   2.097   4.938   7.584 -0.2523  0.3692  0.0611
   55MOL   C16417552   1.969   4.978   7.663 -0.1391 -0.4289 -0.1549
   55MOL   O16517553   1.929   5.094   7.668 -0.5296 -0.5240 -0.1529
   55MOL   N16617554   1.899   4.875   7.715  0.7701  0.1074 -0.7119
   55MOL   C16717555   1.936   4.734   7.708 -0.4216  0.4612  0.2318
   55MOL   C16817556   1.764   4.902   7.769 -0.0337 -0.4864  0.3911
   55MOL   H16917557   2.014   4.808   7.417 -3.9362  1.9733 -2.2042
   55MOL   H17017558   2.149   4.904   7.376  1.1279 -0.0338  2.1182
   55MOL   H17117559   2.139   4.843   7.616 -1.5988 -0.0962  0.4385
   55MOL   H17217560   1.861   4.668   7.751 -1.0987  1.3156  0.3618
   55MOL   H17317561   1.941   4.710   7.602  0.2559  0.7986  0.1801
   55MOL   H17417562   2.025   4.704   7.764 -0.7798 -0.5641  0.2529
   55MOL   H17517563   1.766   4.881   0.022 -0.0891 -4.0873 -0.2584
   55MOL   H17617564   1.693   4.838   7.716  0.9711 -0.4965 -0.9624
   55MOL   H17717565   1.725   5.002   7.752 -0.3881 -0.4535  1.3770
   55MOL   C17817566   2.210   5.049   7.585 -0.6849  0.3025 -0.4868
   55MOL   C17917567   2.263   5.090   7.726  0.3979 -0.1054 -0.1865
   55MOL   C18017568   2.397   5.176   7.720  0.5050 -0.8812  1.0428
   55MOL   O18117569   2.502   5.109   7.706  0.1947 -0.2704 -0.4103
   55MOL   N18217570   2.393   5.312   7.705  0.7784 -0.1831 -0.4055
   55MOL   C18317571   2.276   5.399   7.703 -0.3911  0.0896 -0.0016
   55MOL   C18417572   2.521   5.388   7.682 -1.0680 -0.2616  0.6382
   55MOL   H18517573   2.299   5.023   7.528  1.4423  2.7185  1.6198
   55MOL   H18617574   2.166   5.138   7.541 -0.4446  1.1947  1.0216
   55MOL   H18717575   2.192   5.156   7.774 -0.2075  1.1889 -2.7653
   55MOL   H18817576   2.183   5.363   7.657 -0.3838 -0.6950  0.5875
   55MOL   H18917577   2.262   5.435   7.805  3.0093 -1.2170  1.0044
   55MOL   H19017578   2.308   5.483   7.642  1.6343  0.1661  1.1168
   55MOL   H19117579   2.550   5.354   7.583 -1.1134 -0.7608  0.7936
   55MOL   H19217580   2.605   5.360   7.744 -0.2609  2.5192  0.8392
   55MOL   H19317581   2.507   5.496   7.687  1.5912  0.1906 -0.9478
   55MOL   C19417582   2.284   4.963   7.811  0.4280 -0.4939  0.4383
   55MOL   C19517583   2.357   4.964   0.094  0.4694  0.0304 -0.5403
   55MOL   C19617584   2.359   4.820   0.148  0.0415  0.0414 -0.8541
   55MOL   O19717585   2.255   4.766   0.191  0.1525 -0.5313  0.0347
   55MOL   N19817586   2.481   4.758   0.158  0.1023  0.2821 -0.5820
   55MOL   C19917587   2.608   4.825   0.125 -0.0085 -0.4476 -0.0628
   55MOL   C20017588   2.491   4.625   0.211 -0.3469  0.1345  0.3338
   55MOL   H20117589   2.189   4.911   7.822  0.8135 -1.6837 -1.6154
   55MOL   H20217590   2.346   4.896   7.751 -0.0073 -0.2450 -0.2965
   55MOL   H20317591   2.457   5.006   0.094 -0.6971  3.0723  2.7534
   55MOL   H20417592   2.686   4.750   0.141 -0.4430 -1.3068 -1.8776
   55MOL   H20517593   2.607   4.856   0.020 -1.1749  1.8584  0.6037
   55MOL   H20617594   2.630   4.905   0.195 -0.6759 -2.3199  2.3434
   55MOL   H20717595   2.526   4.620   0.314  1.6192  1.0808 -0.2721
   55MOL   H20817596   2.542   4.557   0.142 -0.8552  0.8623 -0.7690
   55MOL   H20917597   2.393   4.576   0.223  0.4281 -1.5092  0.1422
   55MOL   C21017598   2.268   5.052   0.188 -0.2617 -0.1782  0.2858
   55MOL   C21117599   2.318   5.205   0.222 -0.3475 -0.1776 -0.1584
   55MOL   C21217600   2.465   5.202   0.275  0.6170 -0.2022 -0.2096
   55MOL   O21317601   2.512   5.097   0.328  0.2645 -0.1629 -0.1624
   55MOL   N21417602   2.550   5.303   0.246  0.4307 -1.1403  0.5670
   55MOL   C21517603   2.506   5.435   0.195  0.6363  0.1929  0.0363
   55MOL   C21617604   2.695   5.298   0.271 -0.3839 -0.1678  0.3545
   55MOL   H21717605   2.164   5.048   0.155 -0.5770  0.0771  1.2240
   55MOL   H21817606   2.276   5.005   0.286  0.4795 -1.5038 -0.4011
   55MOL   H21917607   2.316   5.260   0.128 -2.9138  1.3197  0.7468
   55MOL   H22017608   2.577   5.512   0.225 -0.0027  0.7731  0.0800
   55MOL   H22117609   2.512   5.442   0.086  1.3898  0.0141  0.0655
   55MOL   H22217610   2.412   5.468   0.239  0.8217 -0.6260  1.0652
   55MOL   H22317611   2.748   5.366   0.205  0.2646 -1.2884 -0.3050
   55MOL   H22417612   2.733   5.197   0.255 -0.0734 -0.3267  2.0572
   55MOL   H22517613   2.702   5.332   0.374 -2.4107  0.6219  0.2618
   55MOL   C22617614   2.227   5.267   0.340 -0.5315 -0.8463  0.6700
   55MOL   C22717615   2.082   5.302   0.296 -0.3374  0.2884 -0.3984
   55MOL   C22817616   2.078   5.418   0.198  0.4763  0.6480  0.3130
   55MOL   O22917617   2.159   5.508   0.227  0.5789  0.2443 -0.0762
   55MOL   N23017618   2.002   5.419   0.089 -0.1271 -0.5614  0.6999
   55MOL   C23117619   2.001   5.543   0.010 -0.1183  0.1216 -0.5622
   55MOL   C23217620   1.924   5.302   0.049  0.0059 -0.2819  0.1972
   55MOL   H23317621   2.223   5.196   0.423  0.8207 -1.0480  0.5811
   55MOL   H23417622   2.286   5.355   0.362  0.9930 -1.1302 -2.0786
   55MOL   H23517623   2.036   5.215   0.249  1.9058 -0.3164 -1.5537
   55MOL   H23617624   1.929   5.609   0.059  1.9728  2.3045 -0.3546
   55MOL   H23717625   2.089   5.606   7.851  0.0640 -0.3367 -1.7297
   55MOL   H23817626   1.960   5.514   7.766  0.2537 -0.7077 -0.4731
   55MOL   H23917627   1.833   5.275   0.102  0.6244 -0.9613  0.9203
   55MOL   H24017628   1.991   5.216   0.040  1.8506  1.0829  0.4903
   55MOL   H24117629   1.888   5.310   7.800 -2.4581 -0.2074  1.0316
   55MOL   C24217630   1.997   5.337   0.423  0.1595 -0.0556 -0.0905
   55MOL   C24317631   1.955   5.222   0.516 -0.3253  0.4991 -0.1326
   55MOL   C24417632   1.871   5.123   0.424  0.3124  0.1440 -0.2929
   55MOL   O24517633   1.782   5.172   0.365  0.4390  0.3735 -0.5864
   55MOL   N24617634   1.889   4.984   0.425 -0.0156 -0.6232  0.4241
   55MOL   C24717635   1.803   4.897   0.348 -0.4442  0.1568  0.2425
   55MOL   C24817636   2.005   4.916   0.481 -0.0042  0.7594 -0.6115
   55MOL   H24917637   2.061   5.401   0.484  0.3581 -0.0612 -0.2903
   55MOL   H25017638   1.903   5.386   0.399 -0.5537 -1.1641  0.4391
   55MOL   H25117639   2.047   5.169   0.542 -0.5873  1.3862  2.7480
   55MOL   H25217640   1.864   4.852   0.271  1.3161  1.1461  1.0242
   55MOL   H25317641   1.744   4.829   0.410 -0.3640  0.0756  0.2304
   55MOL   H25417642   1.732   4.956   0.289 -0.0869 -0.1464 -0.4868
   55MOL   H25517643   2.098   4.973   0.470  1.0309 -0.8235 -0.2713
   55MOL   H25617644   2.023   4.814   0.447 -0.6318 -0.2494  1.9856
   55MOL   H25717645   1.989   4.897   0.587 -0.1080 -2.8338 -1.2185
   55MOL   C25817646   1.875   5.282   0.635 -0.0035 -0.3275 -0.4260
   55MOL   C25917647   1.853   5.186   0.753 -0.2250 -0.2888 -0.4452
   55MOL   C26017648   1.988   5.138   0.827  0.0623  0.2308 -1.3062
   55MOL   O26117649   2.057   5.049   0.775  0.8178  0.2165 -0.5280
   55MOL   N26217650   2.021   5.189   0.947 -0.4116 -0.6343  0.2554
   55MOL   C26317651   2.133   5.130   1.023  0.1753 -0.2985  0.6981
   55MOL   C26417652   1.967   5.313   1.007  0.0789  0.1864 -0.2789
   55MOL   H26517653   1.935   5.365   0.671 -1.9241  1.0415 -0.3125
   55MOL   H26617654   1.778   5.314   0.597 -1.1557 -0.9836  1.8547
   55MOL   H26717655   1.802   5.240   0.833 -0.0476  0.6107 -0.9262
   55MOL   H26817656   2.140   5.183   1.118 -1.0680 -0.3287  0.8162
   55MOL   H26917657   2.132   5.024   1.048  1.2846 -0.3249  0.6435
   55MOL   H27017658   2.232   5.136   0.977 -0.6172  1.4054 -0.8480
   55MOL   H27117659   1.940   5.390   0.934  0.5788  2.3442  1.7212
   55MOL   H27217660   2.032   5.359   1.081  0.0038  3.3056 -2.0527
   55MOL   H27317661   1.876   5.283   1.060  1.8057 -3.3879  0.8012
   55MOL   C27417662   1.751   5.071   0.728  0.1735  0.2233 -0.1296
   55MOL   C27517663   1.716   4.970   0.832 -0.2062 -0.3154 -0.7143
   55MOL   C27617664   1.636   4.858   0.756  0.0197  0.1098 -0.2215
   55MOL   O27717665   1.529   4.888   0.700  0.2777 -0.2372 -0.4037
   55MOL   N27817666   1.679   4.730   0.752 -1.2046  0.3885 -0.0948
   55MOL   C27917667   1.774   4.671   0.845  0.4891 -0.7058  0.5036
   55MOL   C28017668   1.621   4.629   0.663  0.1320  0.1328 -0.7662
   55MOL   H28117669   1.664   5.104   0.671  0.7209  0.5552 -0.7873
   55MOL   H28217670   1.809   5.010   0.659  0.3327 -0.2036  0.3794
   55MOL   H28317671   1.799   4.924   0.885 -0.3254  0.2689  0.0022
   55MOL   H28417672   1.720   4.671   0.940 -4.2328  1.2707 -1.9732
   55MOL   H28517673   1.809   4.570   0.826  0.8855 -0.4130 -0.3753
   55MOL   H28617674   1.868   4.727   0.844  0.3848 -0.4809  1.6990
   55MOL   H28717675   1.651   4.638   0.558 -0.7426 -1.3524 -1.1657
   55MOL   H28817676   1.513   4.616   0.677  0.1808  1.2659  0.7319
   55MOL   H28917677   1.665   4.531   0.682  0.0242 -0.1082 -1.7256
   55MOL   C29017678   1.624   5.036   0.939 -0.0997 -0.6336  0.0197
   55MOL   C29117679   1.585   4.942   1.053 -0.1455 -0.3258 -0.2270
   55MOL   C29217680   1.457   5.000   1.120  0.6039  0.0621 -0.2920
   55MOL   O29317681   1.466   5.115   1.168  0.1914  0.4855  0.5021
   55MOL   N29417682   1.335   4.941   1.110 -0.0515 -0.4267  0.2377
   55MOL   C29517683   1.318   4.818   1.032  0.3774  0.4502  0.5229
   55MOL   C29617684   1.215   4.997   1.173  0.1824 -0.4809  0.1621
   55MOL   H29717685   1.662   5.129   0.982 -2.1618 -0.6299  1.9331
   55MOL   H29817686   1.532   5.076   0.895  0.2324  1.8318  1.4325
   55MOL   H29917687   1.560   4.840   1.022 -2.0007 -0.2633  0.9597
   55MOL   H30017688   1.211   4.802   1.019  0.4506  1.2913 -1.1248
   55MOL   H30117689   1.353   4.836   0.931 -1.4270  1.7392  0.1033
   55MOL   H30217690   1.378   4.741   1.081 -0.7606 -0.3765  0.6375
   55MOL   H30317691   1.164   4.910   1.216 -0.8617 -0.4998 -1.0930
   55MOL   H30417692   1.153   5.054   1.104  1.2081  0.3996 -0.0366
   55MOL   H30517693   1.217   5.058   1.263 -2.1936 -0.7268  0.4353
   55MOL   C30617694   1.700   4.917   1.158  0.3705  0.3301  1.1489
   55MOL   C30717695   1.762   5.033   1.232 -0.3019 -0.3370  0.2146
   55MOL   C30817696   1.906   5.007   1.277  0.6371  0.8961 -0.0100
   55MOL   O30917697   1.965   4.908   1.228  0.6667 -0.1069 -0.6262
   55MOL   N31017698   1.965   5.091   1.359  0.2407  1.0985  0.1428
   55MOL   C31117699   2.097   5.071   1.411  0.3260  0.2417  0.2708
   55MOL   C31217700   1.912   5.210   1.416  0.5780  0.2067 -0.4431
   55MOL   H31317701   1.670   4.857   1.244  1.3732 -0.9969  0.5948
   55MOL   H31417702   1.773   4.855   1.105  0.0599 -0.7674  1.9897
   55MOL   H31517703   1.763   5.125   1.174 -1.4599  0.4571  1.4364
   55MOL   H31617704   2.099   5.077   1.520 -2.6847 -2.0129  0.5083
   55MOL   H31717705   2.154   4.982   1.384 -0.3629 -0.1976  0.2529
   55MOL   H31817706   2.158   5.147   1.363 -0.9169  0.0477 -1.6895
   55MOL   H31917707   1.806   5.200   1.442  0.7710 -0.9734 -0.1056
   55MOL   H32017708   1.922   5.294   1.347  2.4751 -0.0213 -0.4690
   55MOL   H32117709   1.971   5.250   1.498 -0.5894  3.3770 -1.0427
   55MOL   H32217710   1.700   5.046   1.321 -1.7636  0.4656 -0.8902
   56MOL     C117711   0.377   5.673   0.221 -0.2268 -0.6622  0.5278
   56MOL     C217712   0.355   5.589   0.344 -0.2878 -0.9416  0.0384
   56MOL     C317713   0.244   5.666   0.428  1.2269  0.0579 -0.7326
   56MOL     O417714   0.241   5.789   0.422 -0.3539 -0.2875  0.7347
   56MOL     N517715   0.151   5.603   0.504 -0.2290  0.1773  0.3391
   56MOL     C617716   0.069   5.684   0.592 -0.1872 -0.1320  0.5895
   56MOL     C717717   0.144   5.460   0.532  0.6859 -0.2032  0.0422
   56MOL     H817718   0.430   5.618   0.143 -0.9638 -0.5450 -0.0599
   56MOL     H917719   0.428   5.766   0.247 -0.8373  0.5866 -2.4807
   56MOL    H1017720   0.308   5.499   0.303  2.8761 -3.3240  1.4504
   56MOL    H1117721   0.006   5.751   0.534  1.5443  0.7050 -0.3792
   56MOL    H1217722   7.852   5.629   0.654 -0.3984  0.7665  1.1499
   56MOL    H1317723   0.125   5.751   0.657  1.0820  2.1280 -2.6448
   56MOL    H1417724   0.235   5.432   0.586  1.5741  1.5831 -0.4912
   56MOL    H1517725   0.135   5.392   0.447  0.8080  0.8388 -0.8079
   56MOL    H1617726   0.051   5.432   0.582  1.4009 -1.7221  0.5663
   56MOL    H1717727   0.286   5.712   0.175 -2.1529 -2.5306  2.6597
   56MOL    C1817728   0.485   5.555   0.427 -0.1051  0.0387 -0.3175
   56MOL    C1917729   0.590   5.476   0.352  0.0124  0.6501 -0.6903
   56MOL    C2017730   0.545   5.339   0.310  0.4190 -0.2547 -0.0117
   56MOL    O2117731   0.463   5.287   0.381  1.0278 -0.0811 -0.3108
   56MOL    N2217732   0.601   5.268   0.207  0.8977 -0.0752 -0.1438
   56MOL    C2317733   0.681   5.333   0.104 -0.0879 -0.8165 -0.2415
   56MOL    C2417734   0.577   5.125   0.192 -0.6178 -0.2579 -0.7678
   56MOL    H2517735   0.526   5.645   0.470 -0.1432  0.2645 -0.7478
   56MOL    H2617736   0.457   5.504   0.519 -0.9420  1.9218  0.4988
   56MOL    H2717737   0.611   5.533   0.262 -2.6736 -0.5081 -2.1144
   56MOL    H2817738   0.790   5.334   0.111 -0.0737 -1.4595 -0.3647
   56MOL    H2917739   0.669   5.283   0.008  1.0270  2.2772 -2.0705
   56MOL    H3017740   0.659   5.440   0.099 -1.1901 -1.0556 -0.4118
   56MOL    H3117741   0.574   5.072   0.287  1.0994  0.9586  0.0047
   56MOL    H3217742   0.656   5.071   0.140 -0.3194 -0.8999  0.3344
   56MOL    H3317743   0.484   5.103   0.139 -0.2657  0.5718 -1.7541
   56MOL    C3417744   0.729   5.481   0.415 -0.5830  0.1234  0.1465
   56MOL    C3517745   0.749   5.407   0.558 -0.5033  0.8695 -0.0034
   56MOL    C3617746   0.688   5.478   0.676 -0.0054 -0.0168 -0.3337
   56MOL    O3717747   0.701   5.602   0.675 -0.3781 -0.2857 -0.7544
   56MOL    N3817748   0.619   5.410   0.768  0.3353 -0.5941 -0.6177
   56MOL    C3917749   0.547   5.486   0.876  0.3164 -0.7492  0.1302
   56MOL    C4017750   0.614   5.260   0.775 -1.0292 -0.3887 -0.6023
   56MOL    H4117751   0.807   5.443   0.349  0.9079  0.7224  1.5296
   56MOL    H4217752   0.754   5.586   0.428 -0.7453 -0.1190  2.8074
   56MOL    H4317753   0.698   5.316   0.524 -0.3163  0.2598  1.3043
   56MOL    H4417754   0.464   5.542   0.832 -0.1100 -1.8245 -0.4500
   56MOL    H4517755   0.500   5.416   0.945 -2.8190 -0.0456 -1.1643
   56MOL    H4617756   0.621   5.554   0.917  0.1932 -0.9933  0.7561
   56MOL    H4717757   0.711   5.211   0.777 -0.8455 -0.1038 -1.8838
   56MOL    H4817758   0.562   5.205   0.696 -1.3714  0.1691 -0.7695
   56MOL    H4917759   0.565   5.237   0.869  0.7037 -0.9081  0.1992
   56MOL    C5017760   0.901   5.371   0.588 -0.2331 -0.4205 -1.0095
   56MOL    C5117761   0.961   5.238   0.536  0.0380 -0.0495  0.2107
   56MOL    C5217762   1.115   5.232   0.574  0.0034 -0.5754 -0.2474
   56MOL    O5317763   1.191   5.289   0.495 -0.2299 -0.0549  0.3712
   56MOL    N5417764   1.160   5.154   0.674  0.2727 -0.3146  0.1397
   56MOL    C5517765   1.304   5.137   0.688  0.0573  0.3049 -0.4359
   56MOL    C5617766   1.078   5.065   0.765  0.4762 -0.4431  0.4021
   56MOL    H5717767   0.967   5.456   0.570 -0.9666  0.1980 -0.8099
   56MOL    H5817768   0.916   5.346   0.693  0.7863 -1.1695 -1.3222
   56MOL    H5917769   0.921   5.156   0.596  1.3485 -1.0690 -0.2997
   56MOL    H6017770   1.349   5.110   0.593  2.1446 -2.2964  1.1997
   56MOL    H6117771   1.350   5.229   0.724  0.3497  0.5245 -1.3571
   56MOL    H6217772   1.332   5.055   0.755  0.8090 -0.2013 -1.3651
   56MOL    H6317773   1.029   4.990   0.703  0.2482 -1.3588  1.6727
   56MOL    H6417774   1.000   5.114   0.824  0.7920  1.0124 -0.3729
   56MOL    H6517775   1.144   5.009   0.831  1.2062  1.4506  1.3233
   56MOL    C6617776   0.938   5.204   0.384  0.0417  0.0820 -0.2017
   56MOL    C6717777   0.996   5.066   0.321 -0.0331 -0.4592 -0.4067
   56MOL    C6817778   1.012   5.071   0.163 -0.1720 -0.3541  0.5963
   56MOL    O6917779   0.917   5.035   0.100 -0.6248  0.5887  0.1819
   56MOL    N7017780   1.134   5.110   0.106 -0.3240 -0.1172  0.1655
   56MOL    C7117781   1.148   5.110   7.812 -0.2937  0.4420 -0.0626
   56MOL    C7217782   1.255   5.161   0.177  0.0609  0.5935 -0.0705
   56MOL    H7317783   0.831   5.206   0.363  0.4638  0.8129 -2.4431
   56MOL    H7417784   0.976   5.292   0.332  1.5874 -0.6386 -0.2957
   56MOL    H7517785   1.100   5.056   0.352  0.2409  2.4716 -0.2124
   56MOL    H7617786   1.107   5.015   7.777 -0.3130  0.2269  0.5326
   56MOL    H7717787   1.095   5.191   7.763 -1.5394  0.3756  1.1592
   56MOL    H7817788   1.249   5.116   7.770 -0.1628  0.2919  0.2287
   56MOL    H7917789   1.241   5.213   0.272  0.5580  0.7112 -0.0590
   56MOL    H8017790   1.310   5.229   0.113  0.6763  1.2366  1.1299
   56MOL    H8117791   1.325   5.080   0.200 -1.7899 -1.1229 -0.2770
   56MOL    C8217792   0.914   4.946   0.379 -0.5527 -0.1978  0.8038
   56MOL    C8317793   0.984   4.810   0.355  0.6746 -0.0550  0.7032
   56MOL    C8417794   0.885   4.701   0.394  0.0049 -0.0529 -0.0126
   56MOL    O8517795   0.848   4.687   0.510 -0.1679 -0.1425  0.1771
   56MOL    N8617796   0.826   4.627   0.294 -0.5748 -0.1127 -0.2451
   56MOL    C8717797   0.841   4.642   0.152  0.1277 -0.0651  0.9709
   56MOL    C8817798   0.749   4.505   0.324 -0.1786 -0.4042 -0.2895
   56MOL    H8917799   0.903   4.968   0.485 -2.2234  1.1216  0.3794
   56MOL    H9017800   0.817   4.954   0.331 -0.3067 -0.2735  0.2885
   56MOL    H9117801   1.021   4.818   0.253 -0.1482  1.4228  0.5172
   56MOL    H9217802   0.925   4.578   0.125  1.1355  1.4290  0.4923
   56MOL    H9317803   0.743   4.618   0.111  0.8608 -2.0704  0.3654
   56MOL    H9417804   0.869   4.739   0.112  1.2488 -0.4815  0.7296
   56MOL    H9517805   0.727   4.492   0.430 -0.5394 -1.8491 -0.5237
   56MOL    H9617806   0.799   4.412   0.294 -0.7958 -0.3079 -1.6550
   56MOL    H9717807   0.651   4.507   0.277 -0.6644 -0.7387  0.7137
   56MOL    C9817808   1.109   4.793   0.438 -0.0338  0.1181  0.4104
   56MOL    C9917809   1.203   4.674   0.395  0.2831 -0.4999  0.0793
   56MOL   C10017810   1.268   4.694   0.252 -0.3444  0.6250 -0.0482
   56MOL   O10117811   1.200   4.667   0.154  0.1556  0.2297  0.3978
   56MOL   N10217812   1.391   4.755   0.229 -0.5759  0.2367  0.2886
   56MOL   C10317813   1.457   4.830   0.329 -0.1575 -0.8932 -0.2289
   56MOL   C10417814   1.462   4.749   0.096  0.3766  0.5988 -0.3961
   56MOL   H10517815   1.162   4.886   0.462  0.6064  0.0509 -0.7366
   56MOL   H10617816   1.081   4.779   0.543  0.4145  1.0153  0.6578
   56MOL   H10717817   1.281   4.686   0.470  0.5605  1.9749 -0.5728
   56MOL   H10817818   1.543   4.891   0.301 -0.7205  0.4860  0.9867
   56MOL   H10917819   1.391   4.892   0.390  2.1274  2.9940 -1.4936
   56MOL   H11017820   1.501   4.760   0.401  1.0593  1.3650  1.3105
   56MOL   H11117821   1.448   4.831   0.025  0.1790 -0.3167 -1.4213
   56MOL   H11217822   1.434   4.657   0.045  1.4789  0.5374 -0.9044
   56MOL   H11317823   1.569   4.747   0.114  0.1666 -1.6867  0.7889
   56MOL   C11417824   1.146   4.527   0.405 -0.3353 -0.2071  0.1310
   56MOL   C11517825   1.117   4.471   0.547  0.0333 -0.5658  0.4842
   56MOL   C11617826   1.232   4.463   0.646  0.4643 -0.5985  0.4344
   56MOL   O11717827   1.344   4.427   0.598  0.0000 -0.1365 -0.4299
   56MOL   N11817828   1.214   4.489   0.781  0.6111 -0.2505 -0.6243
   56MOL   C11917829   1.322   4.481   0.873 -0.2836 -0.2204  0.0690
   56MOL   C12017830   1.092   4.551   0.828 -0.0193 -0.3538  0.0559
   56MOL   H12117831   1.055   4.524   0.344  0.0969  1.9925 -0.6453
   56MOL   H12217832   1.213   4.453   0.360 -1.2397 -1.8468  1.4416
   56MOL   H12317833   1.061   4.551   0.596 -0.9208  0.2349 -1.8064
   56MOL   H12417834   1.372   4.385   0.869 -0.6078 -0.4392  1.0183
   56MOL   H12517835   1.402   4.551   0.851  0.2840 -0.0935  2.4042
   56MOL   H12617836   1.300   4.481   0.980 -1.8431  2.4877 -0.2061
   56MOL   H12717837   1.095   4.655   0.797 -0.6772 -0.5337 -0.6154
   56MOL   H12817838   1.098   4.555   0.936  0.3527  0.0957  0.0186
   56MOL   H12917839   1.000   4.499   0.799  0.8102 -2.0444  0.3810
   56MOL   C13017840   1.030   4.345   0.531 -0.8441 -0.1441 -0.6409
   56MOL   C13117841   1.094   4.211   0.502 -0.3775  0.2376 -0.1238
   56MOL   C13217842   1.009   4.114   0.422  0.2899  0.3162 -0.2766
   56MOL   O13317843   0.894   4.098   0.463  0.1191  0.0092  0.1641
   56MOL   N13417844   1.061   4.043   0.319  0.4041  0.0311 -0.0699
   56MOL   C13517845   0.967   3.953   0.255  0.1087  0.1529 -0.1343
   56MOL   C13617846   1.196   4.052   0.260  0.0939 -0.3782  0.7793
   56MOL   H13717847   0.983   4.324   0.627  0.3955 -0.5125 -0.1050
   56MOL   H13817848   0.945   4.363   0.465 -2.4236 -0.5982  1.2077
   56MOL   H13917849   1.182   4.237   0.444 -0.7792  0.6187 -0.5586
   56MOL   H14017850   1.010   3.881   0.185 -1.3844  0.9807 -1.9756
   56MOL   H14117851   0.900   3.898   0.321 -2.2921 -0.8248 -3.2254
   56MOL   H14217852   0.888   4.009   0.204 -0.4244 -0.6604 -0.2136
   56MOL   H14317853   1.269   4.088   0.332  2.6886 -1.7751 -1.0626
   56MOL   H14417854   1.193   4.129   0.183 -0.9068 -2.5874 -1.4700
   56MOL   H14517855   1.221   3.954   0.219 -0.8893 -0.1136 -0.4773
   56MOL   C14617856   1.144   4.145   0.641  0.4534 -0.2215  0.0288
   56MOL   C14717857   1.246   4.027   0.634  0.7947 -0.6822 -0.4645
   56MOL   C14817858   1.226   3.938   0.756  0.3155  0.1824 -0.9799
   56MOL   O14917859   1.285   3.966   0.865  0.0985 -1.0060 -0.2144
   56MOL   N15017860   1.141   3.830   0.742  0.1755 -0.1992 -0.5106
   56MOL   C15117861   1.061   3.792   0.621  0.6169 -0.7751 -0.6781
   56MOL   C15217862   1.141   3.732   0.852 -0.6221 -0.2575  0.2129
   56MOL   H15317863   1.180   4.212   0.719  1.1231 -2.7211  1.9392
   56MOL   H15417864   1.058   4.101   0.693  2.2414 -1.7314  1.7905
   56MOL   H15517865   1.233   3.973   0.540 -2.5933  0.9986 -1.0348
   56MOL   H15617866   1.117   3.743   0.541  1.2171  1.5976 -1.7683
   56MOL   H15717867   0.972   3.734   0.646  0.5734 -0.7171 -0.6992
   56MOL   H15817868   1.030   3.888   0.581  3.7212  0.5056 -0.1559
   56MOL   H15917869   1.166   3.774   0.949 -0.2134  1.6233 -0.6846
   56MOL   H16017870   1.216   3.658   0.823  0.2316 -0.8156  3.6513
   56MOL   H16117871   1.041   3.690   0.852 -0.8948  0.3668 -0.5547
   56MOL   C16217872   1.392   4.087   0.625  0.0233  0.9461 -0.0037
   56MOL   C16317873   1.510   3.983   0.618  0.4351  0.0064  0.7876
   56MOL   C16417874   1.640   4.050   0.661  0.8041  0.6303  0.1055
   56MOL   O16517875   1.675   4.151   0.607 -0.0250 -0.2702  0.4030
   56MOL   N16617876   1.718   3.997   0.761  0.1104 -0.2157  0.7691
   56MOL   C16717877   1.688   3.875   0.840 -0.1449  0.0608  0.2465
   56MOL   C16817878   1.847   4.061   0.789  0.4308 -0.0928  0.0785
   56MOL   H16917879   1.393   4.142   0.531  3.0395 -0.4178 -0.8180
   56MOL   H17017880   1.411   4.152   0.710 -1.7154  0.1508  1.0254
   56MOL   H17117881   1.484   3.914   0.699  1.7113 -0.8306  0.4979
   56MOL   H17217882   1.701   3.779   0.789 -0.6079 -1.4311  2.8445
   56MOL   H17317883   1.757   3.870   0.924  0.0936 -2.0469 -0.0438
   56MOL   H17417884   1.586   3.878   0.877 -0.9209 -0.2231 -1.7605
   56MOL   H17517885   1.892   4.027   0.883  0.0803  0.1118  0.3199
   56MOL   H17617886   1.842   4.169   0.802  0.8142 -0.3144  2.3457
   56MOL   H17717887   1.918   4.027   0.713 -1.3639  0.0521 -1.7090
   56MOL   C17817888   1.516   3.917   0.477 -0.3350 -0.1041  0.0721
   56MOL   C17917889   1.576   3.773   0.467  0.4570  0.5654 -1.0795
   56MOL   C18017890   1.495   3.677   0.554 -0.1499  0.0108  0.0567
   56MOL   O18117891   1.533   3.658   0.669 -1.1451 -0.3245 -0.1077
   56MOL   N18217892   1.397   3.603   0.499 -0.5283 -0.4987 -0.0771
   56MOL   C18317893   1.335   3.481   0.573  0.2813 -0.0938 -0.3181
   56MOL   C18417894   1.342   3.626   0.369 -0.0286  0.0853 -0.9202
   56MOL   H18517895   1.415   3.920   0.435  0.0992  0.2195 -0.9519
   56MOL   H18617896   1.569   3.978   0.404  0.9287  1.7258  2.4581
   56MOL   H18717897   1.565   3.743   0.363 -0.5499 -2.4843 -0.1644
   56MOL   H18817898   1.318   3.491   0.680 -0.7980 -1.4962 -0.3448
   56MOL   H18917899   1.240   3.449   0.530  0.0627  2.8828 -2.1913
   56MOL   H19017900   1.392   3.390   0.556  0.7770  0.1307  0.1282
   56MOL   H19117901   1.307   3.729   0.363 -1.1084 -0.3320 -2.3763
   56MOL   H19217902   1.257   3.562   0.342  0.7767 -1.0800 -0.7295
   56MOL   H19317903   1.410   3.608   0.286 -2.2007 -1.0188 -2.5365
   56MOL   C19417904   1.733   3.774   0.481  0.2467 -0.0432 -0.3869
   56MOL   C19517905   1.804   3.647   0.432 -0.0492  0.3051  0.4284
   56MOL   C19617906   1.815   3.541   0.540 -0.2670  0.7243  0.3356
   56MOL   O19717907   1.844   3.577   0.656 -0.0688  0.1034  0.0169
   56MOL   N19817908   1.770   3.416   0.518  0.0833 -0.3162 -0.0751
   56MOL   C19917909   1.747   3.323   0.629  0.2580  0.4746  0.5071
   56MOL   C20017910   1.743   3.364   0.385  0.3791  0.2474  0.6454
   56MOL   H20117911   1.770   3.862   0.427  1.4602  0.0856  0.6246
   56MOL   H20217912   1.771   3.799   0.580 -0.8268  0.3216 -0.0668
   56MOL   H20317913   1.748   3.614   0.345  0.5542 -0.3439  0.2805
   56MOL   H20417914   1.841   3.271   0.644 -0.2889 -0.8912 -0.6801
   56MOL   H20517915   1.719   3.361   0.727 -0.2389 -0.9639  0.9372
   56MOL   H20617916   1.682   3.236   0.615  0.4093 -0.0028  2.5535
   56MOL   H20717917   1.647   3.393   0.343  0.0132 -1.7041  0.0922
   56MOL   H20817918   1.743   3.255   0.394  0.9483  0.2152  0.3240
   56MOL   H20917919   1.819   3.379   0.308 -2.0939  0.6583 -1.7833
   56MOL   C21017920   1.950   3.688   0.389 -1.0239  0.3256 -0.2929
   56MOL   C21117921   1.965   3.771   0.257 -0.2198 -0.7736 -0.1257
   56MOL   C21217922   1.882   3.690   0.147 -0.5449  0.2017 -0.3845
   56MOL   O21317923   1.908   3.572   0.124  0.3346  0.1965 -0.4275
   56MOL   N21417924   1.780   3.751   0.087  0.2813  0.3935 -0.3078
   56MOL   C21517925   1.701   3.689   7.837  0.1008 -0.0619 -0.4785
   56MOL   C21617926   1.754   3.897   0.094 -0.1612  0.5476  0.0879
   56MOL   H21717927   2.006   3.745   0.463  4.4386 -2.8345 -1.6768
   56MOL   H21817928   2.010   3.598   0.379  0.5720  0.9684  2.7347
   56MOL   H21917929   1.920   3.869   0.274 -1.1071 -0.6694 -2.8385
   56MOL   H22017930   1.619   3.633   0.029 -0.2395 -0.8389 -2.0322
   56MOL   H22117931   1.656   3.750   7.759 -0.6390 -0.7109 -0.5688
   56MOL   H22217932   1.762   3.614   7.788 -1.1190 -1.7634  0.5203
   56MOL   H22317933   1.709   3.914   0.191  0.6772  0.4540  0.4968
   56MOL   H22417934   1.677   3.935   0.027 -2.4012 -0.7688  1.8379
   56MOL   H22517935   1.845   3.956   0.090  1.8671 -2.4171  0.2048
   56MOL   C22617936   2.118   3.783   0.221 -0.8489  0.0180  0.0273
   56MOL   C22717937   2.196   3.904   0.296  0.3698  0.0938 -0.1446
   56MOL   C22817938   2.140   4.047   0.254  0.1937  1.0441  0.2535
   56MOL   O22917939   2.138   4.078   0.136 -0.3589  0.1123  0.3043
   56MOL   N23017940   2.083   4.123   0.348 -0.4089  0.0203  0.5662
   56MOL   C23117941   2.032   4.251   0.302  0.1236 -0.3093 -0.5532
   56MOL   C23217942   2.067   4.090   0.491 -0.1163  0.3732 -0.1528
   56MOL   H23317943   2.165   3.692   0.258  0.1811  0.2068 -0.7729
   56MOL   H23417944   2.138   3.804   0.116  1.2536  1.9227  0.7714
   56MOL   H23517945   2.180   3.894   0.404  0.6550  2.7066  0.1839
   56MOL   H23617946   2.110   4.311   0.257 -1.0809  1.3930 -0.3989
   56MOL   H23717947   1.947   4.237   0.235  0.0941  1.1414 -0.8329
   56MOL   H23817948   1.996   4.321   0.377  0.9765  1.8178 -2.0901
   56MOL   H23917949   2.043   4.182   0.543 -3.2519 -0.3182 -0.2513
   56MOL   H24017950   2.154   4.043   0.537 -2.0068 -2.5079  0.6594
   56MOL   H24117951   1.987   4.019   0.513 -0.9497  1.6400  0.9477
   56MOL   C24217952   2.345   3.889   0.255 -0.0354  0.1158  0.4876
   56MOL   C24317953   2.451   3.964   0.347  0.7557  1.0565 -0.7195
   56MOL   C24417954   2.555   4.035   0.260 -0.3857  0.4947  0.4421
   56MOL   O24517955   2.633   3.959   0.200 -0.2059 -0.5883  0.0953
   56MOL   N24617956   2.551   4.168   0.242  0.4808 -0.5530  0.2622
   56MOL   C24717957   2.650   4.233   0.160 -0.0842  0.3097 -0.0274
   56MOL   C24817958   2.442   4.259   0.278 -0.1446 -0.5959 -0.2084
   56MOL   H24917959   2.374   3.784   0.249  0.5614  0.1503  2.4355
   56MOL   H25017960   2.347   3.933   0.155 -2.6122 -2.1277 -0.6352
   56MOL   H25117961   2.390   4.032   0.406 -1.4088 -2.2092  0.9179
   56MOL   H25217962   2.687   4.315   0.220 -0.5893  0.1790  0.4701
   56MOL   H25317963   2.729   4.169   0.119  0.0090  0.8953 -0.7557
   56MOL   H25417964   2.605   4.277   0.072  0.6480  0.7561 -0.1838
   56MOL   H25517965   2.417   4.318   0.189 -2.0014 -3.5759 -1.7488
   56MOL   H25617966   2.474   4.341   0.343  0.5787 -1.9735  1.1968
   56MOL   H25717967   2.351   4.205   0.301  0.4293 -0.9176  1.3497
   56MOL   C25817968   2.528   3.869   0.448 -0.2153 -0.0794 -0.0189
   56MOL   C25917969   2.566   3.931   0.589 -0.7723 -0.0051 -0.0560
   56MOL   C26017970   2.682   4.032   0.583 -0.6420  0.2856  0.5585
   56MOL   O26117971   2.782   4.007   0.516  0.1805 -0.4387  0.3391
   56MOL   N26217972   2.667   4.150   0.649  0.1820  1.0823 -0.1251
   56MOL   C26317973   2.751   4.264   0.633 -0.2547 -0.5550 -0.0302
   56MOL   C26417974   2.562   4.165   0.757 -0.0157 -0.6325  0.7103
   56MOL   H26517975   2.468   3.780   0.465 -1.1837  0.5132 -0.2452
   56MOL   H26617976   2.617   3.830   0.398 -0.9771 -0.7473 -0.8761
   56MOL   H26717977   2.486   3.997   0.621 -1.9999 -1.1683 -0.6298
   56MOL   H26817978   2.808   4.261   0.540 -1.1082 -0.0776 -0.5671
   56MOL   H26917979   2.692   4.355   0.639 -0.4027 -0.6257 -0.4045
   56MOL   H27017980   2.818   4.260   0.720 -1.9818 -0.4544  1.3368
   56MOL   H27117981   2.590   4.245   0.825 -0.6209  0.7637 -0.6631
   56MOL   H27217982   2.549   4.072   0.812 -3.2826 -2.5199 -3.0731
   56MOL   H27317983   2.467   4.193   0.711 -1.2061 -4.1961  0.8708
   56MOL   C27417984   2.607   3.817   0.684 -0.4314  0.3389  0.3093
   56MOL   C27517985   2.501   3.724   0.749  0.7795 -0.0903  0.2029
   56MOL   C27617986   2.361   3.792   0.781  0.5636 -0.1037  0.7820
   56MOL   O27717987   2.370   3.897   0.844 -0.1012  0.0529  0.2124
   56MOL   N27817988   2.245   3.734   0.745 -0.2378 -0.0321  0.2075
   56MOL   C27917989   2.227   3.609   0.674 -0.1989 -0.1596  0.4438
   56MOL   C28017990   2.121   3.815   0.762 -0.4695  0.5562 -0.0801
   56MOL   H28117991   2.668   3.756   0.617 -0.2891 -0.2979  1.0192
   56MOL   H28217992   2.681   3.845   0.758  0.0517 -1.3434  0.4805
   56MOL   H28317993   2.484   3.658   0.663  1.5954 -0.2424  0.1568
   56MOL   H28417994   2.289   3.531   0.718  1.6385  1.3671  0.6511
   56MOL   H28517995   2.121   3.582   0.675 -0.3479  0.4346  1.1585
   56MOL   H28617996   2.265   3.613   0.572 -2.4496 -0.9835 -0.4672
   56MOL   H28717997   2.131   3.923   0.749 -2.6208  0.9897  1.5990
   56MOL   H28817998   2.088   3.807   0.865  1.8378 -0.5927  0.6108
   56MOL   H28917999   2.033   3.790   0.703 -0.7881 -1.2067  1.0995
   56MOL   C29018000   2.560   3.634   0.860  0.3198 -0.1578 -0.1816
   56MOL   C29118001   2.649   3.516   0.801 -0.1320 -0.1578  0.0290
   56MOL   C29218002   2.553   3.405   0.763 -0.0635 -0.0274  0.1272
   56MOL   O29318003   2.483   3.356   0.855  0.0343 -0.0681  0.1801
   56MOL   N29418004   2.548   3.360   0.634 -0.1718  0.2540 -0.2538
   56MOL   C29518005   2.616   3.398   0.517  0.8137 -0.2850  0.3178
   56MOL   C29618006   2.457   3.251   0.608  0.1451 -0.4231  0.6357
   56MOL   H29718007   2.619   3.699   0.923  0.4647  1.0442 -1.5155
   56MOL   H29818008   2.475   3.604   0.922  3.7841 -3.6002  3.1728
   56MOL   H29918009   2.703   3.567   0.722  0.0194  0.3997  0.4926
   56MOL   H30018010   2.664   3.493   0.543 -0.7922 -0.2411  3.3631
   56MOL   H30118011   2.690   3.324   0.487 -0.0257 -0.9472 -0.1165
   56MOL   H30218012   2.536   3.408   0.444 -0.1053 -0.1923  1.3270
   56MOL   H30318013   2.449   3.208   0.508 -0.2091 -0.5076  0.6981
   56MOL   H30418014   2.358   3.275   0.647 -0.0742  0.6980 -0.5955
   56MOL   H30518015   2.506   3.174   0.668  2.2560  0.6088  0.2639
   56MOL   C30618016   2.744   3.467   0.916 -0.7586  0.0545 -0.0535
   56MOL   C30718017   2.870   3.396   0.868 -0.0163  0.2252  0.8277
   56MOL   C30818018   2.975   3.486   0.789 -0.5366  0.0552  0.5238
   56MOL   O30918019   2.951   3.606   0.781  0.6539  0.0975 -0.4671
   56MOL   N31018020   3.089   3.434   0.744 -0.0708 -0.1176  0.0573
   56MOL   C31118021   3.120   3.290   0.750 -0.2637  1.4236 -0.0004
   56MOL   C31218022   3.159   3.516   0.643  0.0867  0.5346  0.0663
   56MOL   H31318023   2.775   3.553   0.976  1.5595 -0.6853 -0.1139
   56MOL   H31418024   2.691   3.397   0.982  0.3221  0.2298  1.0223
   56MOL   H31518025   2.923   3.351   0.951  1.1645 -2.0883 -1.1236
   56MOL   H31618026   3.222   3.277   0.788 -1.0662  2.5089  2.6066
   56MOL   H31718027   3.059   3.219   0.806 -2.9798  3.6093 -0.0917
   56MOL   H31818028   3.121   3.259   0.646  1.7500 -0.8237  0.6295
   56MOL   H31918029   3.229   3.456   0.584 -1.1027 -0.9909  0.1844
   56MOL   H32018030   3.228   3.584   0.692  1.1006  1.3491 -2.4260
   56MOL   H32118031   3.106   3.577   0.570 -0.7462 -0.1232  0.1122
   56MOL   H32218032   2.838   3.321   0.795  1.6268 -0.1637  0.4951
   57MOL     C118033   2.077   3.669   7.391 -0.1673  0.8013 -0.2579
   57MOL     C218034   1.986   3.590   7.490 -0.3611 -0.3680  0.2716
   57MOL     C318035   1.836   3.647   7.484 -0.3981 -0.2711  0.9805
   57MOL     O418036   1.818   3.765   7.458  0.1068  0.4085 -0.2335
   57MOL     N518037   1.730   3.566   7.489 -0.1309  0.6711  0.3912
   57MOL     C618038   1.739   3.420   7.510 -0.2156 -0.4640  0.0289
   57MOL     C718039   1.588   3.611   7.488  0.2291 -0.0075  0.4001
   57MOL     H818040   2.062   3.649   7.285 -1.8116 -0.1108  0.1302
   57MOL     H918041   2.177   3.626   7.405  0.4958  2.1807 -0.7182
   57MOL    H1018042   1.974   3.495   7.439 -3.1223  0.5653 -0.8818
   57MOL    H1118043   1.783   3.383   7.417 -1.2451  1.5538 -1.3127
   57MOL    H1218044   1.807   3.388   7.588  0.1561  1.6417  0.6045
   57MOL    H1318045   1.644   3.366   7.511 -1.5059  1.7502  0.9002
   57MOL    H1418046   1.547   3.600   7.388 -0.1370 -0.6787  0.6245
   57MOL    H1518047   1.581   3.719   7.502  0.0316  0.3271 -2.0397
   57MOL    H1618048   1.520   3.570   7.562 -0.1526 -0.8397 -0.3978
   57MOL    H1718049   2.078   3.775   7.412  1.7913  0.8652 -0.5814
   57MOL    C1818050   2.051   3.587   7.628  0.1787 -0.1064 -0.5855
   57MOL    C1918051   2.166   3.494   7.670 -0.0617  0.1104  0.0554
   57MOL    C2018052   2.120   3.347   7.643  0.3766  0.3287  0.2602
   57MOL    O2118053   2.042   3.289   7.717  0.1222  0.6766 -0.5754
   57MOL    N2218054   2.173   3.288   7.534 -0.5826 -0.0508 -0.2517
   57MOL    C2318055   2.279   3.342   7.448  1.3230  0.3134  0.3401
   57MOL    C2418056   2.143   3.152   7.491 -0.0780 -1.7594 -0.4825
   57MOL    H2518057   2.080   3.689   7.656  1.2957 -0.3375 -0.8821
   57MOL    H2618058   1.970   3.566   7.697 -1.1231 -1.4292 -2.4723
   57MOL    H2718059   2.253   3.537   7.619  0.0011 -3.6743 -3.3632
   57MOL    H2818060   2.251   3.444   7.419  0.8689  0.0418 -0.1852
   57MOL    H2918061   2.370   3.346   7.507  0.4930  0.2820  1.6340
   57MOL    H3018062   2.300   3.298   7.351  2.2167 -0.7587  1.0163
   57MOL    H3118063   2.197   3.080   7.553 -0.8104 -0.8415  1.2576
   57MOL    H3218064   2.175   3.138   7.387  0.1740  0.1562 -0.6723
   57MOL    H3318065   2.037   3.128   7.489 -0.6606  0.1314  3.7122
   57MOL    C3418066   2.190   3.528   7.819 -0.3269  0.2506  0.5271
   57MOL    C3518067   2.303   3.444   0.042  0.0266  0.1892 -0.3693
   57MOL    C3618068   2.279   3.435   0.197 -0.0459 -0.5214  0.0794
   57MOL    O3718069   2.333   3.514   0.275  0.4595 -0.5785 -0.0021
   57MOL    N3818070   2.209   3.334   0.256  0.3239  0.0334 -0.3044
   57MOL    C3918071   2.174   3.328   0.403  0.4420  0.0304  0.9360
   57MOL    C4018072   2.121   3.249   0.173 -0.1243 -0.3662 -0.2554
   57MOL    H4118073   2.207   3.636   7.824  3.3205 -0.3285  1.9695
   57MOL    H4218074   2.097   3.502   0.015 -0.8157  1.5771  0.3288
   57MOL    H4318075   2.299   3.343   0.004  0.4477 -0.1054  0.3572
   57MOL    H4418076   2.264   3.350   0.461  1.8456  1.7145 -1.7830
   57MOL    H4518077   2.097   3.403   0.419  1.9553  1.8523 -0.1196
   57MOL    H4618078   2.137   3.230   0.433  1.9384 -1.7058 -2.5012
   57MOL    H4718079   2.186   3.183   0.116  0.4813  0.0815 -0.0872
   57MOL    H4818080   2.046   3.309   0.122  0.5479  1.0512  0.3932
   57MOL    H4918081   2.069   3.178   0.237  0.3801  0.1286  0.7234
   57MOL    C5018082   2.441   3.493   0.009 -0.7230 -0.2078  0.1812
   57MOL    C5118083   2.573   3.412   0.034  0.3079 -0.9347  0.5996
   57MOL    C5218084   2.559   3.265   7.833  0.2392 -0.2709 -0.0808
   57MOL    O5318085   2.508   3.180   0.055  0.4264  0.3310  0.2922
   57MOL    N5418086   2.580   3.243   7.699 -0.1733  0.1717 -0.0648
   57MOL    C5518087   2.689   3.320   7.625  0.4556 -0.3011 -0.4195
   57MOL    C5618088   2.521   3.129   7.639 -0.5347 -0.2040 -0.5710
   57MOL    H5718089   2.430   3.495   7.754  2.8103 -1.6367 -0.2966
   57MOL    H5818090   2.455   3.596   0.043  1.5073 -0.8441  1.3751
   57MOL    H5918091   2.645   3.462   7.822 -1.9113 -0.2709 -1.4120
   57MOL    H6018092   2.744   3.270   7.545  0.8365 -0.2911 -0.1673
   57MOL    H6118093   2.649   3.417   7.594  0.3292 -0.6915 -1.5170
   57MOL    H6218094   2.776   3.354   7.682  1.6090 -1.3019 -1.5521
   57MOL    H6318095   2.544   3.040   7.698  1.4522  0.4069 -0.3834
   57MOL    H6418096   2.565   3.109   7.541  0.9027 -0.9231  0.2049
   57MOL    H6518097   2.414   3.129   7.622 -0.2692 -0.1684 -2.3262
   57MOL    C6618098   2.629   3.422   0.179  0.4573 -0.2425 -0.0915
   57MOL    C6718099   2.780   3.412   0.215 -0.1208 -0.6001 -0.7764
   57MOL    C6818100   2.858   3.529   0.151  0.5026 -0.0640 -0.0297
   57MOL    O6918101   2.885   3.508   0.034  0.2191 -0.0792  0.1756
   57MOL    N7018102   2.884   3.639   0.220 -0.4717  0.9418  0.0731
   57MOL    C7118103   2.858   3.652   0.364 -0.0929  0.6409  0.3002
   57MOL    C7218104   2.941   3.756   0.163 -0.1101  0.4304  0.2422
   57MOL    H7318105   2.583   3.508   0.228  0.5815  2.0743 -3.8362
   57MOL    H7418106   2.572   3.343   0.228 -2.2066 -0.0011 -2.6600
   57MOL    H7518107   2.781   3.439   0.321 -1.7802 -0.1960 -0.8565
   57MOL    H7618108   2.752   3.642   0.388  0.2693 -0.9787  1.3124
   57MOL    H7718109   2.917   3.575   0.412 -0.2518 -0.1404 -0.7167
   57MOL    H7818110   2.888   3.744   0.412 -1.8857  0.9663  0.8258
   57MOL    H7918111   3.050   3.746   0.156  0.0914  2.4676  0.0952
   57MOL    H8018112   2.941   3.852   0.215 -2.2807  1.1869 -1.1064
   57MOL    H8118113   2.910   3.783   0.063 -2.2341  0.6121  0.9357
   57MOL    C8218114   2.846   3.275   0.186  0.6574 -0.0072  0.2901
   57MOL    C8318115   2.967   3.230   0.274 -0.3316  0.3436 -0.2551
   57MOL    C8418116   2.924   3.202   0.423  0.4801  0.4471 -0.5123
   57MOL    O8518117   2.927   3.302   0.491 -0.5349 -0.1036 -0.1668
   57MOL    N8618118   2.878   3.087   0.479 -0.3806 -0.2690 -0.3783
   57MOL    C8718119   2.801   3.081   0.607  0.0842  0.0378  0.1078
   57MOL    C8818120   2.894   2.956   0.411 -0.0464  1.2108 -0.3950
   57MOL    H8918121   2.767   3.199   0.186  1.1357 -0.5084  0.6394
   57MOL    H9018122   2.881   3.283   0.083 -0.1385 -2.0824 -0.1769
   57MOL    H9118123   3.002   3.138   0.227 -0.0525 -0.0138  0.6548
   57MOL    H9218124   2.872   3.084   0.690 -2.5813  0.1797  2.4365
   57MOL    H9318125   2.726   3.159   0.619  1.3718  1.5066 -1.1427
   57MOL    H9418126   2.749   2.985   0.616 -1.8351  1.0929  0.4275
   57MOL    H9518127   2.999   2.946   0.383 -0.0078  1.1074 -0.2153
   57MOL    H9618128   2.830   2.959   0.323  0.3682  0.3671 -0.7287
   57MOL    H9718129   2.868   2.875   0.479  2.1972  0.6176 -0.2065
   57MOL    C9818130   3.085   3.333   0.275 -0.1460 -0.3139  0.3139
   57MOL    C9918131   3.168   3.342   0.142 -0.0826  1.2640  0.1473
   57MOL   C10018132   3.235   3.207   0.094 -0.2958 -0.2072  0.0638
   57MOL   O10118133   3.324   3.160   0.169  0.8726 -0.4767  0.2339
   57MOL   N10218134   3.192   3.150   7.835  0.2337 -0.1784  0.3975
   57MOL   C10318135   3.271   3.041   7.777  0.1919  0.1525  0.3822
   57MOL   C10418136   3.103   3.217   7.737  0.7219  0.4656 -0.3901
   57MOL   H10518137   3.047   3.430   0.304 -1.1008 -1.3382  2.6289
   57MOL   H10618138   3.158   3.324   0.355  0.6486  0.4348 -0.3106
   57MOL   H10718139   3.093   3.374   0.070 -0.5827 -2.0600 -0.8977
   57MOL   H10818140   3.227   3.015   7.681 -1.3299  1.6314  0.6506
   57MOL   H10918141   3.374   3.068   7.752  0.0013 -1.1614 -1.9636
   57MOL   H11018142   3.273   2.951   7.838 -1.6567 -0.3490 -0.2616
   57MOL   H11118143   3.004   3.213   7.782  0.1486  0.7854 -1.5834
   57MOL   H11218144   3.091   3.171   7.639 -1.1153  3.2781 -1.5655
   57MOL   H11318145   3.126   3.322   7.719  0.3138  0.5934 -0.1660
   57MOL   C11418146   3.281   3.453   0.150  0.7000 -0.5810 -0.1002
   57MOL   C11518147   3.326   3.507   0.007 -0.1679  0.3087  0.6103
   57MOL   C11618148   3.476   3.541   0.002 -0.2426  0.1288  0.2467
   57MOL   O11718149   3.520   3.637   0.069  0.3776 -0.0771 -0.0454
   57MOL   N11818150   3.556   3.481   7.769  0.4020  0.6481  0.0347
   57MOL   C11918151   3.685   3.541   7.738 -0.5131 -0.2509  0.1698
   57MOL   C12018152   3.541   3.349   7.712 -0.1130  0.1343  0.4950
   57MOL   H12118153   3.256   3.534   0.218 -0.1707  0.0254 -1.1119
   57MOL   H12218154   3.370   3.413   0.197 -0.3912 -4.5110 -1.1475
   57MOL   H12318155   3.311   3.428   7.788  0.8067 -1.0934  1.8991
   57MOL   H12418156   3.747   3.584   7.816  0.5291  1.0956 -1.3570
   57MOL   H12518157   3.739   3.474   7.672  1.5551  1.0652  0.4849
   57MOL   H12618158   3.667   3.627   7.673 -1.3898  0.6422  1.5624
   57MOL   H12718159   3.453   3.290   7.738  0.3303 -1.7996 -2.1507
   57MOL   H12818160   3.631   3.293   7.737 -0.3825 -0.3381  0.4331
   57MOL   H12918161   3.535   3.345   7.603  1.3175  0.5402  0.3907
   57MOL   C13018162   3.239   3.626   7.810  0.3046  0.0006 -0.3568
   57MOL   C13118163   3.241   3.680   7.657  0.3956 -0.7886 -0.3008
   57MOL   C13218164   3.221   3.564   7.564 -0.5664  0.0592 -0.9133
   57MOL   O13318165   3.323   3.495   7.538 -0.5389 -0.8351  0.0487
   57MOL   N13418166   3.101   3.543   7.510  0.6175  0.2289 -0.2605
   57MOL   C13518167   3.102   3.444   7.401  0.5169  0.3588  0.2647
   57MOL   C13618168   2.976   3.614   7.531  0.0824  0.3857  0.4006
   57MOL   H13718169   3.136   3.594   7.827  0.0249 -0.8486 -3.3602
   57MOL   H13818170   3.258   3.715   0.017 -1.2184  0.6279 -0.7763
   57MOL   H13918171   3.162   3.756   7.658  1.1768  0.0409 -0.5604
   57MOL   H14018172   3.125   3.342   7.432 -0.0123  0.0785 -0.2442
   57MOL   H14118173   3.008   3.437   7.346 -0.1404 -0.6147  1.4905
   57MOL   H14218174   3.183   3.465   7.332 -1.1052  2.0890 -1.1672
   57MOL   H14318175   2.934   3.604   7.631 -1.1282 -0.4251 -0.1681
   57MOL   H14418176   2.896   3.569   7.470 -0.2828 -0.4938  1.5083
   57MOL   H14518177   2.985   3.719   7.503 -0.3248 -0.3113 -2.5308
   57MOL   C14618178   3.378   3.758   7.632  0.3773  0.1596 -0.6106
   57MOL   C14718179   3.375   3.882   7.536 -0.3126  0.2059  0.1326
   57MOL   C14818180   3.316   4.000   7.608 -0.2227  0.8372 -0.1738
   57MOL   O14918181   3.202   4.030   7.565  0.4269  0.3019  0.1880
   57MOL   N15018182   3.376   4.063   7.704  0.0803  0.2483 -0.3880
   57MOL   C15118183   3.311   4.165   7.781  0.5559  0.4391  0.0628
   57MOL   C15218184   3.515   4.047   7.738 -0.1543 -0.3118  0.3252
   57MOL   H15318185   3.411   3.787   7.732 -0.6031  3.0225 -1.0958
   57MOL   H15418186   3.461   3.699   7.593  0.3797 -0.2506  0.0100
   57MOL   H15518187   3.476   3.908   7.506  0.9536 -1.4365  2.7765
   57MOL   H15618188   3.316   4.138   0.033 -3.0889  1.0852  0.4515
   57MOL   H15718189   3.368   4.257   7.770 -2.1565  2.2403  0.6948
   57MOL   H15818190   3.207   4.180   7.753 -0.0599 -2.4576  0.6029
   57MOL   H15918191   3.578   4.000   7.662 -0.2407  1.6968 -1.0318
   57MOL   H16018192   3.520   3.978   7.823  2.2757  1.3730  1.6119
   57MOL   H16118193   3.557   4.147   7.746  3.3126 -1.7883  1.6562
   57MOL   C16218194   3.311   3.839   7.395  0.0847  0.3315  0.2076
   57MOL   C16318195   3.311   3.941   7.284  0.7675  0.1359  0.0061
   57MOL   C16418196   3.170   3.980   7.249  0.6789  0.7471 -0.0520
   57MOL   O16518197   3.078   3.894   7.245  0.8989 -0.0053 -1.0131
   57MOL   N16618198   3.140   4.112   7.221 -0.1438 -0.0785  0.1207
   57MOL   C16718199   3.001   4.162   7.235  0.2453  0.0775  0.7776
   57MOL   C16818200   3.236   4.226   7.226 -0.0356 -0.1034 -0.2770
   57MOL   H16918201   3.384   3.766   7.360 -1.6943 -0.9791 -0.8558
   57MOL   H17018202   3.222   3.778   7.410  2.2813 -2.2324  3.3869
   57MOL   H17118203   3.347   4.031   7.333 -2.7429  1.1696  0.8149
   57MOL   H17218204   2.935   4.090   7.186 -0.0871 -0.0639  1.4374
   57MOL   H17318205   2.970   4.161   7.339  1.7449 -0.7762  1.2378
   57MOL   H17418206   2.989   4.260   7.188  1.5096 -0.1906 -0.1593
   57MOL   H17518207   3.253   4.237   7.333 -0.2634 -0.7401 -0.1699
   57MOL   H17618208   3.189   4.311   7.178 -0.9400 -0.9962 -0.9990
   57MOL   H17718209   3.333   4.210   7.180  0.3765  0.2279  0.4695
   57MOL   C17818210   3.391   3.907   7.152 -0.3556  0.0900  0.3461
   57MOL   C17918211   3.552   3.914   7.163 -0.5602 -0.1255  0.0084
   57MOL   C18018212   3.596   4.046   7.225 -0.6164  0.1582  0.2253
   57MOL   O18118213   3.561   4.148   7.169 -0.2145  0.3081  0.0161
   57MOL   N18218214   3.655   4.046   7.350  0.1027 -0.0638 -0.0166
   57MOL   C18318215   3.724   3.935   7.414  0.2270 -0.5746  1.2763
   57MOL   C18418216   3.668   4.174   7.421 -0.0608 -0.0071 -0.4897
   57MOL   H18518217   3.359   3.808   7.119 -0.3126  0.6312 -1.3091
   57MOL   H18618218   3.350   3.970   7.074 -1.8592 -1.3120 -0.0199
   57MOL   H18718219   3.584   3.836   7.233  1.3320  0.5326 -0.0915
   57MOL   H18818220   3.773   3.965   7.507  1.2401 -0.6827  0.7860
   57MOL   H18918221   3.657   3.857   7.451 -0.1121 -0.0499  1.7812
   57MOL   H19018222   3.794   3.887   7.346  0.3457  0.1897  0.8581
   57MOL   H19118223   3.724   4.171   7.514 -0.2009  2.2584 -0.3009
   57MOL   H19218224   3.565   4.202   7.444  0.2651  0.4920  0.4001
   57MOL   H19318225   3.706   4.255   7.358 -2.3836  0.9091 -0.7916
   57MOL   C19418226   3.616   3.879   7.028  0.6119  1.1904  0.3360
   57MOL   C19518227   3.623   3.728   6.989 -0.5279  0.1112  0.0813
   57MOL   C19618228   3.732   3.650   7.072 -0.2099 -0.0827  0.3631
   57MOL   O19718229   3.844   3.651   7.032 -0.0074  0.8164  0.0834
   57MOL   N19818230   3.694   3.555   7.164  0.6835  0.3910 -0.2489
   57MOL   C19918231   3.557   3.543   7.231  0.0269  0.3249  0.0147
   57MOL   C20018232   3.798   3.461   7.205  0.2877 -0.1321 -0.7797
   57MOL   H20118233   3.565   3.941   6.954 -2.2379 -1.8449 -0.3939
   57MOL   H20218234   3.715   3.924   7.015  1.8528 -1.8444 -1.1593
   57MOL   H20318235   3.525   3.681   6.995  0.3272 -1.7950 -0.4124
   57MOL   H20418236   3.488   3.621   7.200 -0.5568 -0.8849 -1.8491
   57MOL   H20518237   3.515   3.447   7.199 -0.4182  0.8285 -0.9300
   57MOL   H20618238   3.561   3.539   7.340 -2.3646 -1.1263  0.0938
   57MOL   H20718239   3.770   3.430   7.306  1.8021 -0.6659 -0.5064
   57MOL   H20818240   3.898   3.502   7.218  0.0193 -0.2982  2.2045
   57MOL   H20918241   3.786   3.377   7.138 -1.4912  1.8431 -3.0191
   57MOL   C21018242   3.655   3.716   6.838 -0.4044  0.3890  0.2668
   57MOL   C21118243   3.621   3.576   6.758  0.4331 -1.1378  0.4287
   57MOL   C21218244   3.723   3.565   6.638  0.2235 -0.0394 -0.4562
   57MOL   O21318245   3.709   3.648   6.543 -0.7472 -0.4170  0.3163
   57MOL   N21418246   3.811   3.462   6.626 -0.7928  0.7488 -0.6958
   57MOL   C21518247   3.899   3.464   6.509 -0.0466 -0.0421 -0.1743
   57MOL   C21618248   3.847   3.365   6.734 -0.1871  0.5246  0.1969
   57MOL   H21718249   3.607   3.797   6.783 -0.2099 -0.2785 -0.9175
   57MOL   H21818250   3.763   3.728   6.831  0.1322 -3.8225  0.0641
   57MOL   H21918251   3.640   3.500   6.834 -0.8287 -1.8488  0.0460
   57MOL   H22018252   3.870   3.520   6.420 -0.2682  1.4166  0.7926
   57MOL   H22118253   3.990   3.510   6.548  0.2190 -2.1108  1.7963
   57MOL   H22218254   3.926   3.361   6.488  0.8980  0.2757 -0.5515
   57MOL   H22318255   3.954   3.349   6.730 -0.1698  0.1070  1.8719
   57MOL   H22418256   3.813   3.265   6.706  1.6524 -0.1128  0.1616
   57MOL   H22518257   3.825   3.383   6.839 -2.0485  1.7239 -0.3736
   57MOL   C22618258   3.470   3.566   6.705 -0.0183  0.3569  0.5369
   57MOL   C22718259   3.395   3.433   6.713 -1.2142 -0.2559  0.0948
   57MOL   C22818260   3.355   3.397   6.856 -0.1152  0.2201  1.1665
   57MOL   O22918261   3.422   3.449   6.942 -0.1785  0.0762  0.5013
   57MOL   N23018262   3.238   3.332   6.883 -0.4229 -0.5931  0.1329
   57MOL   C23118263   3.215   3.290   7.016 -0.0217 -0.0145  0.0817
   57MOL   C23218264   3.149   3.272   6.777 -0.5384 -0.3506 -0.6165
   57MOL   H23318265   3.401   3.639   6.746 -1.1536 -0.3318 -0.1181
   57MOL   H23418266   3.462   3.602   6.603 -0.3921 -0.7097  0.1832
   57MOL   H23518267   3.303   3.452   6.657 -1.3788  1.1242  0.8041
   57MOL   H23618268   3.212   3.373   7.087  1.5703 -1.3378  1.7531
   57MOL   H23718269   3.126   3.227   7.030 -0.1891  1.0964  5.0275
   57MOL   H23818270   3.292   3.226   7.058 -0.9730 -1.0820  0.2329
   57MOL   H23918271   3.069   3.208   6.816  0.4029 -0.4444  1.2401
   57MOL   H24018272   3.209   3.209   6.712  1.5718  1.5044 -0.5103
   57MOL   H24118273   3.102   3.348   6.714  1.8862  1.9678  0.2607
   57MOL   C24218274   3.466   3.313   6.643 -0.8132 -0.3309  0.0102
   57MOL   C24318275   3.466   3.312   6.483  0.2519 -0.1293 -0.2036
   57MOL   C24418276   3.326   3.299   6.433  0.0244 -0.4428 -0.4279
   57MOL   O24518277   3.265   3.199   6.464  0.4153  0.3844 -1.0629
   57MOL   N24618278   3.263   3.404   6.374  0.3231 -0.4562 -0.5028
   57MOL   C24718279   3.125   3.399   6.338 -0.4292  0.0876 -0.2209
   57MOL   C24818280   3.329   3.531   6.345  0.3438 -0.7522 -0.4239
   57MOL   H24918281   3.569   3.319   6.679 -0.7184 -1.4524 -0.0569
   57MOL   H25018282   3.434   3.216   6.682  2.9468 -1.6436  0.0469
   57MOL   H25118283   3.513   3.403   6.446 -1.3687  0.3752 -1.0656
   57MOL   H25218284   3.091   3.490   6.289 -1.0063 -0.5781 -1.0740
   57MOL   H25318285   3.123   3.312   6.273  0.3551 -1.6299  1.9977
   57MOL   H25418286   3.061   3.376   6.423  1.5317 -1.8113  0.8013
   57MOL   H25518287   3.318   3.588   6.438  1.6519 -2.5627  0.8804
   57MOL   H25618288   3.273   3.594   6.276  1.6263  1.2594  0.3072
   57MOL   H25718289   3.433   3.527   6.313  1.0278  1.7126  1.2898
   57MOL   C25818290   3.553   3.193   6.436  1.2732  0.3150  0.0448
   57MOL   C25918291   3.604   3.201   6.290  0.6151  0.0659  0.0887
   57MOL   C26018292   3.639   3.049   6.251 -0.1290  0.5631  1.1942
   57MOL   O26118293   3.732   2.997   6.317 -0.1956  0.2535 -1.1359
   57MOL   N26218294   3.584   2.985   6.144  0.4844  0.3435  0.1500
   57MOL   C26318295   3.629   2.852   6.107 -0.2458 -0.1122 -0.2490
   57MOL   C26418296   3.467   3.019   6.070  0.6428  0.5094  0.6843
   57MOL   H26518297   3.633   3.183   6.510 -0.2148 -1.0083  1.5163
   57MOL   H26618298   3.493   3.102   6.437 -1.9762  2.3875 -0.4556
   57MOL   H26718299   3.521   3.240   6.231  1.6059 -0.2600 -1.5385
   57MOL   H26818300   3.734   2.845   6.077  0.6330  0.1171  2.6114
   57MOL   H26918301   3.642   2.788   6.194  1.9548 -2.5387 -2.2602
   57MOL   H27018302   3.562   2.814   6.030 -0.0227 -1.7704  0.3600
   57MOL   H27118303   3.475   3.019   5.961  1.8934 -0.0950  0.7710
   57MOL   H27218304   3.443   3.125   6.069  0.1764  0.4065  0.1710
   57MOL   H27318305   3.383   2.950   6.083 -0.1380  1.6841  1.9542
   57MOL   C27418306   3.724   3.304   6.265  0.0565 -0.6989  0.0999
   57MOL   C27518307   3.747   3.356   6.117 -0.9116 -1.0439  0.3394
   57MOL   C27618308   3.631   3.455   6.088  0.7785  0.0762  0.6698
   57MOL   O27718309   3.528   3.402   6.042 -0.1563 -0.4740  0.4197
   57MOL   N27818310   3.642   3.590   6.093 -0.3864  0.1996 -0.2821
   57MOL   C27918311   3.764   3.659   6.132 -0.0998 -0.1306 -0.1933
   57MOL   C28018312   3.534   3.680   6.043 -0.4871  0.5482  0.0738
   57MOL   H28118313   3.692   3.386   6.331 -1.5950 -1.3567  0.1466
   57MOL   H28218314   3.815   3.269   6.314  0.3152  1.9045  1.5920
   57MOL   H28318315   3.834   3.421   6.112 -0.1650 -2.2173 -3.3102
   57MOL   H28418316   3.845   3.652   6.060  0.9530 -3.4179  1.2072
   57MOL   H28518317   3.745   3.766   6.140  0.4367 -0.0700  0.3152
   57MOL   H28618318   3.803   3.628   6.229  1.5918  1.0086 -0.4982
   57MOL   H28718319   3.532   3.773   6.100  1.8624 -0.0322  1.1412
   57MOL   H28818320   3.443   3.628   6.071  1.1423 -2.3682  0.1500
   57MOL   H28918321   3.540   3.698   5.935  2.7692 -0.6657  0.0097
   57MOL   C29018322   3.766   3.243   6.010  0.7879 -0.3824 -0.2386
   57MOL   C29118323   3.826   3.280   5.870 -1.1725  0.1668 -0.2825
   57MOL   C29218324   3.938   3.387   5.870 -0.7058  0.3372 -0.0406
   57MOL   O29318325   3.899   3.503   5.876  0.3931 -0.5926 -0.3064
   57MOL   N29418326   4.066   3.351   5.872  0.3214  0.2934 -0.3441
   57MOL   C29518327   4.171   3.445   5.915 -0.3597  0.5642 -0.8929
   57MOL   C29618328   4.110   3.216   5.832 -0.2289  0.6237  0.3331
   57MOL   H29718329   3.827   3.165   6.055  0.9958  0.7564  1.4998
   57MOL   H29818330   3.668   3.197   5.994  2.1762 -4.0216  1.1568
   57MOL   H29918331   3.864   3.188   5.827  1.0487 -0.1856  2.2674
   57MOL   H30018332   4.265   3.394   5.932 -0.9741 -0.5066 -0.6567
   57MOL   H30118333   4.186   3.523   5.840 -2.3857  1.1855 -0.6988
   57MOL   H30218334   4.157   3.510   6.002 -0.1577  2.3130 -2.1261
   57MOL   H30318335   4.111   3.163   5.927  2.4928 -0.4235 -0.2324
   57MOL   H30418336   4.211   3.214   5.791  0.1717 -0.6274  1.3378
   57MOL   H30518337   4.056   3.167   5.751  1.0001  0.0565 -0.1646
   57MOL   C30618338   3.706   3.322   5.773  0.4339  0.1401  0.1995
   57MOL   C30718339   3.737   3.336   5.625 -0.1883 -1.0176 -0.0408
   57MOL   C30818340   3.797   3.219   5.548 -0.1426  0.6876  0.5200
   57MOL   O30918341   3.825   3.115   5.607 -0.2190  0.3988  0.0681
   57MOL   N31018342   3.802   3.227   5.410 -0.7184 -0.0957 -0.2478
   57MOL   C31118343   3.778   3.348   5.332 -0.8939  0.8938  0.1363
   57MOL   C31218344   3.832   3.109   5.330  0.2322 -0.2263  0.0659
   57MOL   H31318345   3.626   3.248   5.777  1.4067 -1.0989 -2.1541
   57MOL   H31418346   3.650   3.412   5.796 -0.0516 -0.1845  0.2959
   57MOL   H31518347   3.639   3.359   5.584 -0.6414  0.1609  1.6486
   57MOL   H31618348   3.833   3.352   5.238 -0.2482  2.1907  0.5564
   57MOL   H31718349   3.670   3.350   5.312 -0.9350  2.2482  0.4315
   57MOL   H31818350   3.793   3.442   5.385 -2.2737  1.3297 -0.2151
   57MOL   H31918351   3.740   3.074   5.282  1.0442 -0.6439 -1.1985
   57MOL   H32018352   3.895   3.033   5.376 -0.7050 -0.9734  0.1418
   57MOL   H32118353   3.890   3.133   5.241  1.4119 -0.7677  0.6898
   57MOL   H32218354   3.797   3.426   5.616 -0.6783 -0.5940  0.8639
   58MOL     C118355   3.306   6.904   4.500 -0.3423  0.0676  0.3321
   58MOL     C218356   3.196   6.870   4.600 -0.6382  0.0837  0.5316
   58MOL     C318357   3.101   6.999   4.612  0.3368  0.4552  0.2430
   58MOL     O418358   3.135   7.093   4.681 -0.5365 -0.7825 -0.1762
   58MOL     N518359   2.979   7.005   4.545 -0.5191 -0.0521 -0.4640
   58MOL     C618360   2.913   7.132   4.524  0.0156  0.1054 -0.0563
   58MOL     C718361   2.928   6.897   4.464 -0.0165  0.1015 -0.5139
   58MOL     H818362   3.383   6.827   4.489 -1.0122 -0.5718  0.0644
   58MOL     H918363   3.352   6.998   4.531  0.0620 -0.2272  0.6274
   58MOL    H1018364   3.148   6.785   4.551  0.8639  0.4965 -1.7008
   58MOL    H1118365   2.981   7.209   4.488 -0.9030  2.0062  2.1625
   58MOL    H1218366   2.825   7.138   4.460  0.7729 -0.3129 -1.1524
   58MOL    H1318367   2.882   7.168   4.622  1.7939 -4.1751  2.2133
   58MOL    H1418368   2.990   6.881   4.376  1.2056 -0.0836  0.3811
   58MOL    H1518369   2.835   6.917   4.409 -0.6555 -4.0551 -1.0994
   58MOL    H1618370   2.927   6.796   4.506 -1.4942  0.3449  0.0633
   58MOL    H1718371   3.275   6.921   4.397  1.8139 -0.6823 -0.4747
   58MOL    C1818372   3.238   6.821   4.746  0.3654  0.0828 -0.6938
   58MOL    C1918373   3.151   6.710   4.822  0.4686 -0.3522  0.0219
   58MOL    C2018374   3.159   6.579   4.750  0.1599 -0.0855  0.3769
   58MOL    O2118375   3.102   6.558   4.641  0.8348 -0.7068 -0.1062
   58MOL    N2218376   3.231   6.475   4.800  0.7363 -0.4944  0.4495
   58MOL    C2318377   3.283   6.464   4.937  0.2251  0.4062 -0.5501
   58MOL    C2418378   3.245   6.347   4.726 -0.3411 -0.5430 -0.4563
   58MOL    H2518379   3.338   6.777   4.741  0.0337 -0.6871 -0.6769
   58MOL    H2618380   3.254   6.906   4.812  1.8472 -1.9593  1.6976
   58MOL    H2718381   3.189   6.691   4.923  1.9004  0.0600 -0.4275
   58MOL    H2818382   3.315   6.363   4.963  0.3771  0.3297 -1.0348
   58MOL    H2918383   3.377   6.519   4.937  0.3973  0.1256  0.4508
   58MOL    H3018384   3.220   6.500   5.019 -1.9269 -0.8620 -1.5854
   58MOL    H3118385   3.350   6.336   4.697 -0.0083  0.1074  0.4786
   58MOL    H3218386   3.179   6.341   4.640 -0.4765 -0.1092 -0.3876
   58MOL    H3318387   3.226   6.257   4.785  1.7892 -0.8697 -0.2421
   58MOL    C3418388   2.993   6.753   4.837  0.4421  0.1880  0.3661
   58MOL    C3518389   2.963   6.864   4.945  0.2519 -0.1486 -0.3412
   58MOL    C3618390   2.941   6.800   5.083 -0.0613  0.4350  0.2272
   58MOL    O3718391   2.837   6.734   5.109 -0.5428 -0.1091  0.3882
   58MOL    N3818392   3.044   6.814   5.171 -0.2003 -0.7419  0.1187
   58MOL    C3918393   3.171   6.885   5.147  0.0281  0.2319 -0.0958
   58MOL    C4018394   3.042   6.721   5.284  0.1938  0.1378 -0.7472
   58MOL    H4118395   2.963   6.783   4.737 -1.5526 -0.9775  0.5753
   58MOL    H4218396   2.939   6.663   4.867  0.4060 -0.5101 -1.7278
   58MOL    H4318397   3.047   6.933   4.948  0.9837 -1.0915  1.3533
   58MOL    H4418398   3.149   6.991   5.129  2.2161  0.7480  0.1479
   58MOL    H4518399   3.228   6.890   5.239 -0.5865 -0.0187  0.2998
   58MOL    H4618400   3.232   6.850   5.064 -1.1558 -1.5357 -0.2566
   58MOL    H4718401   3.035   6.618   5.249 -1.3595  0.5193 -1.5946
   58MOL    H4818402   2.961   6.735   5.356  2.3622 -0.1298  1.8290
   58MOL    H4918403   3.133   6.726   5.343 -0.3202  0.7881 -0.0012
   58MOL    C5018404   2.839   6.950   4.905  0.5008 -0.0913  0.7381
   58MOL    C5118405   2.820   7.083   4.985  0.6612  0.6617  0.2950
   58MOL    C5218406   2.662   7.127   4.986 -0.0611  0.3002  0.2028
   58MOL    O5318407   2.617   7.196   4.890 -0.0324  0.0129 -0.9933
   58MOL    N5418408   2.573   7.080   5.073 -0.2914  0.4728  0.2936
   58MOL    C5518409   2.616   6.992   5.188  0.2291 -0.0174  0.2505
   58MOL    C5618410   2.427   7.105   5.078 -0.3339 -0.8142  0.5767
   58MOL    H5718411   2.828   6.974   4.799 -2.4555 -0.7214  0.8385
   58MOL    H5818412   2.747   6.894   4.923 -0.3699  1.3847  0.9945
   58MOL    H5918413   2.845   7.082   5.091  2.5413 -1.5751 -0.1277
   58MOL    H6018414   2.691   7.033   5.256 -1.1131  0.2811  1.5896
   58MOL    H6118415   2.532   6.967   5.254 -0.6192 -0.1337 -0.8455
   58MOL    H6218416   2.668   6.903   5.155 -0.5044 -0.8758  1.3642
   58MOL    H6318417   2.368   7.054   5.154 -1.1883  0.3729  0.7238
   58MOL    H6418418   2.383   7.072   4.983  0.5568  1.4335 -0.6562
   58MOL    H6518419   2.400   7.210   5.084  2.1923 -0.1916  1.5729
   58MOL    C6618420   2.898   7.203   4.924  0.5178  0.7270 -0.6774
   58MOL    C6718421   2.912   7.334   5.007 -0.3556 -0.0526 -0.4324
   58MOL    C6818422   2.916   7.319   5.162  0.8690 -0.2540 -0.2564
   58MOL    O6918423   2.803   7.299   5.219 -0.6160 -0.1079 -0.4052
   58MOL    N7018424   3.034   7.336   5.231  0.0658 -0.5360  0.9885
   58MOL    C7118425   3.169   7.312   5.181  1.2328 -0.8898  0.3314
   58MOL    C7218426   3.019   7.395   5.364 -0.2241 -0.1226  0.6258
   58MOL    H7318427   2.996   7.158   4.905  0.0122 -1.3441  1.3094
   58MOL    H7418428   2.851   7.230   4.830  0.8711  2.3625 -0.4021
   58MOL    H7518429   3.008   7.381   4.987 -0.9643  1.8524  0.9515
   58MOL    H7618430   3.158   7.239   5.101  2.9223 -2.5906  1.6165
   58MOL    H7718431   3.220   7.399   5.138  1.7153 -1.9516 -1.3086
   58MOL    H7818432   3.227   7.272   5.263  0.9053 -0.3169  0.8523
   58MOL    H7918433   2.986   7.328   5.444  0.9601  0.9956  2.0966
   58MOL    H8018434   2.950   7.480   5.361 -0.8473 -0.6234  0.7241
   58MOL    H8118435   3.113   7.434   5.404 -0.6355  1.0891  0.4237
   58MOL    C8218436   2.817   7.453   4.959  0.5874  0.1886 -0.3528
   58MOL    C8318437   2.858   7.596   5.002  0.3802 -0.7012 -0.1819
   58MOL    C8418438   2.725   7.682   5.014  0.5024  0.2519 -0.1862
   58MOL    O8518439   2.677   7.730   4.909 -0.1209  0.0023 -0.0201
   58MOL    N8618440   2.662   7.699   5.137 -0.7139 -0.1177 -0.0111
   58MOL    C8718441   2.722   7.647   5.259 -0.9332  0.4940 -0.0516
   58MOL    C8818442   2.522   7.739   5.147  0.3599 -0.2572 -0.1630
   58MOL    H8918443   2.811   7.457   4.850 -0.9500  1.1368 -0.2493
   58MOL    H9018444   2.720   7.432   5.003  0.9938  0.5704  0.7439
   58MOL    H9118445   2.903   7.596   5.102  0.3565  0.5006 -0.1591
   58MOL    H9218446   2.748   7.541   5.249  0.8852  0.8795  0.5760
   58MOL    H9318447   2.795   7.714   5.304 -0.0973 -1.4853  1.6212
   58MOL    H9418448   2.644   7.639   5.335 -2.7273 -2.7062 -2.0689
   58MOL    H9518449   2.491   7.793   5.057  1.0503  0.0813 -0.2064
   58MOL    H9618450   2.513   7.811   5.228 -1.1606  0.2744 -0.7891
   58MOL    H9718451   2.445   7.662   5.154 -0.9804  1.1028  0.2991
   58MOL    C9818452   2.965   7.669   4.917  0.0794 -0.7961  0.1396
   58MOL    C9918453   3.054   7.786   4.968 -0.0144  0.2493 -0.0420
   58MOL   C10018454   3.099   7.779   5.116  0.0415  0.1579  0.2472
   58MOL   O10118455   3.019   7.830   5.197  0.0196 -0.3325 -0.2477
   58MOL   N10218456   3.222   7.727   5.151  0.0527  0.0969  0.8761
   58MOL   C10318457   3.319   7.671   5.052 -0.0354  0.4259 -0.2971
   58MOL   C10418458   3.254   7.710   5.289 -0.3363 -0.0711 -0.6729
   58MOL   H10518459   3.024   7.589   4.873 -0.5016 -1.0814 -0.1258
   58MOL   H10618460   2.924   7.706   4.823  3.2132  1.1730 -0.5153
   58MOL   H10718461   3.144   7.781   4.906  0.2082 -0.0661  0.3023
   58MOL   H10818462   3.406   7.618   5.091 -0.8749  0.8842  2.2680
   58MOL   H10918463   3.280   7.594   4.984 -0.8811  1.6971 -1.2761
   58MOL   H11018464   3.358   7.756   4.996 -1.0859  2.1839  1.5793
   58MOL   H11118465   3.362   7.719   5.302 -0.2788  0.2859 -1.3450
   58MOL   H11218466   3.235   7.609   5.324 -0.8049 -0.1913 -1.2741
   58MOL   H11318467   3.197   7.770   5.360 -0.7510  0.9816 -1.8717
   58MOL   C11418468   2.996   0.072   4.941 -0.3537 -0.6160 -0.2367
   58MOL   C11518469   3.024   0.135   4.794 -0.0718 -0.2691 -0.5420
   58MOL   C11618470   3.154   0.214   4.798 -0.0822  0.1090 -0.0201
   58MOL   O11718471   3.165   0.317   4.864  0.0189 -0.3349 -0.0229
   58MOL   N11818472   3.265   0.158   4.741  0.0334  0.6917 -0.0927
   58MOL   C11918473   3.273   0.058   4.635 -0.0714 -0.2297  0.1344
   58MOL   C12018474   3.401   0.209   4.776  0.0806 -0.7387 -0.3629
   58MOL   H12118475   2.888   0.060   4.948 -0.7088  2.4841  0.0001
   58MOL   H12218476   3.012   0.148   5.017 -1.4240 -1.2101  0.5899
   58MOL   H12318477   3.017   0.057   4.719  3.4199  0.1648 -1.4023
   58MOL   H12418478   3.238   0.112   4.547  3.8536  0.7794 -0.9295
   58MOL   H12518479   3.363   0.003   4.606  0.0274 -0.5264  0.9762
   58MOL   H12618480   3.202   7.833   4.662  0.9294 -1.2018 -0.0028
   58MOL   H12718481   3.412   0.314   4.802  2.3912 -1.5071  1.9762
   58MOL   H12818482   3.471   0.190   4.694  0.8737  1.1486 -0.1584
   58MOL   H12918483   3.430   0.154   4.866 -1.9774  0.2287  0.9107
   58MOL   C13018484   2.902   0.229   4.758 -0.1240  0.7739 -0.3845
   58MOL   C13118485   2.903   0.309   4.622 -0.0986  0.8915 -0.0162
   58MOL   C13218486   2.784   0.411   4.617 -0.4973  0.2195 -0.0977
   58MOL   O13318487   2.667   0.372   4.590 -0.3708  0.2374  0.3486
   58MOL   N13418488   2.805   0.537   4.659 -0.4329  0.3285 -0.1160
   58MOL   C13518489   2.938   0.596   4.685  0.0224  0.6396  0.2717
   58MOL   C13618490   2.696   0.631   4.647 -0.4235  0.0756 -0.3419
   58MOL   H13718491   2.813   0.166   4.761  0.3106  0.0623 -1.8520
   58MOL   H13818492   2.883   0.303   4.835 -1.6877 -0.4431  0.4048
   58MOL   H13918493   2.991   0.372   4.626  1.2265 -0.7866 -1.6786
   58MOL   H14018494   2.999   0.582   4.596  0.7272 -1.2912  1.0098
   58MOL   H14118495   2.933   0.702   4.710  0.1179  1.0144 -1.2542
   58MOL   H14218496   2.989   0.544   4.767  1.4072  2.4707  0.6105
   58MOL   H14318497   2.620   0.606   4.721 -0.7998  2.3448  0.0731
   58MOL   H14418498   2.637   0.624   4.555 -2.3012 -1.5247  0.9623
   58MOL   H14518499   2.722   0.733   4.675 -3.0201  1.1582 -1.6371
   58MOL   C14618500   2.927   0.231   4.486 -1.1415 -0.2854 -0.3722
   58MOL   C14718501   2.830   0.112   4.448  0.1796 -0.4465 -0.5282
   58MOL   C14818502   2.872   7.822   4.506  0.4341 -0.4029 -0.1313
   58MOL   O14918503   2.990   7.798   4.501  0.2097  0.5711 -0.5104
   58MOL   N15018504   2.789   7.741   4.566  0.0198  0.5799  0.1468
   58MOL   C15118505   2.648   7.780   4.597  0.0699  0.3187 -0.2564
   58MOL   C15218506   2.817   7.598   4.585 -0.6350  0.6020  0.0416
   58MOL   H15318507   2.923   0.307   4.409 -1.5247 -0.1636 -0.2327
   58MOL   H15418508   3.029   0.192   4.490 -0.8688  0.3229 -1.3571
   58MOL   H15518509   2.728   0.131   4.482  1.0028  0.5791  1.4211
   58MOL   H15618510   2.582   7.752   4.515  0.1526  1.1838 -0.6212
   58MOL   H15718511   2.606   7.714   4.673  2.4007 -2.0844 -0.9809
   58MOL   H15818512   2.630   0.029   4.629  0.3924  1.3068 -3.0839
   58MOL   H15918513   2.733   7.543   4.628 -3.7660  2.6041 -3.2324
   58MOL   H16018514   2.906   7.580   4.645 -1.4986 -0.7790  0.9555
   58MOL   H16118515   2.846   7.559   4.488  0.6436 -1.3088  1.1598
   58MOL   C16218516   2.843   0.096   4.292  0.0557 -0.2725 -0.2793
   58MOL   C16318517   2.719   0.146   4.214  0.7997  0.7440 -0.5676
   58MOL   C16418518   2.598   0.048   4.233  0.1664  0.2625 -0.1166
   58MOL   O16518519   2.617   7.780   4.210 -0.1971 -0.1202 -0.5964
   58MOL   N16618520   2.475   0.099   4.268  0.0453  0.6715  0.4321
   58MOL   C16718521   2.455   0.227   4.329  0.4978 -0.0859  0.6758
   58MOL   C16818522   2.355   0.013   4.257  0.7611 -0.2121  0.3225
   58MOL   H16918523   2.937   0.140   4.259  0.8302 -0.0657  2.1450
   58MOL   H17018524   2.854   7.842   4.278  1.1306 -0.1547 -0.3303
   58MOL   H17118525   2.694   0.238   4.266  1.0423  0.4212  0.1275
   58MOL   H17218526   2.478   0.311   4.264 -2.3269  1.4564  1.5969
   58MOL   H17318527   2.348   0.236   4.345  0.1996 -0.7526 -0.8468
   58MOL   H17418528   2.508   0.242   4.423 -2.1838  0.5596  2.1249
   58MOL   H17518529   2.262   0.063   4.231 -0.3365 -1.8003  1.1658
   58MOL   H17618530   2.341   7.797   4.341  0.3969 -1.5236 -0.8080
   58MOL   H17718531   2.357   7.799   4.172 -0.9835 -0.0227  0.1108
   58MOL   C17818532   2.759   0.161   4.069 -0.5247  0.2752  0.0555
   58MOL   C17918533   2.831   0.292   4.017  0.4750 -0.2538 -0.3348
   58MOL   C18018534   2.770   0.418   4.073 -0.1642  0.0764 -0.5680
   58MOL   O18118535   2.649   0.433   4.060  0.0808 -0.7745 -0.2987
   58MOL   N18218536   2.840   0.522   4.116 -0.5635 -0.5250  0.6213
   58MOL   C18318537   2.982   0.526   4.142 -0.6174  0.2071  1.2262
   58MOL   C18418538   2.783   0.654   4.155  0.4880  1.3663  0.1408
   58MOL   H18518539   2.823   0.073   4.056  1.0397  1.6928 -2.1233
   58MOL   H18618540   2.671   0.138   4.009 -1.0256  1.1808  0.4525
   58MOL   H18718541   2.929   0.272   4.061  1.4499 -2.1746 -3.2770
   58MOL   H18818542   3.044   0.466   4.074 -0.8080  0.4430  0.8442
   58MOL   H18918543   3.027   0.624   4.148  1.6307 -0.7148  0.0701
   58MOL   H19018544   2.988   0.480   4.240 -1.7422 -1.6550  0.4573
   58MOL   H19118545   2.771   0.718   4.067  0.2608  0.6240 -0.3753
   58MOL   H19218546   2.835   0.699   4.239 -0.8179 -2.3187  3.0439
   58MOL   H19318547   2.684   0.641   4.199 -1.0022  2.1100 -2.8344
   58MOL   C19418548   2.840   0.290   3.861 -0.5763  0.5297  0.2403
   58MOL   C19518549   2.964   0.204   3.806  0.5454 -0.3477  1.3333
   58MOL   C19618550   3.094   0.277   3.844  0.1730 -0.4690 -0.3067
   58MOL   O19718551   3.126   0.381   3.792 -0.3312  0.0127 -0.3919
   58MOL   N19818552   3.173   0.220   3.935  0.2676  0.4867 -0.3728
   58MOL   C19918553   3.283   0.292   3.996 -0.0136  0.2551 -0.9065
   58MOL   C20018554   3.152   0.092   3.997  0.5343 -0.2185 -0.1502
   58MOL   H20118555   2.751   0.252   3.812  0.8635 -1.3434 -1.0082
   58MOL   H20218556   2.846   0.389   3.817  1.1677  0.5672  0.5042
   58MOL   H20318557   2.952   0.102   3.842 -0.0194 -0.5642  0.5457
   58MOL   H20418558   3.285   0.297   4.105 -1.6256  1.7641 -0.9147
   58MOL   H20518559   3.377   0.239   3.983  1.2136  1.5688  2.0588
   58MOL   H20618560   3.294   0.398   3.970  0.8583  0.1068 -1.1369
   58MOL   H20718561   3.118   0.020   3.922 -0.7825 -0.2969  0.5061
   58MOL   H20818562   3.074   0.091   4.074  0.1749  0.7244 -0.4979
   58MOL   H20918563   3.251   0.062   4.032  0.0677 -1.1379  0.4172
   58MOL   C21018564   2.958   0.184   3.653 -0.2591  0.0312  0.5743
   58MOL   C21118565   2.841   0.089   3.596  0.2566 -0.5626  0.0680
   58MOL   C21218566   2.875   7.798   3.630 -0.6197 -0.2244  0.4107
   58MOL   O21318567   2.969   7.743   3.569  0.4339 -0.2097  0.5905
   58MOL   N21418568   2.797   7.720   3.715  0.0998 -0.0634 -0.0402
   58MOL   C21518569   2.672   7.761   3.778 -0.2559  0.4017 -0.3080
   58MOL   C21618570   2.850   7.590   3.759  0.2501  0.3752  0.5037
   58MOL   H21718571   2.958   0.280   3.603  0.4678  0.0338  0.5798
   58MOL   H21818572   3.053   0.141   3.619 -0.0926 -0.3758  1.5554
   58MOL   H21918573   2.747   0.125   3.639  0.4635  0.5653 -0.4043
   58MOL   H22018574   2.607   7.790   3.695 -1.0853 -2.4630 -0.7398
   58MOL   H22118575   2.611   7.688   3.831  0.8276  0.5067  1.1070
   58MOL   H22218576   2.685   7.846   3.844  0.4900 -0.5029  0.7096
   58MOL   H22318577   2.835   7.570   3.865  1.5391  0.3061  0.6778
   58MOL   H22418578   2.953   7.565   3.737 -1.0872 -1.6245 -4.1487
   58MOL   H22518579   2.784   7.511   3.722  0.7056  0.0106  0.4572
   58MOL   C22618580   2.828   0.109   3.440 -0.7741  0.2136 -0.5212
   58MOL   C22718581   2.693   0.069   3.372 -0.1510 -0.0684 -0.3648
   58MOL   C22818582   2.576   0.154   3.414  0.0097  0.1306 -0.4187
   58MOL   O22918583   2.504   0.108   3.501  0.2015  0.4054  0.2722
   58MOL   N23018584   2.548   0.273   3.361  0.0055  0.0248 -0.8123
   58MOL   C23118585   2.641   0.345   3.271  0.6002  0.2816 -0.1645
   58MOL   C23218586   2.422   0.352   3.382 -0.9435  0.3148  0.1560
   58MOL   H23318587   2.843   0.214   3.417  1.1588 -0.2414 -1.4391
   58MOL   H23418588   2.914   0.061   3.394  0.2687  2.3011 -0.7729
   58MOL   H23518589   2.705   0.097   3.267  1.6867  1.2133  0.1628
   58MOL   H23618590   2.672   0.293   3.180 -0.2337  0.1875 -0.3970
   58MOL   H23718591   2.594   0.438   3.239  0.8001  0.2569 -0.5311
   58MOL   H23818592   2.728   0.370   3.331  0.0863 -1.7693  1.4659
   58MOL   H23918593   2.335   0.287   3.370 -0.8051  0.1914 -0.1638
   58MOL   H24018594   2.405   0.436   3.314  0.4235 -0.7562 -1.5400
   58MOL   H24118595   2.425   0.396   3.482  1.5446 -1.2556  0.8305
   58MOL   C24218596   2.673   7.768   3.382 -0.5930  0.0205 -0.5118
   58MOL   C24318597   2.585   7.699   3.269  0.2875  0.5904  0.6603
   58MOL   C24418598   2.591   7.761   3.127  0.2499  1.1178 -0.0897
   58MOL   O24518599   2.537   0.017   3.109 -0.4634  0.1297  0.0491
   58MOL   N24618600   2.654   7.701   3.022 -0.1251 -0.0214 -0.4779
   58MOL   C24718601   2.658   7.773   2.890 -0.2879  1.1925  0.0836
   58MOL   C24818602   2.713   7.559   3.031  0.7559  0.1239 -0.0789
   58MOL   H24918603   2.772   7.726   3.361 -1.0696 -1.9281  0.9595
   58MOL   H25018604   2.656   7.724   3.480  0.4295 -1.5953 -1.0255
   58MOL   H25118605   2.628   7.600   3.260 -1.5069 -0.1847  0.4874
   58MOL   H25218606   2.650   0.028   2.891 -0.3685  1.2307 -1.9297
   58MOL   H25318607   2.762   7.765   2.856 -0.1812  2.4450  0.0912
   58MOL   H25418608   2.585   7.742   2.815  1.1481  0.3224 -1.0094
   58MOL   H25518609   2.809   7.553   3.082  0.0949 -1.4583  1.0199
   58MOL   H25618610   2.734   7.528   2.928  1.1253 -1.1217  0.3602
   58MOL   H25718611   2.639   7.485   3.063 -1.7980  2.1208 -1.1083
   58MOL   C25818612   2.441   7.679   3.322  0.0521  0.3069  0.4953
   58MOL   C25918613   2.380   7.554   3.258 -0.3404  1.0412  0.3172
   58MOL   C26018614   2.225   7.570   3.240  0.2466  0.5269 -0.7373
   58MOL   O26118615   2.160   7.569   3.350  0.0001  0.0829 -0.8688
   58MOL   N26218616   2.162   7.584   3.120 -0.2658  0.3069 -0.2221
   58MOL   C26318617   2.236   7.576   2.993  0.6781 -0.1729  0.2496
   58MOL   C26418618   2.016   7.606   3.098  0.7543 -0.4602  0.2970
   58MOL   H26518619   2.440   7.671   3.431  1.1940  1.4885  0.6024
   58MOL   H26618620   2.378   7.766   3.304 -0.2242 -0.0838 -0.4463
   58MOL   H26718621   2.422   7.552   3.157  1.0384 -1.6105  0.9123
   58MOL   H26818622   2.331   7.630   2.995  1.4834 -1.5782  0.5018
   58MOL   H26918623   2.269   7.473   2.977  0.0658  0.0581 -2.8520
   58MOL   H27018624   2.181   7.596   2.901  2.2603 -0.2959 -0.7499
   58MOL   H27118625   1.954   7.635   3.183 -1.2817 -1.3685 -0.8208
   58MOL   H27218626   1.968   7.513   3.066  0.4797  0.9012 -3.5114
   58MOL   H27318627   2.016   7.688   3.027  1.8363  0.9715  1.9347
   58MOL   C27418628   2.419   7.432   3.341  0.4007 -0.1582  0.4326
   58MOL   C27518629   2.383   7.287   3.286  0.1289  0.0044 -0.3280
   58MOL   C27618630   2.413   7.181   3.396  0.4316 -0.4585 -0.0800
   58MOL   O27718631   2.529   7.139   3.401  0.3161  0.3060 -0.1842
   58MOL   N27818632   2.312   7.141   3.478  0.1600  0.1933 -0.2081
   58MOL   C27918633   2.332   7.026   3.564  0.2744  0.1683  0.3368
   58MOL   C28018634   2.182   7.198   3.505 -0.7418  0.6489  0.1422
   58MOL   H28118635   2.525   7.438   3.362  0.8816 -1.1984 -1.6655
   58MOL   H28218636   2.373   7.439   3.440  1.1024  1.0862  0.6888
   58MOL   H28318637   2.276   7.289   3.264 -0.0032  0.0922  0.2929
   58MOL   H28418638   2.338   7.068   3.664 -1.0682 -1.3645  1.0877
   58MOL   H28518639   2.244   6.962   3.558  1.4084 -1.5286  1.5842
   58MOL   H28618640   2.427   6.977   3.545  0.0622 -0.6071  1.2140
   58MOL   H28718641   2.191   7.306   3.492  1.3146  0.7491  2.0394
   58MOL   H28818642   2.159   7.195   3.611  2.0596  2.8217  0.8517
   58MOL   H28918643   2.105   7.155   3.441  1.0375 -1.6440 -0.5495
   58MOL   C29018644   2.454   7.254   3.156 -1.0487 -0.1328 -0.2585
   58MOL   C29118645   2.437   7.117   3.085 -0.5382 -0.0354  0.3080
   58MOL   C29218646   2.502   7.131   2.942  0.2533  0.1343  0.3922
   58MOL   O29318647   2.445   7.200   2.857  0.0002  0.2681  0.2778
   58MOL   N29418648   2.612   7.058   2.906 -0.2641 -0.0200 -0.2130
   58MOL   C29518649   2.666   7.073   2.771 -0.7528 -0.4707  0.3781
   58MOL   C29618650   2.658   6.938   2.982  0.4495 -0.4209 -0.0921
   58MOL   H29718651   2.416   7.327   3.084  1.3097  0.0870 -1.3215
   58MOL   H29818652   2.558   7.279   3.179 -1.2159  0.6692 -0.3442
   58MOL   H29918653   2.496   7.046   3.143  0.5797 -1.3253 -2.2734
   58MOL   H30018654   2.762   7.024   2.756 -0.1152  1.0631 -0.6102
   58MOL   H30118655   2.609   7.016   2.698  1.7409 -0.5932 -1.5154
   58MOL   H30218656   2.684   7.175   2.738  2.2174 -0.3471  2.1876
   58MOL   H30318657   2.566   6.889   3.014 -0.0468  0.5243 -0.0424
   58MOL   H30418658   2.727   6.964   3.063  0.6572 -0.5480 -0.2262
   58MOL   H30518659   2.722   6.872   2.923  0.5365 -0.4811  0.0703
   58MOL   C30618660   2.291   7.057   3.084  0.2857 -0.9871 -0.1558
   58MOL   C30718661   2.185   7.142   3.016  1.0066 -0.5123 -0.5128
   58MOL   C30818662   2.038   7.110   3.051 -0.0082  0.6667  0.0367
   58MOL   O30918663   2.014   7.030   3.139 -0.7289  0.1715  0.5911
   58MOL   N31018664   1.940   7.170   2.975 -0.3602  0.2301 -0.3509
   58MOL   C31118665   1.800   7.119   2.971  0.3669 -0.3321  0.0100
   58MOL   C31218666   1.970   7.281   2.887 -0.0101 -0.3353 -0.2127
   58MOL   H31318667   2.285   6.954   3.048  0.6209 -1.4549  1.0963
   58MOL   H31418668   2.260   7.039   3.187  0.9508  0.2649  0.2700
   58MOL   H31518669   2.199   7.245   3.049 -0.6517 -0.1858 -0.7441
   58MOL   H31618670   1.737   7.187   3.029  0.6160 -1.1640  1.2671
   58MOL   H31718671   1.759   7.120   2.870 -1.0371  1.4813  0.5551
   58MOL   H31818672   1.793   7.019   3.012  1.2924 -0.3637  0.1107
   58MOL   H31918673   2.012   7.246   2.793  0.4574  0.7118 -0.4046
   58MOL   H32018674   2.030   7.358   2.935  0.5973 -0.3281 -0.9857
   58MOL   H32118675   1.873   7.324   2.859 -0.3995 -1.2048 -0.1964
   58MOL   H32218676   2.208   7.151   2.910 -1.0901 -0.5723 -0.9969
   59MOL     C118677   0.486   4.613   2.350  0.3867  0.4025  0.4181
   59MOL     C218678   0.636   4.665   2.347  0.0274 -0.6556 -0.3728
   59MOL     C318679   0.660   4.804   2.414  0.9564  0.2686 -0.7802
   59MOL     O418680   0.573   4.891   2.425  0.0184  0.0305 -0.1818
   59MOL     N518681   0.778   4.830   2.469  0.1039 -0.3257  0.6978
   59MOL     C618682   0.891   4.732   2.474 -0.4035  0.0639  0.7996
   59MOL     C718683   0.817   4.954   2.537  0.3131 -0.3239  0.5728
   59MOL     H818684   0.430   4.633   2.258 -1.4427  0.0853  1.4438
   59MOL     H918685   0.419   4.647   2.428 -1.8541 -1.1972 -0.7662
   59MOL    H1018686   0.691   4.593   2.408 -0.9743 -1.7558 -0.7466
   59MOL    H1118687   0.894   4.665   2.388 -0.4661 -0.2335  1.0335
   59MOL    H1218688   0.986   4.787   2.466 -1.8876  2.7876  1.2579
   59MOL    H1318689   0.882   4.676   2.566 -1.4041 -1.5866 -0.2867
   59MOL    H1418690   0.908   5.002   2.502 -0.8688 -0.2422 -2.6021
   59MOL    H1518691   0.848   4.927   2.638  1.1765  0.1191  0.4271
   59MOL    H1618692   0.741   5.033   2.537  1.0890  0.4663  2.6608
   59MOL    H1718693   0.495   4.504   2.357  0.6867  0.5014  1.6867
   59MOL    C1818694   0.690   4.665   2.199 -0.0643  0.0479  0.7321
   59MOL    C1918695   0.701   4.532   2.124  0.5020  0.1221 -0.1236
   59MOL    C2018696   0.816   4.444   2.186 -0.4306 -0.1207 -0.5550
   59MOL    O2118697   0.930   4.481   2.198  0.2162  0.0407 -0.5454
   59MOL    N2218698   0.787   4.323   2.240 -0.1058  0.8685  0.0723
   59MOL    C2318699   0.876   4.277   2.349 -0.2616  0.4754  1.0586
   59MOL    C2418700   0.661   4.245   2.215 -0.6489  0.1827 -0.1196
   59MOL    H2518701   0.649   4.744   2.136  2.0800  0.8344  0.2433
   59MOL    H2618702   0.796   4.685   2.219 -0.1130  0.7826  0.2616
   59MOL    H2718703   0.604   4.482   2.131 -0.1437  0.9241 -2.6864
   59MOL    H2818704   0.893   4.364   2.413 -3.1221  1.0496  1.1041
   59MOL    H2918705   0.826   4.197   2.403 -0.4883 -1.3805 -1.8321
   59MOL    H3018706   0.965   4.236   2.301 -0.8635  0.1084  0.2557
   59MOL    H3118707   0.664   4.143   2.253 -0.9249 -0.2675 -1.2805
   59MOL    H3218708   0.627   4.234   2.112  1.0382 -1.1272 -0.5387
   59MOL    H3318709   0.582   4.297   2.270 -0.0489  0.8641  0.1202
   59MOL    C3418710   0.719   4.546   1.970 -0.5329  0.9349 -0.1112
   59MOL    C3518711   0.586   4.611   1.903  0.1388 -0.8401  0.1573
   59MOL    C3618712   0.469   4.506   1.888 -0.1000 -1.1168  0.0535
   59MOL    O3718713   0.502   4.389   1.866  0.0535  0.8682  0.0582
   59MOL    N3818714   0.333   4.543   1.898 -0.0064 -0.2315 -0.3656
   59MOL    C3918715   0.232   4.436   1.901  0.1509  0.2499 -0.2409
   59MOL    C4018716   0.289   4.675   1.940 -0.6973  0.6325  0.1312
   59MOL    H4118717   0.808   4.606   1.948  3.0162 -2.7010  3.4600
   59MOL    H4218718   0.734   4.447   1.926  2.9387  0.1336  2.6077
   59MOL    H4318719   0.547   4.696   1.958  0.3871 -1.2622  0.9989
   59MOL    H4418720   0.224   4.390   1.802 -1.4266  0.7586 -0.3512
   59MOL    H4518721   0.270   4.355   1.963 -1.8415 -0.9067 -0.5034
   59MOL    H4618722   0.141   4.482   1.937 -0.7031 -1.3751 -0.2708
   59MOL    H4718723   0.358   4.757   1.920  1.2208 -1.2529 -1.1816
   59MOL    H4818724   0.267   4.688   2.045 -0.6191 -1.0360  0.3599
   59MOL    H4918725   0.200   4.704   1.884 -2.9364 -1.4774  2.4832
   59MOL    C5018726   0.633   4.663   1.768  0.8766  0.3403 -0.2579
   59MOL    C5118727   0.714   4.800   1.763 -0.0607  0.2197  0.5389
   59MOL    C5218728   0.616   4.922   1.768 -0.1368 -0.4028  0.0018
   59MOL    O5318729   0.526   4.932   1.682 -0.0807  0.2300 -0.0502
   59MOL    N5418730   0.619   5.014   1.873 -0.2805 -0.1078  0.7325
   59MOL    C5518731   0.521   5.124   1.867  0.5720  0.0775  0.2429
   59MOL    C5618732   0.727   5.012   1.969  0.2079 -0.0182 -0.0679
   59MOL    H5718733   0.688   4.576   1.733  0.0365 -0.1900 -0.2468
   59MOL    H5818734   0.553   4.670   1.695  0.1295 -0.0551  0.5118
   59MOL    H5918735   0.779   4.804   1.851 -0.9419  3.6349  1.1168
   59MOL    H6018736   0.555   5.222   1.900 -0.3657 -0.2111  2.1502
   59MOL    H6118737   0.454   5.138   1.782 -0.3894 -1.7678  0.6791
   59MOL    H6218738   0.456   5.101   1.951  0.7065 -0.9377  0.0763
   59MOL    H6318739   0.825   5.019   1.921  0.0537 -0.8211 -0.5030
   59MOL    H6418740   0.734   4.934   2.045  0.9991 -1.7696 -1.9267
   59MOL    H6518741   0.721   5.107   2.023 -2.5297 -0.1718 -0.0329
   59MOL    C6618742   0.801   4.804   1.636  0.2718  0.2481 -0.3510
   59MOL    C6718743   0.940   4.736   1.666  0.2121 -0.0718 -0.3988
   59MOL    C6818744   1.038   4.838   1.713  0.2513 -0.2214 -0.4352
   59MOL    O6918745   1.034   4.950   1.659 -0.4458  1.0809 -0.4927
   59MOL    N7018746   1.119   4.814   1.818 -0.4231 -0.0426  0.7868
   59MOL    C7118747   1.119   4.696   1.902 -0.0766 -0.1478  0.3865
   59MOL    C7218748   1.203   4.919   1.863  0.3363 -0.1877  0.3412
   59MOL    H7318749   0.751   4.746   1.559 -0.0723 -0.2067  0.2135
   59MOL    H7418750   0.801   4.910   1.611 -1.5034  0.6818  1.3680
   59MOL    H7518751   0.917   4.664   1.745 -0.2903  0.9052  0.3563
   59MOL    H7618752   1.104   4.610   1.837 -1.2423  0.9510 -0.8359
   59MOL    H7718753   1.210   4.687   1.961 -0.9703  0.1980  1.8501
   59MOL    H7818754   1.034   4.701   1.971 -1.5825  2.6011 -1.5855
   59MOL    H7918755   1.284   4.881   1.925  1.0033 -0.9117 -0.9323
   59MOL    H8018756   1.149   4.986   1.929  0.2381  0.3698 -0.3052
   59MOL    H8118757   1.261   4.966   1.783  0.2817  0.1977  0.5308
   59MOL    C8218758   1.000   4.668   1.539 -0.4164  0.7629  0.8842
   59MOL    C8318759   0.939   4.532   1.498 -0.5595 -0.4946  0.0019
   59MOL    C8418760   0.896   4.434   1.610  0.1270  0.5340 -0.0648
   59MOL    O8518761   0.971   4.433   1.709 -0.1430 -0.0380 -0.1186
   59MOL    N8618762   0.786   4.360   1.604  0.0917  0.5665  0.3088
   59MOL    C8718763   0.759   4.261   1.712  0.3444 -0.3391 -0.3062
   59MOL    C8818764   0.686   4.378   1.499  0.8153  0.1869 -0.0043
   59MOL    H8918765   1.002   4.738   1.456  1.0424 -0.3756 -0.0579
   59MOL    H9018766   1.104   4.643   1.562  1.0772  3.0746 -2.8450
   59MOL    H9118767   0.839   4.558   1.463 -0.7549 -2.9426 -1.3729
   59MOL    H9218768   0.814   4.285   1.804 -0.1133  0.3372 -0.2003
   59MOL    H9318769   0.653   4.253   1.739 -0.0426 -0.8120 -1.9267
   59MOL    H9418770   0.798   4.167   1.674 -0.5301  0.0376 -2.1739
   59MOL    H9518771   0.716   4.356   1.397  1.0240 -1.3743  0.3738
   59MOL    H9618772   0.619   4.464   1.503  0.6534  0.0319  0.6876
   59MOL    H9718773   0.625   4.291   1.521 -0.5036  0.5848 -1.9669
   59MOL    C9818774   1.010   4.469   1.379 -0.1071  0.2275  0.1981
   59MOL    C9918775   1.160   4.429   1.386 -1.1447 -0.7029  0.0714
   59MOL   C10018776   1.258   4.539   1.341  0.9655  0.2855 -0.7611
   59MOL   O10118777   1.246   4.586   1.230 -0.4135 -0.1453  1.0383
   59MOL   N10218778   1.348   4.582   1.427 -0.4510 -1.0400 -0.5168
   59MOL   C10318779   1.447   4.685   1.386 -0.1028  0.2555 -0.5128
   59MOL   C10418780   1.378   4.506   1.547  1.1154 -0.0509 -0.5161
   59MOL   H10518781   0.960   4.373   1.365  2.9589 -1.0242 -2.8325
   59MOL   H10618782   1.002   4.523   1.285 -1.6257 -1.0475 -0.4301
   59MOL   H10718783   1.171   4.396   1.489  1.9162  2.0894  0.7019
   59MOL   H10818784   1.506   4.725   1.469 -2.5240  0.5703  1.1396
   59MOL   H10918785   1.512   4.624   1.325  1.2865 -0.6779  1.8171
   59MOL   H11018786   1.409   4.768   1.326  1.8290 -0.4783 -2.7904
   59MOL   H11118787   1.294   4.502   1.617 -0.6191  0.8036 -2.4966
   59MOL   H11218788   1.450   4.549   1.616  1.6252  0.7719 -1.5371
   59MOL   H11318789   1.409   4.403   1.533  4.6551  0.5602  2.0222
   59MOL   C11418790   1.195   4.311   1.299  0.4680 -0.2409  0.3866
   59MOL   C11518791   1.174   4.170   1.368  0.1413 -0.1236 -0.1548
   59MOL   C11618792   1.305   4.142   1.454  0.2439 -0.4928  0.5953
   59MOL   O11718793   1.411   4.153   1.395 -0.3286  0.4078 -1.1340
   59MOL   N11818794   1.295   4.107   1.587 -0.5801  0.0152  0.3259
   59MOL   C11918795   1.167   4.097   1.659 -0.0336  0.3535  0.6921
   59MOL   C12018796   1.416   4.084   1.669 -0.2383  0.4481  0.0429
   59MOL   H12118797   1.136   4.316   1.208  0.8750  4.5863  0.2911
   59MOL   H12218798   1.292   4.317   1.250 -0.0596  0.6648 -0.5374
   59MOL   H12318799   1.084   4.171   1.429 -0.6649  0.8181 -1.3399
   59MOL   H12418800   1.132   4.200   1.653 -0.8122  0.1212  1.1363
   59MOL   H12518801   1.095   4.029   1.612  1.9056 -3.0757  2.4284
   59MOL   H12618802   1.179   4.065   1.763 -2.3328 -0.1528  0.8379
   59MOL   H12718803   1.466   4.004   1.614 -2.3782  0.2440 -1.7263
   59MOL   H12818804   1.392   4.063   1.773 -1.6802 -2.8401 -0.8870
   59MOL   H12918805   1.476   4.174   1.653  2.0210 -0.8499  1.0870
   59MOL   C13018806   1.157   4.057   1.259  0.3846  0.0736  0.2187
   59MOL   C13118807   1.016   4.010   1.229  0.4400  0.3950  0.3398
   59MOL   C13218808   0.922   4.132   1.207 -0.5970 -0.1680  0.5837
   59MOL   O13318809   0.827   4.154   1.284 -0.2135 -0.5899 -0.1865
   59MOL   N13418810   0.930   4.198   1.087  0.7713 -0.2975 -0.0203
   59MOL   C13518811   0.853   4.315   1.060  0.0129 -0.6821 -0.3375
   59MOL   C13618812   1.010   4.147   0.972 -0.3484  0.4163 -0.3759
   59MOL   H13718813   1.205   4.093   1.168  0.6805 -0.0864  0.3130
   59MOL   H13818814   1.206   3.965   1.288  2.1496  1.0377  0.3729
   59MOL   H13918815   1.021   3.947   1.141  0.2013 -0.1262  0.6961
   59MOL   H14018816   0.830   4.366   1.153 -0.5260 -1.4576 -0.0401
   59MOL   H14118817   0.912   4.381   0.996  0.3127  0.1868  0.8235
   59MOL   H14218818   0.762   4.289   1.007  0.5720 -2.8424 -0.2928
   59MOL   H14318819   0.979   4.043   0.966 -1.0736  0.5946  0.2117
   59MOL   H14418820   1.119   4.154   0.976 -0.3782  1.6096 -1.3058
   59MOL   H14518821   0.974   4.190   0.878 -2.2802 -1.4364 -0.5174
   59MOL   C14618822   0.966   3.904   1.332 -0.3452 -0.4595  0.6976
   59MOL   C14718823   0.829   3.834   1.278 -0.2388 -0.3846  0.1178
   59MOL   C14818824   0.744   3.784   1.395 -0.2837  0.9769 -0.0100
   59MOL   O14918825   0.810   3.738   1.492  0.4560 -0.4353 -0.3539
   59MOL   N15018826   0.614   3.779   1.401  0.6198 -0.6783  0.6007
   59MOL   C15118827   0.541   3.736   1.524  0.6738 -0.4752  0.1486
   59MOL   C15218828   0.532   3.823   1.288 -0.0795  0.1728 -0.2378
   59MOL   H15318829   1.044   3.831   1.354 -0.4905 -1.1875 -1.1037
   59MOL   H15418830   0.950   3.957   1.426  0.9586 -0.1443  0.7413
   59MOL   H15518831   0.766   3.916   1.245 -0.5374  0.2922  2.2506
   59MOL   H15618832   0.434   3.723   1.507  1.0331 -0.0736 -2.5069
   59MOL   H15718833   0.571   3.634   1.548 -1.9738 -0.7661  2.5526
   59MOL   H15818834   0.564   3.799   1.611  1.9384 -0.4379 -0.2062
   59MOL   H15918835   0.575   3.801   1.190 -0.6748 -0.8435 -0.2734
   59MOL   H16018836   0.524   3.931   1.297  1.7886  0.2512  0.7618
   59MOL   H16118837   0.433   3.779   1.277  0.8688 -2.4948  1.4373
   59MOL   C16218838   0.851   3.731   1.165  1.3616 -0.3117  0.3406
   59MOL   C16318839   0.902   3.588   1.212 -0.6536  0.3475  0.7545
   59MOL   C16418840   1.050   3.579   1.254  0.2158  0.2396 -0.5876
   59MOL   O16518841   1.133   3.646   1.195  0.0048 -0.6254 -0.1548
   59MOL   N16618842   1.092   3.486   1.347 -0.3846 -0.2227  0.4376
   59MOL   C16718843   1.004   3.409   1.432 -0.3799  0.3585  0.3762
   59MOL   C16818844   1.236   3.438   1.339 -0.4975  0.2216 -0.1657
   59MOL   H16918845   0.760   3.728   1.105  2.0056 -1.0328 -0.6093
   59MOL   H17018846   0.925   3.768   1.094 -0.6638 -1.3221 -2.3613
   59MOL   H17118847   0.845   3.555   1.300 -0.2028  0.6651  1.1697
   59MOL   H17218848   0.931   3.476   1.477 -1.4697 -1.1429  0.9151
   59MOL   H17318849   0.948   3.332   1.378  2.0389 -1.5240  0.4773
   59MOL   H17418850   1.055   3.349   1.507  1.3573  0.0490 -1.0232
   59MOL   H17518851   1.270   3.425   1.237 -0.4641 -0.2264 -0.0987
   59MOL   H17618852   1.268   3.346   1.387  1.1777  1.4028  1.0372
   59MOL   H17718853   1.303   3.517   1.372 -0.3308 -0.0298  0.0956
   59MOL   C17818854   0.875   3.474   1.107  0.2407  0.2507  0.0321
   59MOL   C17918855   0.736   3.402   1.103 -0.2456  0.1367 -0.6388
   59MOL   C18018856   0.636   3.474   1.006 -0.1984 -0.2524  0.3942
   59MOL   O18118857   0.561   3.556   1.054 -0.3720  0.0274 -0.4925
   59MOL   N18218858   0.623   3.426   0.881  0.2416 -0.4103  0.0344
   59MOL   C18318859   0.503   3.455   0.799 -0.0862 -0.0349 -0.5905
   59MOL   C18418860   0.721   3.337   0.816  0.3525  0.2520 -0.1817
   59MOL   H18518861   0.902   3.525   1.015  1.3104  0.2399  0.3335
   59MOL   H18618862   0.942   3.389   1.118 -2.7107 -2.3742 -1.7366
   59MOL   H18718863   0.757   3.304   1.061 -1.0242  0.7759 -2.5677
   59MOL   H18818864   0.497   3.382   0.718 -0.8109 -1.4947  0.7395
   59MOL   H18918865   0.416   3.441   0.863  0.2743 -0.9927 -0.2996
   59MOL   H19018866   0.506   3.557   0.763 -0.0509 -0.4522 -1.7918
   59MOL   H19118867   0.712   3.359   0.709  0.9334  0.3872 -0.2057
   59MOL   H19218868   0.684   3.236   0.829 -0.9559  0.8421  0.6910
   59MOL   H19318869   0.819   3.337   0.865  0.2392 -1.4391  0.0805
   59MOL   C19418870   0.673   3.365   1.245  0.8927 -0.2097 -0.6716
   59MOL   C19518871   0.536   3.276   1.241 -0.8058  0.0021  0.3053
   59MOL   C19618872   0.462   3.275   1.373  0.1806 -0.5286 -0.0981
   59MOL   O19718873   0.492   3.197   1.465  0.0492 -0.4316  0.1987
   59MOL   N19818874   0.353   3.357   1.387  0.4607  0.4036 -0.5908
   59MOL   C19918875   0.257   3.347   1.506  0.1688  0.7138  0.0511
   59MOL   C20018876   0.310   3.471   1.296 -0.5467  0.0613 -0.1470
   59MOL   H20118877   0.746   3.313   1.307 -0.4520  0.6611  1.7091
   59MOL   H20218878   0.651   3.450   1.309  0.4997 -1.4767  0.9082
   59MOL   H20318879   0.475   3.324   1.165  1.7839  4.5732  0.9198
   59MOL   H20418880   0.287   3.412   1.589  0.8705  0.3492  0.0894
   59MOL   H20518881   0.156   3.373   1.474  0.4469 -0.9349 -2.2937
   59MOL   H20618882   0.243   3.249   1.552  2.1659  1.3011  2.0007
   59MOL   H20718883   0.389   3.517   1.237  0.1250 -1.0751 -0.1492
   59MOL   H20818884   0.265   3.544   1.363  1.5547 -1.9188  3.5736
   59MOL   H20918885   0.223   3.440   1.238 -1.3046  0.7492  0.5991
   59MOL   C21018886   0.575   3.127   1.205 -0.3851  0.0163 -0.0663
   59MOL   C21118887   0.463   3.045   1.146  0.2046  0.5305  0.5789
   59MOL   C21218888   0.462   2.900   1.206  0.5049 -0.0766 -0.1171
   59MOL   O21318889   0.557   2.837   1.175  0.5496  0.6465 -0.1034
   59MOL   N21418890   0.360   2.861   1.285  0.0436  0.4505  0.3655
   59MOL   C21518891   0.368   2.723   1.332  0.1740  0.0110  0.0830
   59MOL   C21618892   0.260   2.944   1.348  0.3346  0.2936 -0.3854
   59MOL   H21718893   0.650   3.140   1.126 -0.0030  2.0063  0.5970
   59MOL   H21818894   0.618   3.086   1.296 -1.5969  0.8376  0.8979
   59MOL   H21918895   0.369   3.091   1.177 -0.0580  0.3464  0.0581
   59MOL   H22018896   0.467   2.693   1.367 -1.4440 -0.4300  4.5929
   59MOL   H22118897   0.293   2.693   1.405 -0.9622  0.9062 -0.7120
   59MOL   H22218898   0.351   2.656   1.248  1.4295 -0.9701  0.5992
   59MOL   H22318899   0.197   2.984   1.269  0.0429 -1.6609 -1.1596
   59MOL   H22418900   0.293   3.022   1.417 -0.0678 -0.6811  0.9170
   59MOL   H22518901   0.200   2.889   1.420 -0.2958 -3.0225 -3.2967
   59MOL   C22618902   0.458   3.056   0.988  0.2783  0.1436 -0.5782
   59MOL   C22718903   0.360   2.960   0.920  0.0723 -0.0290  0.1401
   59MOL   C22818904   0.400   2.956   0.765  0.7295  0.4866  0.5060
   59MOL   O22918905   0.382   3.047   0.688 -0.8038 -0.0830  0.2118
   59MOL   N23018906   0.452   2.844   0.710 -0.5560 -0.0256  0.1856
   59MOL   C23118907   0.474   2.834   0.569 -0.4367  0.7483  0.1419
   59MOL   C23218908   0.503   2.725   0.781  0.5530  0.0385  0.2662
   59MOL   H23318909   0.423   3.158   0.971 -6.7771 -2.0639 -0.8187
   59MOL   H23418910   0.556   3.038   0.946  0.2944 -0.7179 -0.2027
   59MOL   H23518911   0.370   2.856   0.953  2.9437 -0.1235 -0.9137
   59MOL   H23618912   0.379   2.845   0.517  0.1081  3.2348 -0.3680
   59MOL   H23718913   0.530   2.918   0.530  0.2457  1.0425  1.7371
   59MOL   H23818914   0.518   2.739   0.540  0.4398  1.5704 -1.2686
   59MOL   H23918915   0.534   2.747   0.884 -0.3565 -0.0779  0.5648
   59MOL   H24018916   0.593   2.689   0.732  0.5274  1.4889 -0.8782
   59MOL   H24118917   0.435   2.641   0.780 -0.6561  1.0051 -0.6965
   59MOL   C24218918   0.210   3.000   0.945 -0.8469  0.3771  0.5516
   59MOL   C24318919   0.114   2.885   0.915  0.4356 -0.1145 -0.5375
   59MOL   C24418920   7.831   2.944   0.858  0.1417 -0.4556  0.2593
   59MOL   O24518921   7.743   2.972   0.940 -0.3760 -0.3659 -0.0353
   59MOL   N24618922   7.801   2.949   0.728 -0.3762 -0.1779  0.1732
   59MOL   C24718923   7.665   2.975   0.671 -0.5449 -0.5260 -0.3041
   59MOL   C24818924   0.047   2.929   0.616  0.2357 -0.3107 -0.0277
   59MOL   H24918925   0.185   3.019   1.049  2.7784  1.8615  1.2280
   59MOL   H25018926   0.168   3.091   0.901 -0.5515 -0.0710 -0.6703
   59MOL   H25118927   0.162   2.830   0.833  1.0518  0.7091 -0.7356
   59MOL   H25218928   7.595   2.997   0.751  1.3466 -0.2364  1.2960
   59MOL   H25318929   7.671   3.065   0.610  1.5714 -0.1767  0.3972
   59MOL   H25418930   7.629   2.899   0.602 -0.5812  1.7054 -2.8288
   59MOL   H25518931   0.110   3.017   0.627 -1.9436  0.9211  3.6088
   59MOL   H25618932   0.008   2.924   0.514  1.9504  1.0490 -0.7634
   59MOL   H25718933   0.113   2.842   0.619  1.5582  0.6337 -1.2179
   59MOL   C25818934   0.096   2.800   1.039 -0.0362 -0.3370  0.6302
   59MOL   C25918935   0.021   2.663   1.014  0.0730 -0.4839 -0.8619
   59MOL   C26018936   7.790   2.630   1.140 -0.4076 -0.1264  0.0040
   59MOL   O26118937   7.845   2.595   1.245 -0.4193  0.5932  0.0426
   59MOL   N26218938   7.654   2.647   1.140 -0.1186  0.0079  0.1502
   59MOL   C26318939   7.571   2.687   1.026 -0.8039 -0.4542  0.4653
   59MOL   C26418940   7.583   2.666   1.273  0.1402  0.2522 -0.6820
   59MOL   H26518941   0.190   2.776   1.089  0.8238 -0.1883 -0.8936
   59MOL   H26618942   0.051   2.853   1.123  0.3717 -0.3563  0.8665
   59MOL   H26718943   7.810   2.674   0.926  0.4011  1.1886 -0.9182
   59MOL   H26818944   7.471   2.704   1.065 -1.3635 -2.5882  0.0390
   59MOL   H26918945   7.607   2.775   0.972 -0.5101 -0.5303  0.5409
   59MOL   H27018946   7.571   2.602   0.957  2.3529 -0.6839  0.6921
   59MOL   H27118947   7.649   2.697   1.354 -0.3088  1.5376 -0.7876
   59MOL   H27218948   7.546   2.574   1.318 -0.6600  1.4154  1.1075
   59MOL   H27318949   7.499   2.736   1.272 -2.5766 -2.8483 -0.1862
   59MOL   C27418950   0.125   2.562   0.978  0.1503  0.1619  0.0120
   59MOL   C27518951   0.078   2.440   0.896 -0.2773 -0.2793 -0.2770
   59MOL   C27618952   0.186   2.328   0.908  0.4375  0.0815  0.4946
   59MOL   O27718953   0.302   2.353   0.878 -0.5207 -0.2326  0.1451
   59MOL   N27818954   0.145   2.203   0.941 -0.3431  0.1244 -0.3888
   59MOL   C27918955   0.254   2.098   0.957  0.7984 -0.4866  0.5292
   59MOL   C28018956   0.007   2.166   0.992 -0.4127  0.0986 -0.8124
   59MOL   H28118957   0.214   2.610   0.939  1.6480 -0.3025  2.7064
   59MOL   H28218958   0.147   2.534   1.081  0.6911 -2.1482 -0.7181
   59MOL   H28318959   7.836   2.408   0.936 -0.0857 -0.9427 -0.3483
   59MOL   H28418960   0.256   2.069   1.062 -0.2297 -0.4832  0.5596
   59MOL   H28518961   0.220   2.005   0.911  1.2451 -1.4540  2.1253
   59MOL   H28618962   0.352   2.127   0.919  0.0716  1.8210  0.3879
   59MOL   H28718963   0.006   2.070   1.044  2.1953  0.2568 -0.3853
   59MOL   H28818964   7.783   2.153   0.917 -0.1485 -0.8133 -0.9387
   59MOL   H28918965   7.827   2.241   1.064 -3.1420 -1.3040 -0.5366
   59MOL   C29018966   0.049   2.490   0.750  0.4095 -0.8311 -0.3314
   59MOL   C29118967   7.766   2.479   0.699 -0.6284 -0.6144  0.0761
   59MOL   C29218968   7.733   2.337   0.663  0.2558  0.1108  0.7170
   59MOL   O29318969   7.800   2.284   0.574 -0.0278  0.0520 -0.0273
   59MOL   N29418970   7.641   2.262   0.723 -0.6110  0.2407  0.2094
   59MOL   C29518971   7.551   2.311   0.829 -0.2409  0.3747 -0.6703
   59MOL   C29618972   7.607   2.127   0.680  0.3274  0.5598  0.2379
   59MOL   H29718973   0.069   2.596   0.735  1.6704 -0.6692  2.0989
   59MOL   H29818974   0.127   2.448   0.686  0.9498  0.9374 -0.8530
   59MOL   H29918975   7.707   2.514   0.783  0.2104  1.3190 -0.1261
   59MOL   H30018976   7.608   2.326   0.920 -0.8863 -0.0312 -0.1929
   59MOL   H30118977   7.497   2.401   0.800  1.2103  1.8013  0.9283
   59MOL   H30218978   7.462   2.254   0.856  0.8875 -0.5721  1.1473
   59MOL   H30318979   7.700   2.073   0.666  0.6291  1.0511  0.3366
   59MOL   H30418980   7.556   2.135   0.584 -1.0956 -3.1395  0.6124
   59MOL   H30518981   7.539   2.074   0.747  0.2096  1.0201  0.4905
   59MOL   C30618982   7.739   2.583   0.581  0.4946  0.0641 -1.2184
   59MOL   C30718983   7.606   2.583   0.502  0.1661 -0.1440  0.7044
   59MOL   C30818984   7.485   2.617   0.594 -0.8758  0.6920  0.0542
   59MOL   O30918985   7.495   2.715   0.667  0.1561 -0.6352 -0.2282
   59MOL   N31018986   7.368   2.546   0.580  0.7067 -0.1135  1.0923
   59MOL   C31118987   7.350   2.441   0.483 -0.8777  0.3138  0.1640
   59MOL   C31218988   7.257   2.559   0.682 -0.2192  0.1815  0.0718
   59MOL   H31318989   7.764   2.678   0.629  1.1878 -0.4691 -0.5170
   59MOL   H31418990   7.825   2.565   0.518  1.8457 -0.2155  0.6480
   59MOL   H31518991   7.620   2.643   0.412 -0.8341 -1.1464 -0.1449
   59MOL   H31618992   7.380   2.490   0.390 -1.4418  2.4050  1.0389
   59MOL   H31718993   7.400   2.346   0.498  0.1896  0.5700 -1.5617
   59MOL   H31818994   7.243   2.425   0.469 -1.0229  1.5820 -0.2332
   59MOL   H31918995   7.199   2.470   0.706 -0.8613  0.5785  0.0091
   59MOL   H32018996   7.183   2.629   0.645 -0.0602 -1.1274 -2.8356
   59MOL   H32118997   7.297   2.595   0.777  0.6072  1.4551 -0.7440
   59MOL   H32218998   7.602   2.480   0.466  0.4498 -0.4522  1.5461
   60MOL     C118999   3.215   1.365   7.372 -0.2628 -0.2404  0.6398
   60MOL     C219000   3.155   1.235   7.420  0.1172 -0.4366  0.4658
   60MOL     C319001   3.066   1.249   7.540  0.3081  0.0008 -0.0587
   60MOL     O419002   3.122   1.280   7.647 -0.4652 -0.2599  0.0029
   60MOL     N519003   2.936   1.217   7.539 -0.8135  0.4180 -0.3731
   60MOL     C619004   2.861   1.144   7.431  0.1311  0.0775  0.7460
   60MOL     C719005   2.844   1.266   7.647 -0.1101 -0.0354  0.0667
   60MOL     H819006   3.127   1.421   7.341  0.6342  1.1767  0.5850
   60MOL     H919007   3.291   1.348   7.296  0.3354  1.7765  0.7643
   60MOL    H1019008   3.096   1.201   7.335 -0.9607  0.5079  0.8212
   60MOL    H1119009   2.913   1.048   7.428  0.4130  0.2760 -1.8324
   60MOL    H1219010   2.756   1.128   7.457 -0.1423  0.7941  0.0914
   60MOL    H1319011   2.870   1.183   7.330 -0.3504 -0.5560  0.4486
   60MOL    H1419012   2.766   1.329   7.603 -1.1590 -0.8448  0.7336
   60MOL    H1519013   2.896   1.324   7.723 -0.4897 -1.6594  1.5844
   60MOL    H1619014   2.806   1.176   7.693  0.8836  0.4130  1.7888
   60MOL    H1719015   3.263   1.423   7.451 -0.1699 -1.8610  1.7856
   60MOL    C1819016   3.269   1.138   7.439  0.5534 -0.0049  0.4669
   60MOL    C1919017   3.328   1.079   7.307 -0.3448  0.8148 -0.2215
   60MOL    C2019018   3.225   0.999   7.229  0.6665  0.1229 -0.0523
   60MOL    O2119019   3.167   0.901   7.285  0.0863 -0.0144 -0.1427
   60MOL    N2219020   3.197   1.030   7.102  0.5818  0.5923  0.2231
   60MOL    C2319021   3.247   1.152   7.030  0.1196 -0.4614  0.4614
   60MOL    C2419022   3.113   0.941   7.015  0.5014 -0.3542 -0.2335
   60MOL    H2519023   3.338   1.183   7.510 -0.0571  0.6992  0.6139
   60MOL    H2619024   3.246   1.053   7.504 -0.9238  0.5579  0.7069
   60MOL    H2719025   3.381   1.148   7.242 -1.6545  1.4607 -0.6107
   60MOL    H2819026   3.182   1.184   6.949 -0.6431 -0.3958  1.0841
   60MOL    H2919027   3.246   1.241   7.093 -1.1577  0.1195 -0.3588
   60MOL    H3019028   3.345   1.132   6.989 -0.0006  0.9940 -0.5464
   60MOL    H3119029   3.137   0.950   6.909  0.8186 -2.6077 -0.3589
   60MOL    H3219030   3.007   0.966   7.018 -0.0295 -2.6941  1.3538
   60MOL    H3319031   3.117   0.837   7.045 -1.2039 -0.4488 -0.2878
   60MOL    C3419032   3.440   0.977   7.356  0.3209 -0.1782  0.4937
   60MOL    C3519033   3.584   1.031   7.379  0.1015 -0.5615  1.3087
   60MOL    C3619034   3.641   1.097   7.245  0.1678  0.4523  1.2716
   60MOL    O3719035   3.655   1.021   7.147 -0.0353  0.2644  0.5389
   60MOL    N3819036   3.674   1.226   7.241 -0.0501 -0.2312 -0.3861
   60MOL    C3919037   3.623   1.329   7.336  0.0283 -0.0355 -0.2831
   60MOL    C4019038   3.740   1.278   7.122  0.0678  0.0752 -0.4536
   60MOL    H4119039   3.419   0.915   7.443 -0.8513 -1.7943 -0.8937
   60MOL    H4219040   3.449   0.899   7.280  1.1393 -1.1449  1.5536
   60MOL    H4319041   3.571   1.112   7.451  1.0799 -0.1449  1.0264
   60MOL    H4419042   3.648   1.432   7.309 -0.3406  0.1212 -0.0374
   60MOL    H4519043   3.514   1.323   7.345  0.1559  0.4254  1.9083
   60MOL    H4619044   3.668   1.326   7.435  0.0970 -0.4232 -0.3289
   60MOL    H4719045   3.792   1.374   7.130 -0.9692  0.6801 -0.8626
   60MOL    H4819046   3.667   1.279   7.041  1.0419  2.2136 -1.3579
   60MOL    H4919047   3.820   1.213   7.088  2.3068  2.3747  0.2109
   60MOL    C5019048   3.685   0.927   7.444  0.6372  0.0251  0.1056
   60MOL    C5119049   3.802   1.007   7.513  0.2471  0.0101  0.0242
   60MOL    C5219050   3.921   0.920   7.539 -0.2623 -0.2061  0.0406
   60MOL    O5319051   3.924   0.849   7.644  0.0715 -0.6368  0.0978
   60MOL    N5419052   4.022   0.909   7.452 -0.1404 -0.1905  0.0449
   60MOL    C5519053   4.137   0.821   7.486  0.0298 -0.0724 -1.0014
   60MOL    C5619054   4.009   0.951   7.313  0.1825  0.3041 -0.1523
   60MOL    H5719055   3.637   0.866   7.521  0.8896  0.5204  0.6550
   60MOL    H5819056   3.717   0.845   7.380 -1.8875 -0.6313 -0.3915
   60MOL    H5919057   3.827   1.082   7.438  0.3945 -0.0561  0.0081
   60MOL    H6019058   4.101   0.719   7.474 -0.5138 -0.0100  0.0509
   60MOL    H6119059   4.222   0.833   7.419 -0.3637 -2.5433 -2.0022
   60MOL    H6219060   4.191   0.835   7.579 -1.5879  2.0335 -0.3279
   60MOL    H6319061   3.933   0.887   7.268  0.0762 -1.6053  2.6196
   60MOL    H6419062   4.094   0.936   7.246  2.5005  1.4029  2.4838
   60MOL    H6519063   3.987   1.057   7.301  0.9248  0.7107  1.9891
   60MOL    C6619064   3.759   1.099   7.630 -0.4052  0.4171  0.0376
   60MOL    C6719065   3.682   1.046   7.751  0.2250  0.3709  0.0800
   60MOL    C6819066   3.532   1.005   7.726 -0.1573 -0.3667 -0.0199
   60MOL    O6919067   3.460   1.099   7.705  0.1567 -0.2734  0.0743
   60MOL    N7019068   3.483   0.882   7.748 -0.0061 -0.3429  0.0995
   60MOL    C7119069   3.338   0.864   7.749  0.2691 -0.6549  0.2940
   60MOL    C7219070   3.563   0.768   7.778 -0.2578 -0.2731  0.6555
   60MOL    H7319071   3.848   1.135   7.681  0.6831 -1.0705 -0.7580
   60MOL    H7419072   3.729   1.197   7.593  0.3608  1.1895  1.4104
   60MOL    H7519073   3.737   0.958   7.785 -0.4825 -0.9743 -2.1743
   60MOL    H7619074   3.315   0.792   7.670  0.1771 -1.3746  0.9740
   60MOL    H7719075   3.302   0.810   7.836 -3.2801 -0.9355 -1.2447
   60MOL    H7819076   3.279   0.955   7.737 -0.3189 -1.2236 -1.2416
   60MOL    H7919077   3.561   0.761   0.033  1.1268  2.2611  0.8907
   60MOL    H8019078   3.664   0.775   7.739 -0.3955  1.3913  0.5396
   60MOL    H8119079   3.530   0.674   7.733 -0.3176 -0.1413  0.4234
   60MOL    C8219080   3.702   1.136   0.030  0.2651  0.4606  0.1930
   60MOL    C8319081   3.641   1.277   0.057 -0.1028  0.8870 -0.6711
   60MOL    C8419082   3.692   1.382   7.807  0.4411  0.1951  0.2569
   60MOL    O8519083   3.815   1.388   7.800  0.1345  0.4956  0.4386
   60MOL    N8619084   3.617   1.463   7.733 -0.0939 -0.5175 -0.4979
   60MOL    C8719085   3.467   1.458   7.734  0.2495 -0.0200 -0.4688
   60MOL    C8819086   3.662   1.573   7.645  0.3375  0.7872  0.3059
   60MOL    H8919087   3.653   1.078   0.108 -0.8681  1.4991  0.2685
   60MOL    H9019088   3.809   1.130   0.053 -0.1097 -1.8792  1.5666
   60MOL    H9119089   3.534   1.259   0.046  0.2481 -1.2450 -0.7854
   60MOL    H9219090   3.425   1.553   7.701  0.0135  0.3583  0.8906
   60MOL    H9319091   3.432   1.374   7.675  0.2512  0.6773 -1.4806
   60MOL    H9419092   3.443   1.448   7.840  1.9446 -1.3279 -0.1859
   60MOL    H9519093   3.698   1.661   7.698 -1.8084  2.7112 -1.3434
   60MOL    H9619094   3.584   1.608   7.577  0.1149  0.6568  0.4941
   60MOL    H9719095   3.737   1.527   7.580 -1.4353  1.0836 -2.0075
   60MOL    C9819096   3.676   1.297   0.206 -0.1926 -0.4050  0.3463
   60MOL    C9919097   3.618   1.422   0.266 -0.1344 -0.0494 -0.7759
   60MOL   C10019098   3.718   1.477   0.370  0.3552 -0.0250  0.0504
   60MOL   O10119099   3.721   1.408   0.476 -0.5982  0.3809  0.5852
   60MOL   N10219100   3.792   1.590   0.342  0.5442 -0.7782  0.6509
   60MOL   C10319101   3.859   1.650   0.455  0.1567  0.4018  0.8757
   60MOL   C10419102   3.815   1.652   0.215 -0.0810  0.1649  0.5447
   60MOL   H10519103   3.639   1.213   0.265  1.1841 -2.1559 -1.2431
   60MOL   H10619104   3.785   1.299   0.219 -0.1896 -0.3970  0.3163
   60MOL   H10719105   3.607   1.492   0.183 -1.8804  1.2407  0.4920
   60MOL   H10819106   3.925   1.730   0.420 -0.1598  0.3387  0.1402
   60MOL   H10919107   3.789   1.695   0.525 -2.3701 -2.0586  0.0077
   60MOL   H11019108   3.923   1.578   0.506 -1.5339 -2.8811 -1.4174
   60MOL   H11119109   3.916   1.690   0.200 -0.3848  0.7479 -0.0800
   60MOL   H11219110   3.750   1.738   0.197 -2.9945 -2.4246 -1.7703
   60MOL   H11319111   3.797   1.580   0.135 -0.5802  0.3671  0.4756
   60MOL   C11419112   3.467   1.403   0.317 -0.5746 -0.4491  0.5336
   60MOL   C11519113   3.391   1.532   0.361  0.7759  0.1342  0.0063
   60MOL   C11619114   3.379   1.642   0.247  1.3020  0.2494  0.1968
   60MOL   O11719115   3.459   1.735   0.242 -0.1518 -0.5308 -0.3298
   60MOL   N11819116   3.279   1.635   0.154 -0.2592 -0.7716 -0.2151
   60MOL   C11919117   3.185   1.523   0.132  0.3136 -0.0188  0.1910
   60MOL   C12019118   3.244   1.744   0.073  0.1121 -0.3064 -0.3592
   60MOL   H12119119   3.409   1.358   0.236  1.2526  1.5622 -1.9938
   60MOL   H12219120   3.450   1.332   0.398 -2.7788 -1.5947 -0.8769
   60MOL   H12319121   3.287   1.510   0.383  0.3370  2.6144  0.6053
   60MOL   H12419122   3.090   1.551   0.087  0.4212 -1.9585 -1.2627
   60MOL   H12519123   3.227   1.442   0.073 -0.9619  0.0793 -0.8895
   60MOL   H12619124   3.159   1.481   0.229  2.5448 -1.2853  0.2833
   60MOL   H12719125   3.206   1.827   0.133 -1.5771  0.6244 -2.6744
   60MOL   H12819126   3.179   1.724   7.842  2.2734  0.4723 -2.2693
   60MOL   H12919127   3.338   1.777   0.028  0.5567 -1.7551 -0.5083
   60MOL   C13019128   3.440   1.586   0.498 -0.1341  1.1167  0.0865
   60MOL   C13119129   3.333   1.603   0.606 -0.6911  0.1315 -0.0169
   60MOL   C13219130   3.263   1.467   0.648  0.3553  0.4792  0.4163
   60MOL   O13319131   3.172   1.436   0.575  0.1247  0.3918  0.0797
   60MOL   N13419132   3.303   1.402   0.763  0.1960 -0.0133  0.1872
   60MOL   C13519133   3.224   1.300   0.820  0.2210  0.2118  0.0226
   60MOL   C13619134   3.416   1.449   0.842 -0.4655  0.0370 -0.3042
   60MOL   H13719135   3.500   1.503   0.536 -0.4346  0.4530 -0.8829
   60MOL   H13819136   3.491   1.682   0.484 -2.0413  1.8754 -1.9671
   60MOL   H13919137   3.382   1.633   0.698  0.3017 -1.0078 -0.1674
   60MOL   H14019138   3.160   1.256   0.744 -0.6089 -0.3323  1.0154
   60MOL   H14119139   3.284   1.232   0.881 -1.1730  1.1602  2.5048
   60MOL   H14219140   3.155   1.358   0.882 -0.7085 -2.0377  1.1646
   60MOL   H14319141   3.459   1.363   0.895 -1.3108 -0.0488  0.2576
   60MOL   H14419142   3.377   1.520   0.915 -0.5714  0.3589 -0.6723
   60MOL   H14519143   3.497   1.491   0.783 -0.4586  0.3711 -0.0559
   60MOL   C14619144   3.234   1.722   0.589 -0.9485  0.0529  0.2373
   60MOL   C14719145   3.296   1.868   0.595 -0.0205  0.0668 -0.8842
   60MOL   C14819146   3.408   1.886   0.702 -0.1716 -0.1850 -0.0216
   60MOL   O14919147   3.377   1.841   0.813 -0.2381  0.0276  0.4071
   60MOL   N15019148   3.524   1.947   0.662 -0.3182 -0.1941 -0.3028
   60MOL   C15119149   3.556   2.019   0.535 -0.0769 -0.1518  0.0939
   60MOL   C15219150   3.639   1.934   0.759  0.0469 -0.3492 -0.0260
   60MOL   H15319151   3.178   1.713   0.496 -1.1262 -1.6842  0.4974
   60MOL   H15419152   3.171   1.702   0.677  0.5028 -0.4450  1.1818
   60MOL   H15519153   3.333   1.874   0.493  1.8341 -0.3907 -0.2645
   60MOL   H15619154   3.558   1.941   0.459  1.1611  1.4736 -1.6059
   60MOL   H15719155   3.487   2.100   0.511 -2.3921 -1.6404  1.5518
   60MOL   H15819156   3.660   2.051   0.536  0.0053 -0.0612 -3.6534
   60MOL   H15919157   3.733   1.922   0.706 -0.4701 -0.7500 -0.8700
   60MOL   H16019158   3.625   1.847   0.824  2.0421 -0.0066  0.9032
   60MOL   H16119159   3.636   2.021   0.824  2.4504 -0.1737 -0.1318
   60MOL   C16219160   3.183   1.967   0.608 -0.7923  0.4496 -0.6008
   60MOL   C16319161   3.135   2.035   0.470  0.1398  0.0628  0.3404
   60MOL   C16419162   3.216   2.159   0.428 -0.1240  0.2238  0.2342
   60MOL   O16519163   3.203   2.254   0.510  0.0416  0.3872 -0.0691
   60MOL   N16619164   3.296   2.172   0.322 -0.2371 -0.5711  0.1266
   60MOL   C16719165   3.385   2.289   0.315  0.3696 -0.6273  0.2564
   60MOL   C16819166   3.289   2.094   0.202 -0.4015  0.3435  0.0387
   60MOL   H16919167   3.107   1.911   0.662 -0.8662  1.4260  0.3095
   60MOL   H17019168   3.202   2.041   0.685 -0.4995 -1.0807  0.8299
   60MOL   H17119169   3.149   1.964   0.388  1.3265  1.1951 -0.4824
   60MOL   H17219170   3.460   2.277   0.237  0.0813  2.3185 -0.5094
   60MOL   H17319171   3.317   2.368   0.281  1.4112  0.3771  0.4902
   60MOL   H17419172   3.427   2.318   0.411 -1.2570  2.4337  0.0938
   60MOL   H17519173   3.328   1.995   0.226  1.5484  1.5985  2.1947
   60MOL   H17619174   3.345   2.143   0.123  0.6499  2.0758  1.8338
   60MOL   H17719175   3.183   2.093   0.176 -0.4283  0.2267  0.1482
   60MOL   C17819176   2.988   2.072   0.477 -0.2124  0.3502  0.9066
   60MOL   C17919177   2.873   1.971   0.483 -0.3142 -0.6186 -0.4052
   60MOL   C18019178   2.901   1.846   0.390 -0.3874 -0.5119 -0.1794
   60MOL   O18119179   2.939   1.860   0.280 -0.1170  0.0578  0.2461
   60MOL   N18219180   2.884   1.724   0.454 -0.0614 -0.1979  0.6686
   60MOL   C18319181   2.791   1.693   0.570  0.0078 -0.4518 -0.2016
   60MOL   C18419182   2.922   1.605   0.379 -0.3008 -0.4861  0.0048
   60MOL   H18519183   2.969   2.139   0.560 -0.6246  1.5782 -0.1532
   60MOL   H18619184   2.962   2.137   0.393  1.5826 -0.9833 -0.7413
   60MOL   H18719185   2.871   1.924   0.581 -0.6170 -1.2037 -0.6862
   60MOL   H18819186   2.726   1.615   0.530  1.4217 -0.5068 -2.5042
   60MOL   H18919187   2.835   1.664   0.666 -2.6489 -1.7234  0.7009
   60MOL   H19019188   2.719   1.773   0.584  1.2365  0.2259  2.6438
   60MOL   H19119189   3.023   1.619   0.342 -0.1942  2.6373  1.3056
   60MOL   H19219190   2.847   1.599   0.300  0.5326  1.5767 -0.9800
   60MOL   H19319191   2.916   1.517   0.442 -1.1969 -0.9057 -0.6487
   60MOL   C19419192   2.741   2.042   0.440 -0.0915  0.1550  0.0731
   60MOL   C19519193   2.683   2.136   0.547 -0.1679  0.2394 -0.0910
   60MOL   C19619194   2.611   2.051   0.656 -0.4654 -0.1963 -0.2022
   60MOL   O19719195   2.513   1.989   0.624  0.3717  0.0484  0.1945
   60MOL   N19819196   2.665   2.050   0.780 -0.2162  0.5135  0.2350
   60MOL   C19919197   2.641   1.939   0.866  0.1108  0.6862 -0.5820
   60MOL   C20019198   2.763   2.146   0.831 -0.1963  0.3366  0.5186
   60MOL   H20119199   2.748   2.092   0.344 -0.6886  3.0683  1.4958
   60MOL   H20219200   2.662   1.969   0.421 -1.7568  2.2381 -1.1735
   60MOL   H20319201   2.760   2.203   0.586  1.1404 -1.1200 -0.3152
   60MOL   H20419202   2.539   1.942   0.904  0.1974  1.5081 -0.4010
   60MOL   H20519203   2.654   1.844   0.816 -0.0361 -0.6860  1.9168
   60MOL   H20619204   2.709   1.936   0.951 -1.7334 -0.9693  0.8631
   60MOL   H20719205   2.782   2.155   0.938  0.6768 -0.5599  0.4411
   60MOL   H20819206   2.723   2.245   0.807  0.0439 -0.0579 -1.6619
   60MOL   H20919207   2.859   2.125   0.784  0.0404  0.9209  0.7424
   60MOL   C21019208   2.588   2.238   0.479  0.3250  0.4482  0.0473
   60MOL   C21119209   2.655   2.360   0.421 -0.2381 -0.1218 -0.0242
   60MOL   C21219210   2.694   2.465   0.526 -0.3524 -0.4663  0.2645
   60MOL   O21319211   2.602   2.517   0.594  0.4390  0.3668 -0.3585
   60MOL   N21419212   2.824   2.499   0.555  0.4669  0.4003  0.0586
   60MOL   C21519213   2.943   2.456   0.476  0.1853 -0.5872 -0.3983
   60MOL   C21619214   2.860   2.600   0.652  0.3771  0.2785 -0.2009
   60MOL   H21719215   2.521   2.185   0.411 -0.3871  1.0328  0.2904
   60MOL   H21819216   2.525   2.275   0.560 -0.7282  0.2625 -0.6861
   60MOL   H21919217   2.743   2.313   0.378 -0.5757 -1.9181  1.1876
   60MOL   H22019218   2.952   2.508   0.381  1.3647  1.5314  0.8340
   60MOL   H22119219   3.039   2.465   0.528 -0.1866  0.3917  0.1226
   60MOL   H22219220   2.942   2.347   0.469  0.9118 -0.8379  2.6656
   60MOL   H22319221   2.835   2.558   0.750 -1.7728 -0.8630 -1.1874
   60MOL   H22419222   2.794   2.687   0.642 -0.8444 -0.4778  1.0556
   60MOL   H22519223   2.964   2.632   0.650  1.3657 -2.8225 -1.1401
   60MOL   C22619224   2.579   2.418   0.306  0.6946 -0.6728  0.1164
   60MOL   C22719225   2.576   2.339   0.171  0.4637  0.2223 -1.0840
   60MOL   C22819226   2.714   2.290   0.128  0.5356  0.6871 -0.0045
   60MOL   O22919227   2.817   2.365   0.130  0.4970 -0.2647  0.0182
   60MOL   N23019228   2.723   2.156   0.101 -0.2516 -0.1852 -0.8063
   60MOL   C23119229   2.853   2.100   0.068  0.2397  0.2769  0.3106
   60MOL   C23219230   2.615   2.052   0.110 -0.5125  0.0346 -0.1151
   60MOL   H23319231   2.475   2.429   0.334 -0.1412 -0.4099 -2.9794
   60MOL   H23419232   2.618   2.517   0.283  0.1885  0.0180  2.1376
   60MOL   H23519233   2.500   2.261   0.178 -0.7535  1.4890 -0.1484
   60MOL   H23619234   2.916   2.106   0.156 -1.4512 -0.6614  1.6054
   60MOL   H23719235   2.850   1.996   0.034 -1.0922 -0.0393  1.3562
   60MOL   H23819236   2.898   2.155   7.839  0.0985  0.4432  0.3439
   60MOL   H23919237   2.523   2.078   0.056 -1.4018 -1.8117  0.4721
   60MOL   H24019238   2.583   2.020   0.209  1.7491 -0.4423  0.4932
   60MOL   H24119239   2.646   1.961   0.058  2.0843  0.7837  0.0749
   60MOL   C24219240   2.524   2.438   0.060 -0.9338 -0.0076  0.3719
   60MOL   C24319241   2.516   2.392   7.760  0.3902  0.1091 -0.4861
   60MOL   C24419242   2.654   2.402   7.696 -0.0260 -0.4730  0.0334
   60MOL   O24519243   2.720   2.508   7.720 -0.0575  0.0452  0.1876
   60MOL   N24619244   2.702   2.302   7.618 -0.7003 -0.1629 -0.3730
   60MOL   C24719245   2.632   2.177   7.592  0.2311  0.8112  0.2764
   60MOL   C24819246   2.831   2.323   7.551  0.2289 -0.2906 -0.5446
   60MOL   H24919247   2.428   2.476   0.095 -1.0861  1.6341 -1.7376
   60MOL   H25019248   2.580   2.530   0.075  1.3075 -1.3105  0.2375
   60MOL   H25119249   2.473   2.292   7.753  0.1131  0.2207 -0.3956
   60MOL   H25219250   2.696   2.101   7.548  0.9857  1.2062  0.6772
   60MOL   H25319251   2.592   2.134   7.684  0.1972  0.2062 -0.0254
   60MOL   H25419252   2.541   2.190   7.535  0.2916  1.3461  0.2919
   60MOL   H25519253   2.843   2.428   7.526 -1.5168  0.8477  3.0974
   60MOL   H25619254   2.846   2.256   7.466 -1.9021 -0.9052 -0.4459
   60MOL   H25719255   2.909   2.283   7.616  1.4877  2.3065 -0.4063
   60MOL   C25819256   2.433   2.496   7.676  0.2678  0.1215  0.7796
   60MOL   C25919257   2.276   2.484   7.687  0.0004 -0.0617 -0.5175
   60MOL   C26019258   2.236   2.339   7.642  0.3681  0.0287  0.8693
   60MOL   O26119259   2.248   2.308   7.523  0.0093 -0.5438  0.2423
   60MOL   N26219260   2.180   2.254   7.731 -0.4790 -0.2792 -0.0454
   60MOL   C26319261   2.121   2.134   7.674  0.1284  0.2088  0.0765
   60MOL   C26419262   2.142   2.289   0.015 -0.4223  0.2021  0.1008
   60MOL   H26519263   2.460   2.595   7.713 -1.9536  1.3577 -0.7621
   60MOL   H26619264   2.462   2.495   7.571 -3.3060  0.5347 -0.2822
   60MOL   H26719265   2.252   2.499   7.792 -0.2583 -0.9413 -0.4515
   60MOL   H26819266   2.069   2.065   7.741  0.8635 -2.1726 -1.7349
   60MOL   H26919267   2.044   2.158   7.601 -0.5120 -1.6445  0.1262
   60MOL   H27019268   2.203   2.083   7.624 -0.7753  0.3808 -1.5903
   60MOL   H27119269   2.117   2.199   0.072  0.7566 -1.2415 -1.6007
   60MOL   H27219270   2.061   2.362   0.018  0.3907  1.1816 -1.3785
   60MOL   H27319271   2.229   2.330   0.066 -1.0252  1.0390  0.4746
   60MOL   C27419272   2.210   2.590   7.596 -0.7176  0.3750  0.3327
   60MOL   C27519273   2.052   2.599   7.594  0.3017 -0.8342  0.5258
   60MOL   C27619274   2.005   2.687   7.477 -0.7310  0.6546  0.5587
   60MOL   O27719275   1.981   2.803   7.503 -0.2294 -0.2022 -0.6133
   60MOL   N27819276   1.996   2.638   7.352 -0.1783 -0.1773 -0.4138
   60MOL   C27919277   2.042   2.504   7.316  0.9103 -0.0284  0.1767
   60MOL   C28019278   1.967   2.719   7.240 -0.1360  0.2130  0.1989
   60MOL   H28119279   2.247   2.690   7.617  1.3184 -0.0052 -1.3277
   60MOL   H28219280   2.241   2.567   7.494  1.2462 -0.4132  1.0788
   60MOL   H28319281   2.007   2.503   7.568 -2.7191  0.2938  1.4038
   60MOL   H28419282   2.115   2.509   7.235  0.6262 -0.2819 -0.0960
   60MOL   H28519283   2.082   2.438   7.393 -0.7983 -0.9694  0.2787
   60MOL   H28619284   1.963   2.439   7.278 -0.4318 -0.0696  2.9585
   60MOL   H28719285   1.960   2.655   7.151  0.5744  2.3511 -1.4401
   60MOL   H28819286   2.048   2.789   7.221 -0.2566  0.4168  0.4421
   60MOL   H28919287   1.870   2.769   7.242  1.2795  2.9802  1.4754
   60MOL   C29019288   1.985   2.638   7.724 -0.4215  0.1245  0.0037
   60MOL   C29119289   2.046   2.758   7.801 -0.1266 -0.3279 -0.1913
   60MOL   C29219290   2.160   2.727   0.051 -0.4314  0.9458 -0.5073
   60MOL   O29319291   2.153   2.632   0.133  0.8524 -0.3165  0.1163
   60MOL   N29419292   2.269   2.802   0.047  0.1084  0.1294 -0.3018
   60MOL   C29519293   2.280   2.927   7.817 -0.2136 -0.2531 -0.4462
   60MOL   C29619294   2.393   2.765   0.116  1.0592  0.4296  0.2360
   60MOL   H29719295   1.880   2.658   7.705  0.0462  0.8028 -1.9405
   60MOL   H29819296   1.971   2.554   7.793 -2.5368  1.9346  1.8749
   60MOL   H29919297   2.095   2.812   7.720 -1.4113 -0.0257 -0.7755
   60MOL   H30019298   2.275   2.906   7.710 -0.4051 -1.6352 -0.1749
   60MOL   H30119299   2.194   2.990   7.841 -0.3868 -0.0011 -1.6713
   60MOL   H30219300   2.364   2.994   7.833 -0.3785 -0.1887  0.1645
   60MOL   H30319301   2.377   2.723   0.215  2.1002  1.1120  0.7004
   60MOL   H30419302   2.446   2.852   0.155 -2.3736  2.2353  1.0306
   60MOL   H30519303   2.447   2.701   0.046  1.4931  0.2851  0.7032
   60MOL   C30619304   1.940   2.844   0.021  0.0868  0.4762  0.2220
   60MOL   C30719305   1.863   2.935   7.786 -0.8122  0.0198  0.7165
   60MOL   C30819306   1.723   2.966   7.843 -0.1271  0.3302 -0.0237
   60MOL   O30919307   1.650   2.868   7.851  0.5233  0.1140 -0.7683
   60MOL   N31019308   1.675   3.090   0.021  0.3888 -0.3589  0.2906
   60MOL   C31119309   1.536   3.106   0.058  0.0572  0.2813 -0.6407
   60MOL   C31219310   1.736   3.207   7.825  0.2886 -0.1082  0.6373
   60MOL   H31319311   1.877   2.769   0.068  2.5082 -2.0544 -0.3880
   60MOL   H31419312   1.980   2.901   0.105 -0.5846 -0.5198  1.2399
   60MOL   H31519313   1.919   3.027   7.764  2.7546 -2.0318  0.8523
   60MOL   H31619314   1.487   3.145   7.822  2.3328  0.0292 -2.0409
   60MOL   H31719315   1.490   3.025   0.115  2.0197  1.4996  2.8004
   60MOL   H31819316   1.534   3.192   0.125  0.3679  0.3984 -0.7823
   60MOL   H31919317   1.678   3.293   0.003  0.2728  0.2082 -0.2375
   60MOL   H32019318   1.751   3.209   7.717  3.4913  2.2150  1.0478
   60MOL   H32119319   1.834   3.213   0.020  0.3511  0.5236  0.4254
   60MOL   H32219320   1.834   2.883   7.695 -2.5855 -0.5671  1.6067
   61MOL     C119321   4.863   7.721   6.609 -0.1101 -0.0411 -0.6696
   61MOL     C219322   4.790   7.639   6.718 -0.0495  0.5120 -0.1908
   61MOL     C319323   4.651   7.604   6.666 -0.3557 -0.2638 -0.3169
   61MOL     O419324   4.557   7.665   6.714 -0.1173  0.2432 -0.2934
   61MOL     N519325   4.635   7.510   6.570 -0.1336 -0.1240 -0.1841
   61MOL     C619326   4.498   7.491   6.533 -1.0103  0.9678  0.5427
   61MOL     C719327   4.732   7.448   6.488  0.4322  0.2959  0.2885
   61MOL     H819328   4.801   7.810   6.600 -0.2403 -0.0631 -0.0718
   61MOL     H919329   4.868   7.672   6.512  2.4852  1.1289 -1.1602
   61MOL    H1019330   4.836   7.542   6.737  0.8277  0.8012 -0.8171
   61MOL    H1119331   4.458   7.584   6.494  0.1390  0.8699 -0.8821
   61MOL    H1219332   4.464   7.413   6.465 -2.1978  1.8208  0.1544
   61MOL    H1319333   4.439   7.469   6.622 -2.2507 -1.0583 -0.7336
   61MOL    H1419334   4.681   7.373   6.427 -2.6496 -0.3164  3.3930
   61MOL    H1519335   4.814   7.396   6.538  1.4334  0.3192 -1.3245
   61MOL    H1619336   4.769   7.514   6.410  2.0637 -1.0602 -0.1132
   61MOL    H1719337   4.966   7.748   6.631 -0.6331  1.9315 -0.5382
   61MOL    C1819338   4.790   7.716   6.855  0.0896  0.3163 -0.3683
   61MOL    C1919339   4.725   0.002   6.857  0.3293  0.3983  0.8315
   61MOL    C2019340   4.818   0.116   6.828  0.2451 -0.0574  0.0829
   61MOL    O2119341   4.932   0.115   6.880  0.2984 -0.1364  0.3646
   61MOL    N2219342   4.779   0.210   6.741  0.2906 -0.5657 -0.1320
   61MOL    C2319343   4.646   0.243   6.695 -0.2262 -0.1096  0.1186
   61MOL    C2419344   4.887   0.305   6.702 -0.0076 -0.3985  0.4873
   61MOL    H2519345   4.715   7.664   6.914  1.0838  0.1764  0.7931
   61MOL    H2619346   4.887   7.698   6.901  0.5016 -2.5840 -2.1914
   61MOL    H2719347   4.647   0.005   6.780  0.7262  2.3795  0.4816
   61MOL    H2819348   4.613   0.317   6.767 -1.6529 -0.7148  0.0962
   61MOL    H2919349   4.652   0.282   6.593  1.8517  1.9589  0.9792
   61MOL    H3019350   4.576   0.160   6.691 -0.3330 -0.0853  1.2614
   61MOL    H3119351   4.858   0.339   6.603  3.0069  1.1020  0.0773
   61MOL    H3219352   4.986   0.261   6.688 -0.7241 -2.4197  1.4448
   61MOL    H3319353   4.878   0.386   6.774  1.3365  2.0241 -1.9897
   61MOL    C3419354   4.660   0.021   6.996 -0.1229 -0.6737 -0.0707
   61MOL    C3519355   4.532   7.789   7.034 -0.7191 -0.1880  0.0281
   61MOL    C3619356   4.407   0.021   7.074 -0.3589  0.0999 -0.4130
   61MOL    O3719357   4.412   0.084   7.176  0.0423  0.1337 -0.6959
   61MOL    N3819358   4.299   0.024   6.990  0.0109 -0.1379  0.4311
   61MOL    C3919359   4.311   0.023   6.843 -0.4045  0.0668  0.8564
   61MOL    C4019360   4.165   0.057   7.032 -0.1981 -0.3474  0.2054
   61MOL    H4119361   4.744   0.010   7.064  0.3572 -0.6555 -0.6527
   61MOL    H4219362   4.641   0.128   7.006 -0.2052 -0.5225 -1.6923
   61MOL    H4319363   4.496   7.723   6.955 -1.0463  0.4002 -0.3117
   61MOL    H4419364   4.272   0.118   6.807 -0.3253  0.2398  1.2291
   61MOL    H4519365   4.412   0.013   6.802 -0.0994  2.6557  0.8539
   61MOL    H4619366   4.246   7.799   6.803  0.1784 -0.9142  1.7883
   61MOL    H4719367   4.109   0.091   6.945  1.4925  0.3453 -0.6295
   61MOL    H4819368   4.154   0.132   7.112 -1.9894  0.8977 -1.1680
   61MOL    H4919369   4.122   7.813   7.055  1.7060 -1.1291  0.5454
   61MOL    C5019370   4.577   7.692   7.150 -0.1077 -0.5600  0.4813
   61MOL    C5119371   4.526   7.548   7.154 -0.2347 -0.7087 -0.3734
   61MOL    C5219372   4.383   7.522   7.105  0.4276 -0.4219  0.0670
   61MOL    O5319373   4.295   7.580   7.167 -0.4599  0.0761 -0.1001
   61MOL    N5419374   4.359   7.431   7.007  0.3238 -0.1699  0.0698
   61MOL    C5519375   4.222   7.380   6.981 -0.1763  0.0136 -0.4559
   61MOL    C5619376   4.469   7.356   6.932  0.5487  0.2038  0.1055
   61MOL    H5719377   4.686   7.688   7.159 -0.0863  2.1775  1.9966
   61MOL    H5819378   4.564   7.741   7.246 -2.6561 -0.8009  0.2877
   61MOL    H5919379   4.604   7.502   7.093 -0.4828 -3.4809  1.3260
   61MOL    H6019380   4.210   7.295   7.048 -0.7746  0.1247 -0.4218
   61MOL    H6119381   4.148   7.456   7.009  0.6868  1.3078 -1.6169
   61MOL    H6219382   4.218   7.341   6.880  1.6953  0.9356 -0.9014
   61MOL    H6319383   4.515   7.278   6.993  0.1517 -0.0333  0.0974
   61MOL    H6419384   4.544   7.427   6.896  1.3849 -0.9203 -0.3872
   61MOL    H6519385   4.425   7.311   6.843 -1.6331 -0.2808  1.3875
   61MOL    C6619386   4.537   7.482   7.304 -0.8132 -0.5453  0.1539
   61MOL    C6719387   4.670   7.492   7.379  0.0572  0.1005 -0.0795
   61MOL    C6819388   4.789   7.440   7.299  0.0841  0.3784 -0.0375
   61MOL    O6919389   4.781   7.328   7.247  0.4470 -0.4896 -0.8218
   61MOL    N7019390   4.909   7.510   7.281  0.4163 -0.0077 -0.0186
   61MOL    C7119391   4.955   7.633   7.348  0.3716 -0.7221  0.3033
   61MOL    C7219392   5.000   7.468   7.169 -0.3416 -0.4760  0.4134
   61MOL    H7319393   4.460   7.528   7.366  0.4130  0.5573  0.8994
   61MOL    H7419394   4.501   7.380   7.292 -0.9351 -0.1140 -3.8043
   61MOL    H7519395   4.692   7.597   7.402  1.2077 -0.2560  0.5014
   61MOL    H7619396   4.923   7.727   7.305  1.6350 -0.1371  0.6203
   61MOL    H7719397   4.909   7.629   7.447 -0.8497 -0.7415 -0.2548
   61MOL    H7819398   5.062   7.640   7.368  0.4400  0.0399 -0.3287
   61MOL    H7919399   5.101   7.500   7.194  0.7708 -1.6146 -2.5149
   61MOL    H8019400   4.964   7.500   7.071 -0.8977  0.9111  1.0519
   61MOL    H8119401   5.003   7.361   7.152  0.3485 -0.8062  2.3741
   61MOL    C8219402   4.668   7.428   7.511 -0.0359 -0.0293 -0.0302
   61MOL    C8319403   4.650   7.272   7.520  0.3755  0.3176  0.0071
   61MOL    C8419404   4.504   7.218   7.527 -0.2543 -0.0320 -0.1329
   61MOL    O8519405   4.442   7.254   7.629 -0.3572 -0.1175  0.5006
   61MOL    N8619406   4.450   7.142   7.430 -0.4474  0.3615  0.1527
   61MOL    C8719407   4.308   7.117   7.430  0.4929 -0.4019 -0.3673
   61MOL    C8819408   4.533   7.084   7.325  0.9474 -0.1281  0.5882
   61MOL    H8919409   4.761   7.459   7.559 -1.5666  1.9652  1.7474
   61MOL    H9019410   4.592   7.481   7.569 -2.1396 -0.4511 -2.3094
   61MOL    H9119411   4.702   7.226   7.436  0.4146  2.6943 -1.3156
   61MOL    H9219412   4.290   7.059   7.521 -0.9404  0.3522 -0.1538
   61MOL    H9319413   4.253   7.209   7.446 -1.1447 -1.9173  3.4698
   61MOL    H9419414   4.269   7.052   7.352 -0.1734 -1.5166  0.8509
   61MOL    H9519415   4.475   7.014   7.264 -0.9277  1.9738 -0.1119
   61MOL    H9619416   4.629   7.045   7.358  0.6142  0.3122  2.0896
   61MOL    H9719417   4.557   7.167   7.258 -3.1387 -0.4430 -1.4588
   61MOL    C9819418   4.741   7.212   7.641  0.3637  0.3680 -0.3738
   61MOL    C9919419   4.899   7.219   7.619  0.0458 -0.1828  0.4233
   61MOL   C10019420   4.947   7.135   7.501  0.3843  0.1143  0.2298
   61MOL   O10119421   4.895   7.025   7.489 -0.2564 -0.1537 -0.0634
   61MOL   N10219422   5.043   7.177   7.409  0.2448  0.2126 -0.3006
   61MOL   C10319423   5.071   7.110   7.280  0.7456  0.2461  0.3288
   61MOL   C10419424   5.158   7.268   7.449 -0.3433 -0.1199 -0.3102
   61MOL   H10519425   4.697   7.257   7.730  1.2634  0.7317 -0.1086
   61MOL   H10619426   4.716   7.107   7.631 -0.6170  0.6192 -0.6776
   61MOL   H10719427   4.928   7.321   7.594 -0.9441  0.1509  0.6056
   61MOL   H10819428   5.055   7.002   7.277 -2.9842  0.7478  0.1364
   61MOL   H10919429   4.992   7.145   7.213  1.6367  3.2191  0.7855
   61MOL   H11019430   5.163   7.135   7.228  2.5658 -2.0835  2.3007
   61MOL   H11119431   5.122   7.357   7.501 -0.1645  0.0332 -0.4489
   61MOL   H11219432   5.208   7.301   7.359  0.8470 -1.5381 -0.1811
   61MOL   H11319433   5.222   7.209   7.515  2.1884  0.3141 -2.3034
   61MOL   C11419434   4.977   7.180   7.750 -0.7081  0.2626 -0.2408
   61MOL   C11519435   5.004   7.297   0.008 -0.0165  0.4232  0.3787
   61MOL   C11619436   5.095   7.406   7.797  0.1440 -0.0028  0.1227
   61MOL   O11719437   5.206   7.370   7.766 -0.8153  0.2657 -0.5718
   61MOL   N11819438   5.053   7.526   7.776 -0.1038 -0.0696 -0.0090
   61MOL   C11919439   4.931   7.585   7.825 -0.4902 -0.2542 -0.3710
   61MOL   C12019440   5.134   7.633   7.719  0.0287  0.1373 -0.9930
   61MOL   H12119441   4.912   7.110   7.803 -1.6798  2.7812  2.0507
   61MOL   H12219442   5.074   7.130   7.739 -1.3015 -1.0680  0.4542
   61MOL   H12319443   4.903   7.337   0.018 -0.8326 -0.7987 -2.4591
   61MOL   H12419444   4.897   7.554   0.070  1.0048 -1.7080 -0.2862
   61MOL   H12519445   4.935   7.694   7.832  0.0255 -0.3860  1.5736
   61MOL   H12619446   4.848   7.567   7.755 -0.0536 -1.1619 -0.6671
   61MOL   H12719447   5.073   7.685   7.646 -0.3452 -2.0769 -2.2850
   61MOL   H12819448   5.215   7.587   7.662 -1.0474 -2.1346 -0.7307
   61MOL   H12919449   5.185   7.698   7.790  0.1889 -0.4744 -0.5344
   61MOL   C13019450   5.053   7.254   0.149 -0.9746  0.0003  0.2245
   61MOL   C13119451   5.195   7.189   0.165  0.0071  0.1715 -0.5135
   61MOL   C13219452   5.192   7.042   0.120  0.1748 -0.2776  0.1762
   61MOL   O13319453   5.092   6.976   0.146  0.2641  0.4907 -0.3271
   61MOL   N13419454   5.291   6.997   0.043  0.3863  0.0970  0.5537
   61MOL   C13519455   5.276   6.866   7.823 -0.3137  0.4760 -1.1028
   61MOL   C13619456   5.412   7.061   0.014 -0.2168  0.0467 -0.5217
   61MOL   H13719457   5.060   7.347   0.206  0.4837  0.5583 -0.8085
   61MOL   H13819458   4.976   7.197   0.199 -0.5692 -0.8226 -0.0860
   61MOL   H13919459   5.255   7.250   0.097  1.0580  0.0786  0.3134
   61MOL   H14019460   5.171   6.847   7.799  0.2262 -0.3789 -2.8625
   61MOL   H14119461   5.337   6.867   7.733  0.9715  2.4511 -0.2356
   61MOL   H14219462   5.313   6.781   0.026 -0.4946  0.8216 -0.4526
   61MOL   H14319463   5.402   7.137   7.789 -0.7417  0.1188 -0.3839
   61MOL   H14419464   5.496   6.996   7.842  0.8328  1.0652  0.2796
   61MOL   H14519465   5.451   7.103   0.106 -1.7401 -0.8488  0.5529
   61MOL   C14619466   5.268   7.213   0.296  0.3617  0.6550  0.4256
   61MOL   C14719467   5.246   7.099   0.402 -0.9249 -0.0487  0.1232
   61MOL   C14819468   5.100   7.110   0.459  1.0640 -0.0478 -0.6120
   61MOL   O14919469   5.069   7.217   0.509  0.0454 -0.2637 -0.5354
   61MOL   N15019470   5.018   7.001   0.437  0.6101  0.0322 -0.1434
   61MOL   C15119471   5.065   6.860   0.433  0.1056 -0.1275  0.0981
   61MOL   C15219472   4.873   7.024   0.435  0.7349  0.4996  0.1121
   61MOL   H15319473   5.373   7.205   0.266  0.0738 -0.5560 -0.2963
   61MOL   H15419474   5.258   7.315   0.332 -0.2369 -0.4304  3.5731
   61MOL   H15519475   5.265   7.004   0.353 -0.3775 -1.3061  2.6693
   61MOL   H15619476   5.068   6.815   0.334  0.0099  1.6426 -0.7397
   61MOL   H15719477   5.161   6.835   0.478 -1.4020  1.1724  4.3392
   61MOL   H15819478   4.996   6.803   0.495 -0.1558 -0.5165 -0.5468
   61MOL   H15919479   4.838   7.100   0.365  0.1902  2.1381  2.0959
   61MOL   H16019480   4.837   7.053   0.534  1.6492  0.5028  0.4464
   61MOL   H16119481   4.820   6.931   0.413  0.4594  0.6694  0.0640
   61MOL   C16219482   5.347   7.103   0.519 -0.3864  0.5473  0.4745
   61MOL   C16319483   5.486   7.043   0.484  0.1327  0.2243 -0.0090
   61MOL   C16419484   5.496   6.895   0.530  0.1231 -0.0189  0.2236
   61MOL   O16519485   5.501   6.877   0.647  0.4235  0.1628 -0.1012
   61MOL   N16619486   5.520   6.790   0.448 -0.3627  0.2603 -0.2782
   61MOL   C16719487   5.498   6.794   0.303  0.9106 -0.4026 -0.9047
   61MOL   C16819488   5.570   6.665   0.507  0.2551  0.2279 -0.3356
   61MOL   H16919489   5.360   7.208   0.546  2.3373  0.4472 -0.3301
   61MOL   H17019490   5.311   7.054   0.610  0.2173  0.3599  0.6132
   61MOL   H17119491   5.500   7.036   0.376 -2.5125 -0.9468 -0.2958
   61MOL   H17219492   5.558   6.861   0.242  1.5625  1.6661  1.9203
   61MOL   H17319493   5.507   6.697   0.254  0.1004 -1.1262  0.3215
   61MOL   H17419494   5.391   6.807   0.285  0.4653 -1.7906  0.5836
   61MOL   H17519495   5.664   6.687   0.558 -0.2453  2.6955 -0.4262
   61MOL   H17619496   5.583   6.585   0.434 -0.7449 -1.3526  1.1926
   61MOL   H17719497   5.494   6.637   0.580 -1.2102 -0.5985 -2.1534
   61MOL   C17819498   5.612   7.132   0.533 -0.7523  0.1648 -0.1387
   61MOL   C17919499   5.751   7.122   0.455  0.5447 -0.2384 -0.4366
   61MOL   C18019500   5.727   7.168   0.310 -0.5668  0.1842  0.2556
   61MOL   O18119501   5.695   7.077   0.229  0.1373 -0.0366  0.0811
   61MOL   N18219502   5.732   7.299   0.272  0.2082  0.2832  0.4035
   61MOL   C18319503   5.651   7.346   0.157  0.1555 -0.3626  0.4672
   61MOL   C18419504   5.802   7.396   0.345  0.4830 -0.1316 -0.5298
   61MOL   H18519505   5.575   7.235   0.542 -0.4629  0.4471 -1.9867
   61MOL   H18619506   5.631   7.099   0.635  0.0044 -0.7270 -0.5659
   61MOL   H18719507   5.821   7.186   0.509  2.2287 -2.1450 -0.3007
   61MOL   H18819508   5.596   7.435   0.187 -1.3507 -2.0397  2.8077
   61MOL   H18919509   5.695   7.356   0.058 -1.2189  1.6096  0.0266
   61MOL   H19019510   5.570   7.275   0.139  0.4297 -0.7919  0.9102
   61MOL   H19119511   5.902   7.358   0.367  1.3827  2.5224  0.1115
   61MOL   H19219512   5.758   7.420   0.442 -0.0691 -2.2019 -0.2422
   61MOL   H19319513   5.821   7.486   0.286 -1.2937  0.9731  0.5383
   61MOL   C19419514   5.822   6.984   0.465 -0.6254 -0.3890  0.1257
   61MOL   C19519515   5.975   6.985   0.421  0.0286  0.0935  0.0693
   61MOL   C19619516   6.017   6.835   0.406 -0.1757 -0.1431  0.1203
   61MOL   O19719517   6.015   6.766   0.504 -0.3992 -0.4568 -0.2902
   61MOL   N19819518   6.040   6.788   0.284  0.4472  0.6641 -0.9185
   61MOL   C19919519   6.095   6.654   0.263 -0.0051  0.3043 -0.2004
   61MOL   C20019520   5.992   6.840   0.155 -0.0013  0.2949 -0.3119
   61MOL   H20119521   5.817   6.974   0.574  0.5589 -0.7160  0.1570
   61MOL   H20219522   5.769   6.899   0.423  1.3903 -3.0353  2.7316
   61MOL   H20319523   5.979   7.023   0.319  4.5360  0.3141  0.2381
   61MOL   H20419524   6.085   6.595   0.353 -1.6277 -0.1241 -0.6348
   61MOL   H20519525   6.043   6.585   0.196  1.4974  0.5434 -1.6477
   61MOL   H20619526   6.201   6.658   0.241  0.0522 -1.3510 -0.3042
   61MOL   H20719527   5.976   6.764   0.078 -1.1905  0.8250 -0.5836
   61MOL   H20819528   6.063   6.913   0.116  0.9098 -0.2490  0.2993
   61MOL   H20919529   5.893   6.882   0.172 -0.0876 -0.1526  0.3336
   61MOL   C21019530   6.057   7.072   0.515 -0.3782  0.0986 -1.1134
   61MOL   C21119531   6.208   7.035   0.528 -0.2293 -0.2736 -0.3175
   61MOL   C21219532   6.279   7.125   0.638  0.3674  0.0123  0.0921
   61MOL   O21319533   6.304   7.246   0.602 -0.0589  0.3879  0.3020
   61MOL   N21419534   6.319   7.077   0.757 -0.4073  0.2893 -0.1110
   61MOL   C21519535   6.413   7.143   0.844  0.1753 -0.2893  0.3345
   61MOL   C21619536   6.258   6.961   0.816  0.3548  0.2278 -0.2016
   61MOL   H21719537   6.053   7.177   0.487  0.4015  0.8824  1.5390
   61MOL   H21819538   6.012   7.067   0.614  1.0904 -0.6806 -0.4569
   61MOL   H21919539   6.218   6.934   0.569 -0.5245  0.8061  2.5156
   61MOL   H22019540   6.490   7.070   0.871  2.0412  1.5440  0.0796
   61MOL   H22119541   6.456   7.238   0.814 -0.1088 -0.1758  0.2893
   61MOL   H22219542   6.362   7.142   0.941  0.2814 -0.0488  0.3917
   61MOL   H22319543   6.159   6.958   0.772 -0.2657  0.4474  1.1476
   61MOL   H22419544   6.256   6.965   0.925 -1.0289 -2.5632 -0.1042
   61MOL   H22519545   6.310   6.870   0.788 -0.9308 -0.8809  0.9131
   61MOL   C22619546   6.295   7.040   0.397 -0.2557  0.2330  0.0985
   61MOL   C22719547   6.428   6.958   0.413 -0.1162  0.1577 -0.1666
   61MOL   C22819548   6.537   6.993   0.312 -0.1351  0.1545  0.1255
   61MOL   O22919549   6.540   6.938   0.196  0.1105 -0.3510 -0.1366
   61MOL   N23019550   6.633   7.074   0.355 -0.1016  0.6511 -0.7624
   61MOL   C23119551   6.751   7.104   0.274  0.2487 -0.0334 -0.0631
   61MOL   C23219552   6.622   7.163   0.468  0.4997  0.0364  0.1913
   61MOL   H23319553   6.241   6.989   0.317 -2.1163 -0.6750  1.8755
   61MOL   H23419554   6.316   7.143   0.368 -1.0848  0.7305  1.2206
   61MOL   H23519555   6.464   6.971   0.515  0.6036 -1.1431 -0.2450
   61MOL   H23619556   6.777   7.210   0.282 -0.5899  0.0794  1.0899
   61MOL   H23719557   6.837   7.046   0.308  0.3741  0.3390  0.2576
   61MOL   H23819558   6.738   7.066   0.173 -0.0531 -0.4361  0.1290
   61MOL   H23919559   6.650   7.123   0.565  1.6190  1.6751  0.5574
   61MOL   H24019560   6.518   7.196   0.478 -0.4030 -2.6153  0.0468
   61MOL   H24119561   6.678   7.254   0.448  0.4594 -0.1602 -0.9045
   61MOL   C24219562   6.397   6.808   0.404  0.2343  0.5952  0.6735
   61MOL   C24319563   6.507   6.717   0.463 -0.1844 -0.6134  0.2770
   61MOL   C24419564   6.516   6.593   0.380  0.7739  0.3364  0.3408
   61MOL   O24519565   6.420   6.515   0.377  0.0841  0.6398 -0.9740
   61MOL   N24619566   6.636   6.561   0.323  0.5298  0.0032  0.1763
   61MOL   C24719567   6.752   6.648   0.301  0.2579  0.6818 -0.2621
   61MOL   C24819568   6.645   6.425   0.266  0.2315  0.0136 -1.3641
   61MOL   H24919569   6.311   6.776   0.463  1.0918 -0.2927  1.4454
   61MOL   H25019570   6.372   6.778   0.302 -0.6089  3.5698 -0.0486
   61MOL   H25119571   6.601   6.772   0.460 -0.1520 -0.7324 -1.0843
   61MOL   H25219572   6.818   6.617   0.220 -0.7947  0.9966 -1.2598
   61MOL   H25319573   6.719   6.750   0.283 -1.5663  0.0464 -0.6777
   61MOL   H25419574   6.808   6.650   0.394 -0.6628 -2.7901  0.4428
   61MOL   H25519575   6.582   6.415   0.178 -0.9458  0.4364 -0.5804
   61MOL   H25619576   6.614   6.347   0.335  0.6056  0.3113 -0.8502
   61MOL   H25719577   6.746   6.397   0.235 -0.5174 -1.1618 -2.7667
   61MOL   C25819578   6.483   6.680   0.613 -0.4514  0.6166  0.5657
   61MOL   C25919579   6.617   6.654   0.692 -0.7264 -0.4295 -0.3868
   61MOL   C26019580   6.592   6.543   0.788 -0.5740 -0.8807  0.0055
   61MOL   O26119581   6.509   6.562   0.879  0.2246  0.5870 -0.1084
   61MOL   N26219582   6.658   6.425   0.774 -0.4324  0.2596 -0.1672
   61MOL   C26319583   6.723   6.377   0.653 -0.1132 -0.3225  0.9748
   61MOL   C26419584   6.634   6.318   0.868  0.6790 -0.6259  0.3280
   61MOL   H26519585   6.421   6.756   0.661 -1.2631 -0.8034  1.8045
   61MOL   H26619586   6.423   6.589   0.615 -0.3028  0.4827 -0.5124
   61MOL   H26719587   6.688   6.625   0.615 -0.9772  1.9496 -1.5562
   61MOL   H26819588   6.809   6.426   0.608 -1.0214  0.0740 -0.3721
   61MOL   H26919589   6.747   6.270   0.658  1.0364 -0.0942  0.4775
   61MOL   H27019590   6.657   6.378   0.567  0.4485  0.5196  0.5474
   61MOL   H27119591   6.735   6.280   0.884  0.2277 -2.2954 -0.5763
   61MOL   H27219592   6.574   6.232   0.837  0.5046 -0.4473  0.1665
   61MOL   H27319593   6.604   6.358   0.964 -0.9620  2.2159 -1.3171
   61MOL   C27419594   6.682   6.788   0.742  0.3079 -0.4331 -0.0943
   61MOL   C27519595   6.795   6.785   0.849 -0.5687  0.0451 -0.1691
   61MOL   C27619596   6.827   6.929   0.894  0.2085 -0.4512 -0.7462
   61MOL   O27719597   6.846   7.022   0.815 -0.0928  0.2897 -0.1912
   61MOL   N27819598   6.834   6.955   1.028 -0.4799  0.6373 -0.1836
   61MOL   C27919599   6.885   7.082   1.078  0.0508  0.2237  0.4583
   61MOL   C28019600   6.782   6.872   1.128  0.2148 -0.4731 -0.1517
   61MOL   H28119601   6.716   6.838   0.651 -1.8948 -0.1784 -0.8289
   61MOL   H28219602   6.604   6.853   0.782  0.7028 -1.4355  2.3640
   61MOL   H28319603   6.754   6.729   0.934  2.5389  1.5705  2.4609
   61MOL   H28419604   6.959   7.125   1.011  1.0941 -0.4796  1.1367
   61MOL   H28519605   6.798   7.146   1.093  0.3142  0.3271  1.5646
   61MOL   H28619606   6.936   7.062   1.173  2.1484 -1.1088 -0.8999
   61MOL   H28719607   6.679   6.851   1.100 -0.2096  1.5789 -0.2066
   61MOL   H28819608   6.795   6.902   1.233  1.9461  0.7837 -0.6901
   61MOL   H28919609   6.844   6.783   1.139  0.3650 -0.1308  2.1312
   61MOL   C29019610   6.914   6.700   0.794  0.3553 -0.7146 -0.0507
   61MOL   C29119611   7.020   6.666   0.901  0.6155 -0.2469  0.1078
   61MOL   C29219612   7.124   6.780   0.902 -0.1972  0.5074 -0.6005
   61MOL   O29319613   7.180   6.808   0.795 -0.0264  0.3315  0.1808
   61MOL   N29419614   7.149   6.850   1.010  0.6823 -0.0705  0.0027
   61MOL   C29519615   7.134   6.808   1.152  0.7427 -0.3438 -0.5648
   61MOL   C29619616   7.209   6.986   1.002  0.7679 -0.2101  0.3926
   61MOL   H29719617   6.866   6.607   0.763  0.0627  0.0283 -1.8739
   61MOL   H29819618   6.964   6.743   0.707  0.5906 -2.6032 -0.8791
   61MOL   H29919619   6.957   6.652   0.988 -2.5171  1.7812 -1.7482
   61MOL   H30019620   7.134   6.699   1.156  1.5715 -0.3393 -0.3742
   61MOL   H30119621   7.219   6.819   1.220 -0.2348 -1.5659  0.8925
   61MOL   H30219622   7.043   6.844   1.200  0.1725 -0.6531 -1.4078
   61MOL   H30319623   7.198   7.048   1.090 -0.4439 -0.4602  0.4191
   61MOL   H30419624   7.150   7.051   0.939  0.9599  0.6217  1.0700
   61MOL   H30519625   7.313   6.984   0.968  0.6466  1.0850 -0.0779
   61MOL   C30619626   7.085   6.526   0.875  0.5623 -0.0152 -0.1837
   61MOL   C30719627   7.170   6.473   1.000  0.3376  1.1073 -0.3807
   61MOL   C30819628   7.235   6.339   0.975 -0.5225  0.3544  1.0185
   61MOL   O30919629   7.345   6.341   0.927  0.3831  1.1145  0.2064
   61MOL   N31019630   7.180   6.223   1.019  0.1191  0.0347 -0.4875
   61MOL   C31119631   7.051   6.218   1.089  0.3875  0.0409 -0.7252
   61MOL   C31219632   7.248   6.097   1.026 -0.3490  0.6845  0.3612
   61MOL   H31319633   7.006   6.451   0.871  1.4067 -0.8753 -1.3692
   61MOL   H31419634   7.129   6.531   0.776 -1.7041 -0.1306 -1.2194
   61MOL   H31519635   7.252   6.540   1.024  0.5302  0.0694  1.9953
   61MOL   H31619636   7.054   6.297   1.164 -0.7683 -0.5380 -0.0531
   61MOL   H31719637   6.968   6.236   1.021 -0.1096  0.8900  0.1018
   61MOL   H31819638   7.037   6.131   1.153 -0.2060  1.0999  0.5959
   61MOL   H31919639   7.330   6.115   1.095  0.0994  2.3692 -0.5890
   61MOL   H32019640   7.290   6.070   0.929 -0.3909  2.4950 -0.1806
   61MOL   H32119641   7.192   6.010   1.061 -0.3943  0.7125  0.3597
   61MOL   H32219642   7.103   6.478   1.086  1.8486  2.7087  0.7021
   62MOL     C119643   5.981   0.847   1.996 -0.3342 -0.5141 -0.3170
   62MOL     C219644   5.834   0.872   2.004 -0.2166 -0.2184 -0.2041
   62MOL     C319645   5.785   0.810   2.133  0.4348 -0.1054 -0.0834
   62MOL     O419646   5.782   0.688   2.129  0.6673  0.2311  0.5602
   62MOL     N519647   5.756   0.886   2.244 -0.3161  0.9230  0.4550
   62MOL     C619648   5.770   1.030   2.251  0.0113  0.7088 -0.0910
   62MOL     C719649   5.722   0.816   2.369 -0.1932  0.1649  0.1206
   62MOL     H819650   6.026   0.901   1.913 -2.0832  1.2289 -0.1719
   62MOL     H919651   6.006   0.741   1.990  1.2232 -0.0532 -2.2335
   62MOL    H1019652   5.833   0.981   2.004  1.5839 -0.1836  0.3683
   62MOL    H1119653   5.708   1.073   2.173 -1.4121 -0.6218  0.2916
   62MOL    H1219654   5.762   1.076   2.349 -1.3347 -0.7324  0.4835
   62MOL    H1319655   5.872   1.065   2.230 -0.0819  0.8274 -0.3556
   62MOL    H1419656   5.613   0.811   2.361 -0.2521 -0.7460  1.2422
   62MOL    H1519657   5.753   0.871   2.458 -2.2814  0.6228  0.5843
   62MOL    H1619658   5.753   0.712   2.362  0.4464  0.2123  1.9715
   62MOL    H1719659   6.036   0.881   2.084  0.5690  0.4407 -1.2490
   62MOL    C1819660   5.765   0.825   1.867  0.0469 -0.2870  0.0793
   62MOL    C1919661   5.641   0.900   1.820  0.2712  0.4020 -0.2117
   62MOL    C2019662   5.656   1.057   1.824 -0.0131  0.4739  0.8681
   62MOL    O2119663   5.630   1.112   1.930 -0.0043 -0.2741 -0.2592
   62MOL    N2219664   5.688   1.127   1.707 -0.5415 -0.1218 -0.2967
   62MOL    C2319665   5.664   1.273   1.710  0.2251  0.1959 -0.2417
   62MOL    C2419666   5.696   1.064   1.575  0.2555  0.2643  0.3976
   62MOL    H2519667   5.825   0.828   1.777 -2.2525 -2.2648 -1.5929
   62MOL    H2619668   5.747   0.720   1.889 -1.1862  0.3828  2.4676
   62MOL    H2719669   5.608   0.875   1.720 -0.9602  2.0067 -0.2340
   62MOL    H2819670   5.700   1.314   1.804  0.8234  0.1808 -0.4620
   62MOL    H2919671   5.711   1.335   1.633  1.3888  1.1086  1.1809
   62MOL    H3019672   5.560   1.304   1.714 -0.4238 -1.7364 -1.4208
   62MOL    H3119673   5.740   1.129   1.500  1.5283  0.6599  1.4703
   62MOL    H3219674   5.604   1.022   1.534  1.8240  0.0332 -3.0090
   62MOL    H3319675   5.757   0.973   1.571  0.2794  0.3230 -0.9820
   62MOL    C3419676   5.517   0.855   1.903  0.4580  0.3048 -0.1717
   62MOL    C3519677   5.469   0.705   1.890 -0.1953 -0.2150  0.4548
   62MOL    C3619678   5.378   0.683   1.762  0.2347  0.3720 -0.8149
   62MOL    O3719679   5.267   0.736   1.757  0.1638 -0.2386  0.3963
   62MOL    N3819680   5.408   0.583   1.679 -1.0851 -0.3261 -0.0163
   62MOL    C3919681   5.540   0.534   1.662 -0.2907  0.1769 -0.8324
   62MOL    C4019682   5.302   0.529   1.591 -0.0406 -0.1131  0.0321
   62MOL    H4119683   5.527   0.886   2.007 -0.1968  0.7883 -0.2495
   62MOL    H4219684   5.434   0.914   1.866 -0.8213 -1.1265  0.3633
   62MOL    H4319685   5.557   0.641   1.896 -0.6269 -0.9444 -0.8853
   62MOL    H4419686   5.572   0.461   1.736 -0.6196  1.9880  1.1415
   62MOL    H4519687   5.557   0.476   1.571  2.9374  0.0960 -0.2495
   62MOL    H4619688   5.610   0.617   1.650  1.0472 -0.9689 -1.1252
   62MOL    H4719689   5.277   0.427   1.622  1.1951 -0.3171  0.3764
   62MOL    H4819690   5.350   0.527   1.493 -0.4278  1.4886 -0.1985
   62MOL    H4919691   5.209   0.585   1.589  2.1557  3.6817 -0.3641
   62MOL    C5019692   5.388   0.672   2.015 -0.1190 -0.0688  0.1399
   62MOL    C5119693   5.319   0.524   2.027  0.1129  0.0373  0.4104
   62MOL    C5219694   5.232   0.532   2.156 -0.5620  0.0162  0.1758
   62MOL    O5319695   5.285   0.517   2.264  0.6420  0.0635 -0.1388
   62MOL    N5419696   5.103   0.536   2.150 -0.3126 -0.0905 -0.0869
   62MOL    C5519697   5.025   0.510   2.276  0.0723 -0.7697 -0.3635
   62MOL    C5619698   5.026   0.578   2.034 -0.0776 -0.1197  0.5126
   62MOL    H5719699   5.454   0.679   2.101  0.5117 -0.6430 -0.2947
   62MOL    H5819700   5.314   0.751   2.032  1.3612  1.4875 -0.5479
   62MOL    H5919701   5.255   0.517   1.940  1.6136  4.6447 -1.2217
   62MOL    H6019702   4.929   0.461   2.255 -1.1561  2.1991 -1.9122
   62MOL    H6119703   5.081   0.448   2.346  0.4011 -2.8664 -2.3993
   62MOL    H6219704   5.005   0.605   2.325  1.1295 -0.7949  0.1248
   62MOL    H6319705   5.076   0.657   1.979 -0.8004  0.6537  0.9607
   62MOL    H6419706   4.930   0.617   2.067  0.0992 -0.6458  1.6739
   62MOL    H6519707   5.016   0.486   1.976 -0.2350  1.4990 -2.0834
   62MOL    C6619708   5.411   0.396   2.012  0.1100  0.1742 -0.5016
   62MOL    C6719709   5.342   0.257   2.022 -0.0639 -0.3329  0.4756
   62MOL    C6819710   5.238   0.236   1.908  0.7688  0.7453 -0.0171
   62MOL    O6919711   5.123   0.255   1.939 -0.5027  0.6871  0.1386
   62MOL    N7019712   5.279   0.185   1.790 -0.1955  0.3061 -0.7164
   62MOL    C7119713   5.418   0.185   1.728  0.3374  0.2472 -0.0913
   62MOL    C7219714   5.176   0.138   1.689 -0.4814 -0.0247 -0.1074
   62MOL    H7319715   5.475   0.408   1.924  1.6454  1.0389  0.7185
   62MOL    H7419716   5.487   0.412   2.088  0.3867 -0.4041 -0.6547
   62MOL    H7519717   5.427   0.191   2.005  1.2451  2.0374 -2.5338
   62MOL    H7619718   5.415   0.222   1.626  1.7943  2.2444  0.5574
   62MOL    H7719719   5.493   0.234   1.791  0.0209  0.5662  0.0365
   62MOL    H7819720   5.461   0.086   1.713  2.0039  1.3218 -2.7379
   62MOL    H7919721   5.087   0.200   1.678 -1.7711 -2.0280 -1.4247
   62MOL    H8019722   5.132   0.045   1.727  2.9507 -1.4291  0.6238
   62MOL    H8119723   5.232   0.126   1.596 -0.2718  2.6776 -0.3552
   62MOL    C8219724   5.289   0.217   2.160 -0.0132  0.4257 -0.0973
   62MOL    C8319725   5.247   0.074   2.195 -0.1007  0.3396  0.0377
   62MOL    C8419726   5.100   0.054   2.218  0.1665  0.0713  0.1601
   62MOL    O8519727   5.039   0.113   2.312  0.3452  0.6212 -0.0126
   62MOL    N8619728   5.031   7.833   2.128 -0.0024 -0.7919  0.5606
   62MOL    C8719729   4.883   7.841   2.126  0.1302  0.3464 -0.6854
   62MOL    C8819730   5.077   7.774   2.002  0.5809  0.8067 -0.4145
   62MOL    H8919731   5.371   0.242   2.228 -1.5663  3.5742  0.6941
   62MOL    H9019732   5.206   0.283   2.185  0.4384  0.5900  0.9917
   62MOL    H9119733   5.259   0.012   2.106  2.2040 -0.1875  0.6904
   62MOL    H9219734   4.838   7.775   2.052  0.6605  0.5552 -1.1988
   62MOL    H9319735   4.844   7.807   2.222 -1.2349 -1.9568 -2.0234
   62MOL    H9419736   4.839   0.085   2.108  0.3592 -0.0955 -3.9850
   62MOL    H9519737   4.997   7.735   1.940 -0.7890  0.5231  1.4917
   62MOL    H9619738   5.144   7.691   2.025 -0.0437  0.3277 -0.3165
   62MOL    H9719739   5.134   7.843   1.939  0.0784  1.5752 -0.0287
   62MOL    C9819740   5.340   0.000   2.299 -0.2761 -0.4376  0.0793
   62MOL    C9919741   5.487   7.817   2.260 -0.4277 -0.6282 -0.5019
   62MOL   C10019742   5.498   7.677   2.196 -0.4088 -0.0338 -0.6402
   62MOL   O10119743   5.501   7.576   2.271  0.0664 -0.1185 -0.1483
   62MOL   N10219744   5.517   7.663   2.062  0.7049 -0.8064 -0.1311
   62MOL   C10319745   5.516   7.529   2.002 -0.4799 -0.3861  0.0590
   62MOL   C10419746   5.514   7.770   1.966  0.8386 -0.1292  0.0175
   62MOL   H10519747   5.331   0.063   2.388 -0.3872  1.2504 -1.1086
   62MOL   H10619748   5.276   7.769   2.322 -0.7012  0.0441  0.6929
   62MOL   H10719749   5.507   0.042   2.186  2.3158  0.2243  1.0554
   62MOL   H10819750   5.607   7.505   1.946 -1.3840  0.0889 -1.6377
   62MOL   H10919751   5.499   7.449   2.074 -2.8045 -0.5929 -0.6805
   62MOL   H11019752   5.431   7.501   1.940 -1.2101 -0.9956  1.3307
   62MOL   H11119753   5.577   0.005   1.979  1.3013 -0.2282 -1.3972
   62MOL   H11219754   5.410   7.800   1.953  0.8690 -1.1776 -3.2692
   62MOL   H11319755   5.545   7.732   1.868 -0.4423  0.4392 -0.6152
   62MOL   C11419756   5.586   7.834   2.382  0.3740 -0.3854 -0.3593
   62MOL   C11519757   5.728   0.019   2.348  0.2400 -0.2346  0.2075
   62MOL   C11619758   5.746   0.150   2.267 -0.6054  0.0479  0.6362
   62MOL   O11719759   5.759   0.144   2.146  0.5200  0.2858 -0.6763
   62MOL   N11819760   5.740   0.272   2.334  0.0649  0.7183 -0.0292
   62MOL   C11919761   5.786   0.294   2.471 -0.0451  0.1904  0.0679
   62MOL   C12019762   5.694   0.394   2.257 -0.4614 -0.3523 -0.1007
   62MOL   H12119763   5.550   0.069   2.436 -0.6418 -0.8899 -0.1993
   62MOL   H12219764   5.576   7.765   2.465 -0.0324 -0.1197 -0.1860
   62MOL   H12319765   5.788   0.040   2.436  1.2065 -1.3678 -0.1542
   62MOL   H12419766   5.734   0.239   2.550 -1.2863 -1.3730 -1.8006
   62MOL   H12519767   5.893   0.276   2.466 -0.0004  0.1530  1.0323
   62MOL   H12619768   5.778   0.401   2.490  1.6260  0.3143  0.1645
   62MOL   H12719769   5.695   0.383   2.148  0.2492 -1.6515  0.0386
   62MOL   H12819770   5.773   0.467   2.273  1.5038 -2.0513 -1.7041
   62MOL   H12919771   5.596   0.425   2.294 -0.8661 -1.0728 -0.5627
   62MOL   C13019772   5.809   7.756   2.281  0.7395 -0.0376 -0.2571
   62MOL   C13119773   5.966   7.772   2.303 -0.6873 -0.1620  0.0589
   62MOL   C13219774   6.050   7.759   2.171 -0.1139 -0.1410  0.8404
   62MOL   O13319775   6.003   7.691   2.080  0.2313 -0.5315  0.0310
   62MOL   N13419776   6.160   7.835   2.152 -0.2841 -0.0727  1.2614
   62MOL   C13519777   6.228   0.005   2.024  1.1787 -0.1191  0.3315
   62MOL   C13619778   6.214   0.065   2.262  0.5860  0.1506  0.3003
   62MOL   H13719779   5.771   7.665   2.327  0.1785 -0.3640 -1.3501
   62MOL   H13819780   5.781   7.746   2.176  0.1167  1.3884 -0.2320
   62MOL   H13919781   5.977   0.022   2.336 -0.4990 -0.2191  0.1795
   62MOL   H14019782   6.164   0.011   1.935  2.1189  0.6308 -0.3077
   62MOL   H14119783   6.274   0.103   2.017 -0.8226  0.9304  1.5508
   62MOL   H14219784   6.312   7.791   2.006  1.0423 -0.2125  0.0348
   62MOL   H14319785   6.320   0.087   2.253  0.9460 -2.0888 -1.4728
   62MOL   H14419786   6.189   0.023   2.359 -0.0517  2.2780  1.0738
   62MOL   H14519787   6.154   0.156   2.268  1.9672  1.0207  0.9932
   62MOL   C14619788   6.011   7.658   2.407 -0.7492  0.3525  0.1121
   62MOL   C14719789   5.948   7.676   2.544  0.2956  0.2523 -0.1937
   62MOL   C14819790   5.992   7.805   2.614  0.1744  0.3978  0.2622
   62MOL   O14919791   6.094   0.009   2.574  0.0332  0.1240  0.0945
   62MOL   N15019792   5.922   0.001   2.713  0.5309  0.4233 -0.3338
   62MOL   C15119793   5.970   0.119   2.786  0.4637 -0.2150  0.3253
   62MOL   C15219794   5.789   7.803   2.747  0.5663 -0.4795  0.2219
   62MOL   H15319795   5.984   7.562   2.363  2.6333  0.7997 -3.2218
   62MOL   H15419796   6.119   7.665   2.414 -0.8315  0.2627  1.4587
   62MOL   H15519797   5.840   7.663   2.540  0.4401 -2.5534  2.8351
   62MOL   H15619798   5.910   0.203   2.751 -0.3436  0.3484  2.9557
   62MOL   H15719799   5.960   0.103   2.893 -0.6247 -0.3037  0.2094
   62MOL   H15819800   6.075   0.147   2.771 -0.2196  1.1975 -2.1277
   62MOL   H15919801   5.718   7.829   2.669 -0.4865  2.0822  1.9676
   62MOL   H16019802   5.743   0.003   2.830  0.4164 -0.3038  0.0269
   62MOL   H16119803   5.781   7.696   2.764 -1.5967 -0.3052  0.3951
   62MOL   C16219804   5.989   7.559   2.632 -0.3775 -0.4139  0.4734
   62MOL   C16319805   5.957   7.415   2.590  0.7367  0.9389 -0.0962
   62MOL   C16419806   5.801   7.383   2.596  0.6845 -0.0868 -0.0065
   62MOL   O16519807   5.746   7.427   2.697  0.5513  0.0402 -0.4838
   62MOL   N16619808   5.742   7.328   2.483  0.6835 -0.5404  0.6745
   62MOL   C16719809   5.598   7.342   2.474  0.4784  0.4773  0.2893
   62MOL   C16819810   5.809   7.250   2.379  0.9857  0.2717 -0.0040
   62MOL   H16919811   6.097   7.568   2.641 -0.5825  1.6642  1.1830
   62MOL   H17019812   5.968   7.574   2.738 -0.5547  2.7833  0.0585
   62MOL   H17119813   6.000   7.389   2.493 -0.1184 -0.4442 -0.1203
   62MOL   H17219814   5.562   7.315   2.573 -0.6275  3.9007  0.9029
   62MOL   H17319815   5.560   7.442   2.454 -0.1713  0.1935  0.0795
   62MOL   H17419816   5.554   7.278   2.397  3.1870 -0.4780 -0.5325
   62MOL   H17519817   5.894   7.191   2.414  2.1797 -0.0272 -3.2748
   62MOL   H17619818   5.847   7.330   2.315  1.7786  0.8596  1.1667
   62MOL   H17719819   5.731   7.193   2.328  1.1881 -1.6317  1.7309
   62MOL   C17819820   6.024   7.319   2.692  0.0126 -0.2290  0.4477
   62MOL   C17919821   6.184   7.318   2.691 -0.0451 -0.7744  0.0632
   62MOL   C18019822   6.229   7.280   2.548 -0.5550 -0.2836 -0.2372
   62MOL   O18119823   6.199   7.166   2.505  0.2375  0.2266  0.0456
   62MOL   N18219824   6.308   7.369   2.479  0.1750 -0.1655 -0.3684
   62MOL   C18319825   6.359   7.320   2.345  0.1874  0.1581  0.0597
   62MOL   C18419826   6.361   7.500   2.524 -0.0003  0.9734  0.0227
   62MOL   H18519827   5.986   7.340   2.792 -1.2425  0.7313 -0.2110
   62MOL   H18619828   5.989   7.218   2.672 -1.2529  0.1167  0.8508
   62MOL   H18719829   6.216   7.413   2.733  0.6462 -0.4877 -1.0915
   62MOL   H18819830   6.377   7.414   2.292  2.9262  0.1363  0.8666
   62MOL   H18919831   6.450   7.264   2.368 -0.3174 -0.3609  0.7981
   62MOL   H19019832   6.296   7.257   2.282 -0.1904 -0.5454  1.1389
   62MOL   H19119833   6.398   7.506   2.627 -2.3048 -2.4318  1.1443
   62MOL   H19219834   6.278   7.570   2.523 -0.0962  0.8525 -0.7917
   62MOL   H19319835   6.433   7.539   2.453 -1.3193 -0.2551 -2.0369
   62MOL   C19419836   6.232   7.212   2.787 -0.0707  0.1000 -0.2199
   62MOL   C19519837   6.385   7.203   2.810  0.0549  0.0809  0.0188
   62MOL   C19619838   6.452   7.101   2.711 -0.4682 -0.1290  0.3169
   62MOL   O19719839   6.393   6.995   2.694 -0.2191  0.1800 -0.3134
   62MOL   N19819840   6.565   7.133   2.644  0.7597  0.5872  0.4007
   62MOL   C19919841   6.646   7.256   2.663 -0.0163  0.1326  0.4884
   62MOL   C20019842   6.595   7.050   2.523  0.0505  0.0858 -0.1385
   62MOL   H20119843   6.197   7.237   2.887 -0.2082  1.0238 -0.4933
   62MOL   H20219844   6.180   7.118   2.774 -0.1371 -0.0323  0.9650
   62MOL   H20319845   6.424   7.302   2.786  0.5807  0.0618  0.7702
   62MOL   H20419846   6.741   7.256   2.611 -0.2930  1.8954 -0.0307
   62MOL   H20519847   6.590   7.344   2.630 -2.1661 -1.6394 -0.7457
   62MOL   H20619848   6.658   7.274   2.770  0.0345  0.9144  0.3526
   62MOL   H20719849   6.691   7.082   2.482  0.1678 -0.2596 -0.1347
   62MOL   H20819850   6.518   7.044   2.447  0.6558 -2.0392 -0.5972
   62MOL   H20919851   6.618   6.947   2.550 -1.5908 -0.1722  0.3046
   62MOL   C21019852   6.427   7.158   2.955  0.4490 -0.4877  0.0562
   62MOL   C21119853   6.360   7.031   3.019  0.5106 -0.1279  0.3875
   62MOL   C21219854   6.226   7.067   3.084 -0.2705  0.4014 -0.1357
   62MOL   O21319855   6.226   7.147   3.171  0.0803  0.0879  0.5445
   62MOL   N21419856   6.108   7.031   3.033  0.3387  0.8267 -0.2633
   62MOL   C21519857   6.092   6.909   2.952 -0.4029 -0.4636 -0.2883
   62MOL   C21619858   5.975   7.094   3.085  0.1011  0.4660  0.4941
   62MOL   H21719859   6.536   7.147   2.955  0.5695  0.6346  0.8269
   62MOL   H21819860   6.405   7.248   3.012  1.1822  1.6042 -2.8959
   62MOL   H21919861   6.351   6.957   2.940 -0.1954  1.1695 -0.7662
   62MOL   H22019862   5.994   6.904   2.905 -0.6978 -2.9014  0.5035
   62MOL   H22119863   6.159   6.899   2.867 -0.3584 -0.6360 -0.2317
   62MOL   H22219864   6.109   6.816   3.006  2.4920 -0.5544 -1.2923
   62MOL   H22319865   5.931   7.165   3.014 -0.9676 -0.1947  0.4911
   62MOL   H22419866   5.987   7.162   3.169 -0.0414  0.9583  0.1234
   62MOL   H22519867   5.910   7.016   3.125  0.5020  0.1509  0.5410
   62MOL   C22619868   6.459   6.967   3.118 -0.3043 -0.4366 -0.5233
   62MOL   C22719869   6.413   6.834   3.181  0.2005  0.0294  0.0503
   62MOL   C22819870   6.391   6.841   3.336 -0.1519 -0.2290 -0.0243
   62MOL   O22919871   6.486   6.867   3.414  0.1842 -0.0582 -0.0926
   62MOL   N23019872   6.277   6.793   3.387 -0.4719 -0.4930 -0.6753
   62MOL   C23119873   6.160   6.750   3.307  0.1918 -0.1229  0.0672
   62MOL   C23219874   6.272   6.745   3.525  0.2684  0.0402 -0.1772
   62MOL   H23319875   6.559   6.964   3.073  0.4305  1.8357  0.8675
   62MOL   H23419876   6.462   7.037   3.202  0.3668 -0.9507 -0.1083
   62MOL   H23519877   6.320   6.809   3.129 -0.4179 -2.4864  2.2814
   62MOL   H23619878   6.180   6.667   3.239  1.7907  1.8023 -1.8952
   62MOL   H23719879   6.085   6.715   3.377  0.8457 -2.6627 -0.4460
   62MOL   H23819880   6.115   6.833   3.252  0.7596 -0.9957 -1.7828
   62MOL   H23919881   6.326   6.651   3.529 -4.3265 -2.7631 -0.7397
   62MOL   H24019882   6.169   6.733   3.558 -0.8983  3.9654 -2.1026
   62MOL   H24119883   6.335   6.797   3.596  0.1483 -0.5703  0.3778
   62MOL   C24219884   6.516   6.727   3.142  0.4847 -0.3937 -1.1275
   62MOL   C24319885   6.492   6.676   3.002  0.0406  0.1385 -0.7043
   62MOL   C24419886   6.370   6.588   2.990 -0.9493 -0.4252  0.1820
   62MOL   O24519887   6.352   6.504   3.077 -0.1304 -0.0624  0.1388
   62MOL   N24619888   6.293   6.589   2.877 -0.3889 -0.0551  0.1813
   62MOL   C24719889   6.314   6.673   2.760 -0.3281 -0.4303 -0.1120
   62MOL   C24819890   6.164   6.516   2.867  0.0115  0.2729 -0.1187
   62MOL   H24919891   6.619   6.758   3.162  1.7360 -4.0512 -1.4850
   62MOL   H25019892   6.510   6.641   3.209  1.8504  0.4772  0.1498
   62MOL   H25119893   6.486   6.766   2.940 -0.8405  1.7077  1.5832
   62MOL   H25219894   6.332   6.772   2.802 -1.2330 -0.0405 -0.6179
   62MOL   H25319895   6.406   6.644   2.709 -0.0106  0.1379  0.1327
   62MOL   H25419896   6.224   6.678   2.699 -0.4522 -1.4942 -0.0241
   62MOL   H25519897   6.103   6.586   2.924 -0.6265 -0.7617  0.5004
   62MOL   H25619898   6.159   6.429   2.933 -2.8745  0.7928  0.4148
   62MOL   H25719899   6.118   6.500   2.770  1.9210 -1.4439 -0.7769
   62MOL   C25819900   6.622   6.594   2.950  0.3894 -0.5887  0.5132
   62MOL   C25919901   6.766   6.667   2.950  0.1067 -0.9002  0.5271
   62MOL   C26019902   6.762   6.792   2.869  0.8084  0.3945  0.1846
   62MOL   O26119903   6.714   6.791   2.755  0.4009  0.4239  0.8504
   62MOL   N26219904   6.814   6.909   2.918 -0.0797 -0.4948 -0.0703
   62MOL   C26319905   6.875   6.928   3.050 -0.2435  0.0460 -0.5458
   62MOL   C26419906   6.830   7.033   2.837 -0.0869 -0.3056 -0.1029
   62MOL   H26519907   6.636   6.509   3.017  2.0369 -0.8166 -0.1014
   62MOL   H26619908   6.597   6.542   2.858 -1.1972 -1.1830  1.2552
   62MOL   H26719909   6.769   6.703   3.053 -0.2876  3.0540 -0.7582
   62MOL   H26819910   6.795   6.920   3.124  0.5142 -1.6075  0.1083
   62MOL   H26919911   6.956   6.859   3.074 -0.5387  0.0907  0.6170
   62MOL   H27019912   6.922   7.026   3.050 -1.1955  0.5128 -0.1641
   62MOL   H27119913   6.929   7.046   2.792  0.8180  1.4794  2.3112
   62MOL   H27219914   6.789   7.120   2.887 -3.4737 -2.0557  0.3192
   62MOL   H27319915   6.763   7.019   2.752  0.1052 -0.0375 -0.2967
   62MOL   C27419916   6.878   6.571   2.908  0.2850  0.4212  0.0693
   62MOL   C27519917   6.923   6.472   3.024  0.1651  0.1666  0.9878
   62MOL   C27619918   6.920   6.533   3.164 -1.2863 -0.7403  0.0792
   62MOL   O27719919   6.995   6.631   3.181  0.3433 -0.3221 -0.3893
   62MOL   N27819920   6.835   6.492   3.259  0.1272  0.7579  0.1153
   62MOL   C27919921   6.804   6.569   3.383 -0.0639 -0.0523  0.2316
   62MOL   C28019922   6.750   6.367   3.249 -0.1207  0.2097 -1.0801
   62MOL   H28119923   6.852   6.502   2.828 -0.5601  0.3014  0.4425
   62MOL   H28219924   6.964   6.632   2.879  0.4957  0.8200  1.4986
   62MOL   H28319925   6.856   6.386   3.018 -1.1535  1.0335  2.9230
   62MOL   H28419926   6.792   6.676   3.362 -2.3277  0.0317  1.6950
   62MOL   H28519927   6.705   6.537   3.415  0.0973 -0.8452 -0.0636
   62MOL   H28619928   6.870   6.553   3.468  1.3105  0.2775 -0.7599
   62MOL   H28719929   6.791   6.274   3.210  1.6383  0.7098 -0.4479
   62MOL   H28819930   6.648   6.373   3.211 -1.9383 -0.2896  3.3245
   62MOL   H28919931   6.736   6.337   3.353 -0.3683 -1.1361 -1.4878
   62MOL   C29019932   7.067   6.422   2.994 -0.0639 -0.1488 -0.2677
   62MOL   C29119933   7.129   6.319   3.092  0.7156  0.0661 -0.5067
   62MOL   C29219934   7.278   6.304   3.048 -0.3663 -0.2109  0.0495
   62MOL   O29319935   7.297   6.285   2.931  0.4528  0.6495  1.2738
   62MOL   N29419936   7.386   6.301   3.132  0.1145  0.8002  0.2483
   62MOL   C29519937   7.371   6.352   3.266  0.2250  0.5218 -0.4871
   62MOL   C29619938   7.516   6.269   3.076 -0.7100 -0.4176 -0.1334
   62MOL   H29719939   7.059   6.379   2.894 -0.3165 -0.4096 -0.1370
   62MOL   H29819940   7.135   6.507   2.989 -0.9304  0.7475  2.4145
   62MOL   H29919941   7.120   6.353   3.196 -0.4758 -0.5074 -0.4195
   62MOL   H30019942   7.282   6.314   3.317  1.6066 -1.7333  0.3472
   62MOL   H30119943   7.457   6.319   3.325 -0.0998  1.3662  0.4721
   62MOL   H30219944   7.365   6.460   3.262 -0.7310  0.5420  0.8667
   62MOL   H30319945   7.588   6.266   3.157  1.3306 -1.1993 -1.9173
   62MOL   H30419946   7.546   6.334   2.994 -1.4858 -2.0307 -1.7299
   62MOL   H30519947   7.517   6.165   3.042 -1.2220 -0.7278  0.7811
   62MOL   C30619948   7.046   6.183   3.079 -0.1607  0.1689 -0.3325
   62MOL   C30719949   7.042   6.078   3.194  0.0263 -0.3898 -0.3383
   62MOL   C30819950   7.160   5.979   3.196 -0.3041 -0.1545 -0.0853
   62MOL   O30919951   7.259   6.013   3.131  0.5221 -0.2662 -0.2884
   62MOL   N31019952   7.157   5.864   3.264  0.5032  0.1795 -0.0379
   62MOL   C31119953   7.266   5.772   3.254  0.0194 -0.0386 -0.7187
   62MOL   C31219954   7.063   5.826   3.370  0.2638 -0.1058 -0.2239
   62MOL   H31319955   6.943   6.206   3.052 -0.6020  1.7867  2.4753
   62MOL   H31419956   7.065   6.132   2.985 -2.1481 -0.5543 -0.3721
   62MOL   H31519957   7.040   6.127   3.291  1.1911  1.3409 -1.1672
   62MOL   H31619958   7.222   5.673   3.244  0.4999 -0.0515 -2.8942
   62MOL   H31719959   7.335   5.788   3.171 -0.6924  1.3710 -1.0570
   62MOL   H31819960   7.325   5.772   3.346  1.9343  1.7188 -1.8809
   62MOL   H31919961   7.026   5.912   3.424 -1.8809 -1.6979  0.8908
   62MOL   H32019962   7.091   5.756   3.449 -0.6168  0.1952  0.3555
   62MOL   H32119963   6.980   5.783   3.315  0.2131 -1.5991  0.9979
   62MOL   H32219964   6.950   6.019   3.190 -1.3875  1.8503 -1.6500
   63MOL     C119965   7.337   4.049   6.284 -0.0647 -1.1085  0.0207
   63MOL     C219966   7.478   4.058   6.325 -1.0763 -0.3995  0.4944
   63MOL     C319967   7.553   3.921   6.307 -0.0266  0.6903 -0.5146
   63MOL     O419968   7.505   3.812   6.350 -0.5710 -0.3176  0.8427
   63MOL     N519969   7.672   3.921   6.234  0.2825 -0.0881  0.5842
   63MOL     C619970   7.761   3.805   6.226  0.5195 -0.3023 -0.1659
   63MOL     C719971   7.698   4.030   6.146 -0.3367 -0.5556  0.0200
   63MOL     H819972   7.339   4.011   6.181  0.1661  0.8485 -0.7266
   63MOL     H919973   7.278   4.139   6.266  0.8156 -0.5203  0.0166
   63MOL    H1019974   7.508   4.140   6.259 -2.8462  0.7653  1.1205
   63MOL    H1119975   7.804   3.783   6.324  0.6461  2.5155  0.4781
   63MOL    H1219976   7.719   3.716   6.181  0.1771 -0.2710  0.0883
   63MOL    H1319977   7.852   3.815   6.167  1.0717 -0.0333  0.7080
   63MOL    H1419978   7.728   4.116   6.205  1.3453 -1.3197  0.3079
   63MOL    H1519979   7.623   4.061   6.074  0.1865  1.3901  0.2944
   63MOL    H1619980   7.791   4.018   6.090  0.3820 -0.8588  1.2625
   63MOL    H1719981   7.277   3.981   6.343  1.2087 -3.5441 -1.3959
   63MOL    C1819982   7.498   4.119   6.465  0.2910  0.7966 -0.3884
   63MOL    C1919983   7.640   4.162   6.509  0.6560 -0.0029 -0.0432
   63MOL    C2019984   7.702   4.054   6.610  0.1579  0.1480  0.1780
   63MOL    O2119985   7.629   4.020   6.704 -0.2069  0.1136  0.4144
   63MOL    N2219986   7.827   4.008   6.596 -0.0241  0.8389 -0.4973
   63MOL    C2319987   0.022   3.893   6.663 -0.2858 -0.0401  0.5548
   63MOL    C2419988   0.054   4.048   6.493 -0.2703  0.1140  0.4333
   63MOL    H2519989   7.424   4.199   6.477 -1.6557 -0.8839 -0.7849
   63MOL    H2619990   7.463   4.051   6.542  0.4574  1.7028  0.5023
   63MOL    H2719991   7.698   4.175   6.417 -0.5082 -3.1833 -1.3142
   63MOL    H2819992   0.075   3.928   6.752 -0.9629  1.1501  0.4970
   63MOL    H2919993   7.809   3.810   6.686 -0.4350 -0.1102 -0.1165
   63MOL    H3019994   0.093   3.840   6.600 -1.1231  0.2594 -0.6581
   63MOL    H3119995   0.019   4.005   6.399 -0.1785 -0.6134  0.7347
   63MOL    H3219996   0.161   4.030   6.503 -0.0661 -0.2179 -2.0334
   63MOL    H3319997   0.047   4.157   6.490 -2.2871  0.0054  0.3487
   63MOL    C3419998   7.637   4.300   6.581 -0.3584  0.2628 -0.3461
   63MOL    C3519999   7.588   4.420   6.499  0.1138 -0.1880 -0.3890
   63MOL    C3620000   7.697   4.498   6.424 -0.1940 -0.2849  0.0453
   63MOL    O3720001   7.799   4.524   6.483 -0.0419 -0.1619  0.2845
   63MOL    N3820002   7.661   4.555   6.301 -0.1069 -0.0781 -0.3951
   63MOL    C3920003   7.551   4.516   6.218  0.4345  0.0941 -0.4956
   63MOL    C4020004   7.731   4.680   6.256 -0.3986  0.0820 -0.3717
   63MOL    H4120005   7.577   4.292   6.672  0.5611  1.2614  0.3580
   63MOL    H4220006   7.734   4.324   6.626  0.1787 -0.2326 -1.2242
   63MOL    H4320007   7.519   4.387   6.422  1.3688  0.7812 -1.9659
   63MOL    H4420008   7.463   4.571   6.253 -0.3203 -1.5556  0.2325
   63MOL    H4520009   7.574   4.546   6.115  0.6295 -1.7317 -1.0051
   63MOL    H4620010   7.534   4.408   6.218  2.2494 -0.1949 -0.4102
   63MOL    H4720011   7.708   4.770   6.313 -0.0460  0.0477 -0.1736
   63MOL    H4820012   7.722   4.695   6.148 -0.8129 -2.2578 -0.6854
   63MOL    H4920013   7.839   4.668   6.264 -0.5091 -0.2392  0.6962
   63MOL    C5020014   7.519   4.524   6.596 -0.2844  0.0740  0.9158
   63MOL    C5120015   7.376   4.486   6.642  0.7878 -0.4368 -0.4240
   63MOL    C5220016   7.272   4.494   6.529  0.5017 -0.3029 -0.2631
   63MOL    O5320017   7.292   4.579   6.439 -0.1409 -0.5308  0.4628
   63MOL    N5420018   7.179   4.397   6.514  0.3585  0.0064  0.7423
   63MOL    C5520019   7.139   4.304   6.618 -0.3203 -0.2156 -0.3463
   63MOL    C5620020   7.106   4.377   6.384  0.1083 -0.3509  0.6316
   63MOL    H5720021   7.600   4.525   6.668  0.6744  1.0192 -0.1525
   63MOL    H5820022   7.515   4.626   6.558  1.0359 -0.1581  0.1374
   63MOL    H5920023   7.372   4.384   6.681  0.3735 -0.4076 -0.3925
   63MOL    H6020024   7.045   4.258   6.587 -1.3643  2.0356 -0.5936
   63MOL    H6120025   7.224   4.234   6.622  0.8820  1.2722  0.8470
   63MOL    H6220026   7.136   4.339   6.721  0.8088 -0.5934 -0.1683
   63MOL    H6320027   7.038   4.292   6.387 -0.1648 -0.1017  1.4630
   63MOL    H6420028   7.177   4.366   6.301 -2.9294 -1.6003 -1.8973
   63MOL    H6520029   7.047   4.467   6.366  0.2549 -0.3756  0.0051
   63MOL    C6620030   7.334   4.575   6.759  0.0000  0.2950  0.2138
   63MOL    C6720031   7.414   4.569   6.882  0.8890 -0.4366 -0.8127
   63MOL    C6820032   7.432   4.427   6.936 -0.4202 -0.2484  0.0068
   63MOL    O6920033   7.341   4.348   6.938 -0.0555 -0.2465  0.1317
   63MOL    N7020034   7.554   4.395   7.000  0.6516 -0.3030 -0.4989
   63MOL    C7120035   7.667   4.496   6.992 -0.3856  0.0852  0.5678
   63MOL    C7220036   7.579   4.262   7.064  0.1464  0.2753  0.7900
   63MOL    H7320037   7.340   4.677   6.719 -2.5897  1.0035  1.5179
   63MOL    H7420038   7.231   4.557   6.789  0.2850  1.3261  1.9342
   63MOL    H7520039   7.506   4.617   6.848  0.3522  0.6896 -0.7225
   63MOL    H7620040   7.711   4.499   6.892 -1.4046 -0.8954  0.0827
   63MOL    H7720041   7.649   4.595   7.033  0.5847  0.7661 -0.6289
   63MOL    H7820042   7.755   4.454   7.041 -0.3899  0.9226  1.2852
   63MOL    H7920043   7.661   4.218   7.008 -1.1190 -0.2784 -0.6639
   63MOL    H8020044   7.493   4.195   7.068 -1.4093  1.9943 -2.3441
   63MOL    H8120045   7.615   4.285   7.164  1.4650 -2.2542  0.9475
   63MOL    C8220046   7.344   4.643   7.004  0.5171  0.3195 -0.6117
   63MOL    C8320047   7.339   4.796   6.996  0.3721  0.4624 -0.8075
   63MOL    C8420048   7.474   4.854   6.947 -0.1503 -0.1325 -0.2572
   63MOL    O8520049   7.574   4.830   7.014 -0.2393 -0.1237 -0.5156
   63MOL    N8620050   7.480   4.934   6.835  0.3690 -0.3194  0.1773
   63MOL    C8720051   7.599   4.991   6.784 -0.1321  0.5627  0.1970
   63MOL    C8820052   7.357   4.969   6.761  0.5318 -0.3944 -0.7237
   63MOL    H8920053   7.243   4.602   7.014  0.8829 -0.8305 -1.5111
   63MOL    H9020054   7.373   4.614   7.105 -0.4245  1.5935  0.0294
   63MOL    H9120055   7.257   4.823   6.929 -0.8506 -0.8754  0.1121
   63MOL    H9220056   7.593   5.020   6.680  1.3005 -1.0113 -0.3439
   63MOL    H9320057   7.606   5.083   6.842 -0.7453  0.1522  0.9435
   63MOL    H9420058   7.688   4.929   6.792 -0.5282  0.2658  2.9930
   63MOL    H9520059   7.377   5.053   6.694  0.0118  0.7232  0.4886
   63MOL    H9620060   7.273   4.995   6.826 -0.0224 -1.3778 -1.0381
   63MOL    H9720061   7.320   4.885   6.703 -0.3304  0.4708 -1.4335
   63MOL    C9820062   7.309   4.867   7.128  0.0906  0.6891  0.2396
   63MOL    C9920063   7.167   4.842   7.190  0.7775  0.2925  0.0007
   63MOL   C10020064   7.060   4.917   7.100 -0.0690 -0.7882  0.2394
   63MOL   O10120065   7.086   5.037   7.065 -0.3566 -0.0973  0.2319
   63MOL   N10220066   6.949   4.853   7.068 -0.1433 -0.4067  0.0820
   63MOL   C10320067   6.920   4.712   7.094  0.6358  0.5065  0.1630
   63MOL   C10420068   6.837   4.917   7.007 -0.6498 -0.5516  0.8084
   63MOL   H10520069   7.381   4.841   7.206  0.0964  1.3343  0.4481
   63MOL   H10620070   7.324   4.973   7.107 -0.8439  0.4662 -1.6880
   63MOL   H10720071   7.158   4.733   7.192  1.2336  0.1564 -2.5569
   63MOL   H10820072   7.009   4.657   7.063 -1.4447 -3.0971  0.4033
   63MOL   H10920073   6.893   4.696   7.198 -0.8691 -2.7275 -0.6567
   63MOL   H11020074   6.840   4.671   7.033 -0.7062 -1.0986  2.9212
   63MOL   H11120075   6.755   4.848   6.989  0.7004 -2.3914  1.5663
   63MOL   H11220076   6.880   4.967   6.921  0.2886 -2.8188 -0.0616
   63MOL   H11320077   6.815   4.988   7.088  0.7373  0.4989  0.2855
   63MOL   C11420078   7.164   4.894   7.336 -0.2008 -0.3154 -0.7427
   63MOL   C11520079   7.206   4.789   7.436 -1.0602  0.4441 -0.4403
   63MOL   C11620080   7.086   4.704   7.467  0.0955  0.2599  0.5107
   63MOL   O11720081   7.000   4.754   7.536  0.3080  0.1274  0.1533
   63MOL   N11820082   7.079   4.572   7.415 -0.0162 -0.4195 -0.0524
   63MOL   C11920083   6.944   4.508   7.406 -0.0048 -0.1500 -0.4196
   63MOL   C12020084   7.198   4.489   7.368  0.6506  0.2241 -0.6964
   63MOL   H12120085   7.228   4.982   7.335  0.3436 -0.7087 -0.6750
   63MOL   H12220086   7.065   4.930   7.364  0.1674  1.0908 -1.2040
   63MOL   H12320087   7.293   4.736   7.396 -0.4819  1.2874 -0.3011
   63MOL   H12420088   6.906   4.479   7.504 -0.2028  1.2466 -0.0777
   63MOL   H12520089   6.867   4.580   7.377  0.2091  0.8794  1.5319
   63MOL   H12620090   6.933   4.428   7.332 -0.1575  0.4234 -1.0263
   63MOL   H12720091   7.272   4.503   7.447 -0.4884  1.9897  0.1005
   63MOL   H12820092   7.244   4.525   7.276 -0.4714 -1.1097 -1.8081
   63MOL   H12920093   7.169   4.384   7.375 -0.2421  0.5061 -0.0848
   63MOL   C13020094   7.255   4.841   7.575  0.3732 -0.2754  0.4741
   63MOL   C13120095   7.319   4.745   7.678 -0.3023 -0.4826  0.3246
   63MOL   C13220096   7.237   4.744   7.805  0.6525 -0.0781 -0.3495
   63MOL   O13320097   7.238   4.844   0.021  0.4998  0.0717  0.2924
   63MOL   N13420098   7.176   4.631   0.001  0.3126 -0.3698  0.6408
   63MOL   C13520099   7.098   4.635   0.123  0.1437 -0.1719  0.1757
   63MOL   C13620100   7.171   4.499   7.788 -0.4362 -0.2325 -0.0225
   63MOL   H13720101   7.327   4.918   7.547  0.8454 -1.0451 -0.4521
   63MOL   H13820102   7.182   4.900   7.631 -2.9253 -3.5590 -0.1454
   63MOL   H13920103   7.326   4.644   7.637  1.2163  1.1632 -3.7094
   63MOL   H14020104   7.046   4.541   0.142 -1.3693  0.5538 -0.3004
   63MOL   H14120105   7.160   4.660   0.209 -0.0412 -1.1766  0.6145
   63MOL   H14220106   7.020   4.712   0.121  1.5427  1.2462 -2.1494
   63MOL   H14320107   7.087   4.508   7.721 -1.6397 -2.3543  1.1651
   63MOL   H14420108   7.152   4.407   7.843 -0.9093 -1.6389 -2.4748
   63MOL   H14520109   7.252   4.480   7.718 -0.8612  0.4677 -0.7080
   63MOL   C14620110   7.471   4.781   7.687 -0.1163 -0.3059  0.6088
   63MOL   C14720111   7.564   4.680   7.749 -0.1658  0.0128  1.0206
   63MOL   C14820112   7.556   4.676   0.052  0.1618  0.6724 -0.4521
   63MOL   O14920113   7.587   4.768   0.123  0.0479  0.1693 -0.3150
   63MOL   N15020114   7.497   4.566   0.109 -0.2388 -0.5665 -0.2815
   63MOL   C15120115   7.460   4.562   0.258 -0.2273 -0.0095 -0.2775
   63MOL   C15220116   7.510   4.437   0.047 -0.6324  0.4728  0.5477
   63MOL   H15320117   7.503   4.807   7.586  0.3660 -1.6951  0.3948
   63MOL   H15420118   7.470   4.874   7.745 -2.2320 -1.5806  2.7244
   63MOL   H15520119   7.548   4.582   7.703  2.4705  0.2386 -0.4782
   63MOL   H15620120   7.548   4.550   0.321 -0.8032 -0.2926  0.4732
   63MOL   H15720121   7.416   4.655   0.295  1.2089  2.7967 -5.1158
   63MOL   H15820122   7.389   4.481   0.277 -2.6246  1.0367 -4.0960
   63MOL   H15920123   7.614   4.419   0.019 -0.7526 -2.3494  1.7474
   63MOL   H16020124   7.441   4.412   7.820  0.3332  0.0275 -0.1617
   63MOL   H16120125   7.491   4.363   0.125  1.7362  0.1880  0.9141
   63MOL   C16220126   7.708   4.735   7.722 -0.1353 -0.1816 -0.2165
   63MOL   C16320127   7.766   4.712   7.582 -0.0560  0.3394  0.3839
   63MOL   C16420128   7.769   4.561   7.550  0.2493  0.3149  0.6307
   63MOL   O16520129   7.836   4.486   7.620  0.3802  0.3756 -0.2889
   63MOL   N16620130   7.690   4.505   7.454 -0.5807  0.2448  0.2133
   63MOL   C16720131   7.580   4.572   7.390  0.2952 -0.4688 -0.1679
   63MOL   C16820132   7.714   4.364   7.411  0.1104 -0.1187 -0.5243
   63MOL   H16920133   7.703   4.841   7.745  0.0058  0.1188 -1.5172
   63MOL   H17020134   7.782   4.693   7.790 -0.4983  0.0254  0.3068
   63MOL   H17120135   7.706   4.774   7.515  0.9554  0.8326 -0.0845
   63MOL   H17220136   7.507   4.606   7.463  2.8863  0.8581  1.8745
   63MOL   H17320137   7.613   4.660   7.334 -1.7720 -1.1850 -2.6272
   63MOL   H17420138   7.522   4.513   7.319  1.5502 -2.3705  0.3559
   63MOL   H17520139   7.793   4.314   7.468  1.2552  3.4511  1.1575
   63MOL   H17620140   7.746   4.352   7.307 -1.3906 -0.5950 -0.9308
   63MOL   H17720141   7.629   4.304   7.444 -0.6142  0.8417 -0.6366
   63MOL   C17820142   0.052   4.778   7.585 -0.0671 -1.0012 -0.6422
   63MOL   C17920143   0.142   4.772   7.454 -0.4365 -0.0113  0.6142
   63MOL   C18020144   0.079   4.847   7.342 -0.0039 -0.6173  0.6771
   63MOL   O18120145   7.820   4.810   7.309  0.9614 -0.4005  0.1209
   63MOL   N18220146   0.137   4.957   7.285 -0.7303  0.6830 -0.7585
   63MOL   C18320147   0.083   5.000   7.152 -0.0190  0.1045 -0.6706
   63MOL   C18420148   0.256   5.029   7.321 -0.5317  0.5546  0.4209
   63MOL   H18520149   0.026   4.883   7.594  0.5779 -0.5641 -3.3276
   63MOL   H18620150   0.106   4.759   7.677 -0.9915 -0.6769 -0.0263
   63MOL   H18720151   0.217   4.843   7.490 -0.2855  0.6678 -1.0228
   63MOL   H18820152   0.137   4.964   7.064 -0.4650  0.0336 -0.9203
   63MOL   H18920153   7.831   4.975   7.144 -0.4230  1.0814  1.3985
   63MOL   H19020154   0.080   5.109   7.155 -2.1897  0.1721 -3.0777
   63MOL   H19120155   0.333   4.959   7.351 -0.3380 -0.0763 -1.4373
   63MOL   H19220156   0.245   5.116   7.386  1.2454  0.3055  1.0776
   63MOL   H19320157   0.292   5.068   7.226 -0.6246 -1.9822 -0.7003
   63MOL   C19420158   0.216   4.634   7.421 -0.2209 -0.6425 -0.0634
   63MOL   C19520159   0.338   4.597   7.505 -0.1697 -0.5068  0.4292
   63MOL   C19620160   0.451   4.705   7.502 -0.0123  0.4484 -1.2524
   63MOL   O19720161   0.479   4.758   7.396  0.5400 -0.1512  0.0345
   63MOL   N19820162   0.516   4.746   7.615  0.7587  0.0420  0.1556
   63MOL   C19920163   0.526   4.673   7.742 -0.2490  0.3358  0.6350
   63MOL   C20020164   0.600   4.870   7.607 -0.4102 -0.7977  0.3673
   63MOL   H20120165   0.139   4.557   7.422 -0.1011 -0.7589  0.2145
   63MOL   H20220166   0.252   4.634   7.318  1.7921  0.9228  0.6025
   63MOL   H20320167   0.291   4.596   7.603  3.0437  2.2904  2.1192
   63MOL   H20420168   0.424   4.672   7.780  0.1393 -2.8911  1.7342
   63MOL   H20520169   0.547   4.567   7.730  0.6072  0.9528 -4.3503
   63MOL   H20620170   0.589   4.717   7.819  2.7421 -3.0870  0.2898
   63MOL   H20720171   0.541   4.942   7.551 -0.2088 -0.6508  0.3447
   63MOL   H20820172   0.688   4.844   7.548 -0.1019 -4.8588  2.4495
   63MOL   H20920173   0.642   4.911   7.698 -0.3497  2.3893 -1.0297
   63MOL   C21020174   0.392   4.453   7.485  0.1424  0.8260 -0.2182
   63MOL   C21120175   0.480   4.417   7.362  0.6625  0.4664 -1.1841
   63MOL   C21220176   0.415   4.445   7.224 -0.5260  0.0414  0.1777
   63MOL   O21320177   0.301   4.406   7.209  0.4476 -0.4673 -0.3785
   63MOL   N21420178   0.485   4.516   7.140 -1.2618 -0.0769 -0.5723
   63MOL   C21520179   0.410   4.603   7.051 -0.6153  0.1356 -0.1184
   63MOL   C21620180   0.628   4.551   7.147  0.4692  0.5230 -0.1601
   63MOL   H21720181   0.459   4.436   7.569  1.6205  1.9207 -1.1507
   63MOL   H21820182   0.303   4.390   7.487 -0.3030  1.4715  1.6177
   63MOL   H21920183   0.569   4.475   7.386 -0.5633  0.7383  3.0215
   63MOL   H22020184   0.477   4.681   7.015 -0.5464  0.2981  0.3573
   63MOL   H22120185   0.368   4.542   6.972  0.3857 -0.4922 -0.1678
   63MOL   H22220186   0.327   4.657   7.097 -1.8136 -2.0469  0.3544
   63MOL   H22320187   0.692   4.464   7.149 -1.2227 -0.7928 -1.9082
   63MOL   H22420188   0.639   4.620   7.231 -0.8178 -0.2977  0.6909
   63MOL   H22520189   0.659   4.604   7.057  0.7529  0.7712  0.0825
   63MOL   C22620190   0.535   4.270   7.366  0.4521  0.4235  0.1001
   63MOL   C22720191   0.436   4.157   7.389 -0.0510  0.8657 -0.7951
   63MOL   C22820192   0.433   4.117   7.541 -0.1826  0.0410 -0.5696
   63MOL   O22920193   0.542   4.103   7.599  0.3788 -0.4043 -0.6913
   63MOL   N23020194   0.317   4.095   7.608 -0.1469 -1.0087 -0.6703
   63MOL   C23120195   0.181   4.101   7.548 -0.0763  0.4044  0.5270
   63MOL   C23220196   0.326   4.035   7.740 -0.2286 -0.0443 -0.3077
   63MOL   H23320197   0.598   4.255   7.278  3.0088 -0.4599  2.0172
   63MOL   H23420198   0.605   4.280   7.449  2.0580 -2.4266 -0.8559
   63MOL   H23520199   0.338   4.187   7.350 -0.6549 -1.9401 -1.5075
   63MOL   H23620200   0.160   4.043   7.458 -1.9601  1.3553  0.3383
   63MOL   H23720201   0.117   4.044   7.615 -1.9811  1.3403 -0.4686
   63MOL   H23820202   0.140   4.202   7.550  0.1708  0.5060  0.5981
   63MOL   H23920203   0.382   4.094   7.813  0.3882 -0.6460 -0.2913
   63MOL   H24020204   0.368   3.934   7.741  0.2172  0.1430  1.6374
   63MOL   H24120205   0.232   4.023   7.794  1.4810  1.4223  3.1326
   63MOL   C24220206   0.465   4.029   7.307  0.4055  0.3557  0.0042
   63MOL   C24320207   0.428   4.039   7.157  0.6265  0.6397  0.9301
   63MOL   C24420208   0.272   4.031   7.138  0.1891 -0.8946 -0.4256
   63MOL   O24520209   0.209   3.955   7.213 -0.4291 -0.2298 -0.1949
   63MOL   N24620210   0.215   4.108   7.040  0.2459  0.3725  0.6295
   63MOL   C24720211   0.072   4.094   7.016 -1.0921 -0.1310 -0.1932
   63MOL   C24820212   0.288   4.190   6.943  0.6536  0.0343 -0.5723
   63MOL   H24920213   0.568   3.996   7.320  1.0559  2.4094  0.3099
   63MOL   H25020214   0.404   3.943   7.336 -1.0952  0.1962 -3.3839
   63MOL   H25120215   0.462   4.130   7.108 -1.3349  0.9477  0.0890
   63MOL   H25220216   0.020   4.185   6.986 -1.0369  0.1080  0.4427
   63MOL   H25320217   0.046   4.008   6.954  2.4544  0.0719 -2.1150
   63MOL   H25420218   0.022   4.071   7.110 -1.7587  0.1495 -0.4773
   63MOL   H25520219   0.372   4.151   6.887 -0.0853 -0.7484 -1.1543
   63MOL   H25620220   0.331   4.275   6.996 -0.0310  0.4875 -0.7350
   63MOL   H25720221   0.220   4.241   6.874 -0.8519  1.1529  1.6684
   63MOL   C25820222   0.492   3.915   7.079  1.0112 -0.0660 -0.3390
   63MOL   C25920223   0.645   3.895   7.079  0.1997  0.2582  0.1753
   63MOL   C26020224   0.719   4.029   7.063  0.3781 -0.8938  0.4052
   63MOL   O26120225   0.691   4.101   6.965  0.5572 -0.0977  0.2708
   63MOL   N26220226   0.818   4.064   7.158 -0.1099 -0.1602  0.1579
   63MOL   C26320227   0.877   4.192   7.153  0.0789  0.5329  0.1195
   63MOL   C26420228   0.854   4.008   7.289 -0.0739  0.5027  0.7731
   63MOL   H26520229   0.441   3.828   7.118  0.1698  0.9542  0.8520
   63MOL   H26620230   0.456   3.924   6.976 -1.8786  1.6057  0.7703
   63MOL   H26720231   0.668   3.850   7.175  1.0261  1.1358  0.3987
   63MOL   H26820232   0.977   4.189   7.110  0.1054  0.5727  0.1805
   63MOL   H26920233   0.819   4.269   7.102 -0.9360 -0.4811 -0.2969
   63MOL   H27020234   0.886   4.236   7.252  0.2620  0.9278 -0.0725
   63MOL   H27120235   0.792   4.051   7.368 -1.8406 -0.3165 -0.1425
   63MOL   H27220236   0.959   4.021   7.315  0.5124  0.5653 -1.5190
   63MOL   H27320237   0.838   3.900   7.281  2.2649  0.2907 -1.6606
   63MOL   C27420238   0.694   3.809   6.961 -0.6128  0.1927  0.5460
   63MOL   C27520239   0.624   3.675   6.935  0.0545  0.4625  0.3870
   63MOL   C27620240   0.615   3.588   7.058  1.1249  0.6523  0.2764
   63MOL   O27720241   0.712   3.590   7.132 -0.0276 -0.2540 -0.5779
   63MOL   N27820242   0.510   3.513   7.086 -0.0636 -0.4171  0.5233
   63MOL   C27920243   0.494   3.438   7.209  0.7695 -0.2087 -0.5463
   63MOL   C28020244   0.382   3.524   7.017  0.3941 -0.5259  0.4249
   63MOL   H28120245   0.692   3.865   6.867 -1.4296 -0.2584  0.2907
   63MOL   H28220246   0.801   3.791   6.973 -0.4931 -0.6356 -1.5090
   63MOL   H28320247   0.525   3.700   6.897  0.9647  0.7140 -1.9301
   63MOL   H28420248   0.580   3.455   7.274 -1.0779  2.1880  1.3712
   63MOL   H28520249   0.411   3.474   7.270  1.6128 -0.1003  0.5620
   63MOL   H28620250   0.477   3.334   7.180  2.9120 -0.9862  0.8820
   63MOL   H28720251   0.393   3.527   6.909  0.0220 -3.5240  0.2671
   63MOL   H28820252   0.336   3.617   7.051 -0.9533 -0.5929 -1.1841
   63MOL   H28920253   0.313   3.443   7.041 -1.4777  0.7413 -0.5882
   63MOL   C29020254   0.700   3.591   6.828 -0.4968 -0.1486  0.1247
   63MOL   C29120255   0.717   3.654   6.689  0.1300  0.0162  0.4606
   63MOL   C29220256   0.591   3.718   6.630  0.3246 -0.7865  0.1066
   63MOL   O29320257   0.490   3.645   6.615 -0.0238 -0.6700 -0.7211
   63MOL   N29420258   0.589   3.849   6.581 -0.3930  0.1650 -0.9868
   63MOL   C29520259   0.456   3.909   6.560  0.6946 -0.2351 -0.6646
   63MOL   C29620260   0.709   3.935   6.559 -0.0503 -0.4609  0.3601
   63MOL   H29720261   0.799   3.560   6.862 -1.0973 -0.2244  1.8862
   63MOL   H29820262   0.647   3.497   6.818  1.4995 -1.2152 -0.7289
   63MOL   H29920263   0.796   3.729   6.683  0.6714 -0.6840 -1.6934
   63MOL   H30020264   0.402   3.922   6.654  0.8039 -1.6230 -0.3957
   63MOL   H30120265   0.450   4.012   6.523 -0.6269  0.6734  1.9246
   63MOL   H30220266   0.394   3.847   6.495  0.9327 -3.0525  1.7036
   63MOL   H30320267   0.690   4.015   6.488 -1.9288 -1.4034 -0.2284
   63MOL   H30420268   0.796   3.875   6.532 -0.1038 -0.4114  0.0706
   63MOL   H30520269   0.734   3.983   6.653 -1.7459 -0.3147  0.7513
   63MOL   C30620270   0.756   3.541   6.581  0.0410 -0.0770 -0.3693
   63MOL   C30720271   0.809   3.579   6.441 -0.0514  0.2628 -0.1052
   63MOL   C30820272   0.955   3.643   6.434  0.1474 -0.3745  0.1725
   63MOL   O30920273   1.045   3.626   6.523  0.0973 -0.3023  0.1197
   63MOL   N31020274   0.980   3.730   6.330  0.2406 -0.7275 -0.0052
   63MOL   C31120275   1.096   3.813   6.321  0.7372 -0.2749 -0.3459
   63MOL   C31220276   0.884   3.755   6.227  0.1559  0.5502 -0.2874
   63MOL   H31320277   0.827   3.480   6.636 -0.0686 -2.3060 -2.6184
   63MOL   H31420278   0.668   3.478   6.565 -2.5258  2.3246  3.3172
   63MOL   H31520279   0.821   3.478   6.401  1.5267  0.4805 -0.2313
   63MOL   H31620280   1.102   3.873   6.231 -1.0306  0.1531 -0.1882
   63MOL   H31720281   1.115   3.870   6.412  0.9745 -0.7411 -0.1015
   63MOL   H31820282   1.185   3.750   6.314  1.2654  0.6461 -2.1632
   63MOL   H31920283   0.804   3.813   6.272 -1.1842 -0.9685 -0.6564
   63MOL   H32020284   0.840   3.667   6.181  0.8683 -0.4506  0.8869
   63MOL   H32120285   0.929   3.806   6.142  1.9580 -1.8814 -0.8583
   63MOL   H32220286   0.735   3.620   6.373 -0.2946  0.3127  0.1910
   64MOL     C120287   6.318   2.849   4.425  0.2858  0.1459  0.1374
   64MOL     C220288   6.370   2.993   4.446 -0.0310 -0.5706  0.2672
   64MOL     C320289   6.268   3.108   4.430 -0.1471  0.7907 -0.4550
   64MOL     O420290   6.185   3.094   4.340  0.4657  0.4611  0.5480
   64MOL     N520291   6.279   3.222   4.501  0.0833  0.1347  0.1694
   64MOL     C620292   6.374   3.246   4.602  0.0829  0.2692  0.4305
   64MOL     C720293   6.174   3.327   4.496 -0.1457  0.5099 -0.0428
   64MOL     H820294   6.366   2.775   4.488 -1.0313 -0.9043 -0.0520
   64MOL     H920295   6.344   2.813   4.326 -3.2007 -2.2007 -0.0247
   64MOL    H1020296   6.376   2.986   4.554 -1.7556  2.8770  0.6438
   64MOL    H1120297   6.375   3.348   4.639 -0.2723 -0.1200  1.5139
   64MOL    H1220298   6.331   3.191   4.686 -2.4597 -0.5793 -1.3679
   64MOL    H1320299   6.475   3.212   4.578 -0.1595  1.8154 -3.1201
   64MOL    H1420300   6.149   3.350   4.600  1.1335 -2.0502  0.8545
   64MOL    H1520301   6.084   3.288   4.449  1.1071 -3.1584  0.4427
   64MOL    H1620302   6.214   3.421   4.458 -0.8868  1.3536  1.2010
   64MOL    H1720303   6.209   2.849   4.430  0.1825  0.6683 -1.8786
   64MOL    C1820304   6.510   3.005   4.371 -0.7300 -0.2893  0.0602
   64MOL    C1920305   6.513   3.014   4.211  0.7346 -0.0438 -0.6099
   64MOL    C2020306   6.508   2.876   4.141  0.5037 -0.8844  0.4714
   64MOL    O2120307   6.597   2.795   4.153  0.0288  0.4561  0.3326
   64MOL    N2220308   6.400   2.830   4.074  0.3658 -0.2609 -0.4515
   64MOL    C2320309   6.410   2.706   4.000  0.1229 -0.4022  0.4006
   64MOL    C2420310   6.286   2.920   4.046 -1.1863  0.6898  0.0695
   64MOL    H2520311   6.573   3.084   4.413  1.4759 -1.4912 -0.8829
   64MOL    H2620312   6.555   2.913   4.407 -0.4625  0.3927  1.5100
   64MOL    H2720313   6.430   3.074   4.173  1.1298  0.1205 -1.2209
   64MOL    H2820314   6.401   2.615   4.059 -1.3032 -0.3399  0.2812
   64MOL    H2920315   6.342   2.693   3.916  1.1228  0.4083 -0.5612
   64MOL    H3020316   6.507   2.697   3.950  0.0448  2.9419 -0.4552
   64MOL    H3120317   6.308   2.986   3.962  0.9828 -2.5604 -2.0742
   64MOL    H3220318   6.240   2.977   4.126  0.6890  0.4296  1.3561
   64MOL    H3320319   6.211   2.847   4.012  1.1091 -2.6438  1.8673
   64MOL    C3420320   6.626   3.099   4.154 -0.5387  0.0662 -0.3649
   64MOL    C3520321   6.592   3.199   4.034 -0.8338  0.5886 -0.2440
   64MOL    C3620322   6.544   3.129   3.904  0.0290 -0.3184  0.1541
   64MOL    O3720323   6.588   3.018   3.873  0.1756 -0.2601 -0.0747
   64MOL    N3820324   6.467   3.204   3.818  0.5586  0.5227 -0.1091
   64MOL    C3920325   6.417   3.133   3.696 -0.1756  0.0996  0.2874
   64MOL    C4020326   6.433   3.341   3.832 -0.0426  0.0249  0.0008
   64MOL    H4120327   6.658   3.164   4.235 -0.3760  0.7393 -0.9651
   64MOL    H4220328   6.713   3.038   4.129  0.4424  0.7307  1.4085
   64MOL    H4320329   6.503   3.254   4.064 -1.5661 -0.3843 -0.6368
   64MOL    H4420330   6.332   3.191   3.661 -0.8474 -1.1411 -0.1568
   64MOL    H4520331   6.494   3.115   3.621 -0.7135  0.6804 -0.4019
   64MOL    H4620332   6.380   3.034   3.725  1.3803 -0.7892 -0.7050
   64MOL    H4720333   6.425   3.383   3.732 -0.0145 -0.2899 -0.1338
   64MOL    H4820334   6.510   3.393   3.890 -0.7185  1.1301 -0.0790
   64MOL    H4920335   6.334   3.361   3.873  0.9519 -0.3991  2.7013
   64MOL    C5020336   6.715   3.292   4.016  0.1459 -0.1889  0.2374
   64MOL    C5120337   6.766   3.378   4.133 -0.1591 -0.4143  0.7800
   64MOL    C5220338   6.652   3.462   4.197 -0.2499 -0.1796  0.0151
   64MOL    O5320339   6.576   3.532   4.126 -0.3062  0.7380 -0.0755
   64MOL    N5420340   6.622   3.454   4.331  0.5487 -0.1025  0.5527
   64MOL    C5520341   6.718   3.406   4.428  0.5830 -0.4068  0.3618
   64MOL    C5620342   6.481   3.461   4.363 -0.2668  0.8546  0.0295
   64MOL    H5720343   6.806   3.235   3.999  1.0759  1.4487 -0.3811
   64MOL    H5820344   6.703   3.346   3.922  0.9435 -1.2293 -0.4769
   64MOL    H5920345   6.817   3.307   4.199 -1.5417  0.8485  3.3179
   64MOL    H6020346   6.714   3.482   4.507 -2.3955 -0.0622 -0.0618
   64MOL    H6120347   6.700   3.308   4.472  0.4809 -0.7853 -0.5117
   64MOL    H6220348   6.821   3.406   4.391  0.8846  1.1623  1.1244
   64MOL    H6320349   6.458   3.458   4.470  0.5964 -1.2715  0.1733
   64MOL    H6420350   6.421   3.386   4.313  0.0424 -0.2013  1.2195
   64MOL    H6520351   6.426   3.543   4.317 -1.7278 -1.3309 -2.2061
   64MOL    C6620352   6.896   3.467   4.101  0.1613 -0.1304  0.0640
   64MOL    C6720353   6.877   3.601   4.025 -0.1136  0.1691 -0.5326
   64MOL    C6820354   6.847   3.571   3.877  0.0061  0.2139 -0.5275
   64MOL    O6920355   6.908   3.480   3.819  0.0864 -0.0939 -0.4162
   64MOL    N7020356   6.747   3.635   3.815 -0.2541 -0.8995  0.1642
   64MOL    C7120357   6.713   3.594   3.678  0.4502  0.4893  0.1401
   64MOL    C7220358   6.668   3.744   3.872 -0.4688 -0.0164  0.1643
   64MOL    H7320359   6.939   3.478   4.200 -1.6360 -2.4077  1.1480
   64MOL    H7420360   6.976   3.412   4.052  0.1134 -0.0365 -0.1198
   64MOL    H7520361   6.787   3.640   4.072 -1.3290  0.2356 -2.8268
   64MOL    H7620362   6.606   3.577   3.673  0.5514  0.0657 -0.6986
   64MOL    H7720363   6.733   3.677   3.610 -1.4660  0.4610 -0.4704
   64MOL    H7820364   6.756   3.499   3.647 -0.8023  0.5131 -1.7268
   64MOL    H7920365   6.741   3.814   3.913 -1.2294  1.1855 -0.4955
   64MOL    H8020366   6.602   3.702   3.948 -0.6875  2.1182  1.2030
   64MOL    H8120367   6.601   3.787   3.797  0.1998  1.9902  0.6782
   64MOL    C8220368   6.998   3.695   4.035 -0.4381  0.0540 -0.3219
   64MOL    C8320369   7.016   3.753   4.177 -0.2204  0.2697  0.6384
   64MOL    C8420370   6.906   3.854   4.211  0.2261 -0.0541 -0.0595
   64MOL    O8520371   6.856   3.922   4.124 -0.0278 -0.2166  0.0488
   64MOL    N8620372   6.863   3.876   4.341 -0.0958  0.7950  0.3674
   64MOL    C8720373   6.877   3.775   4.445  0.4361 -0.3292  0.6863
   64MOL    C8820374   6.792   4.002   4.385 -0.7807 -0.1360  0.1312
   64MOL    H8920375   7.096   3.650   4.016  0.6173  1.2507  2.0216
   64MOL    H9020376   7.000   3.770   3.957 -3.0149  0.8813  0.3532
   64MOL    H9120377   7.014   3.667   4.243 -1.9838 -0.0611  0.1999
   64MOL    H9220378   6.939   3.686   4.435  0.0593 -0.7164  1.7057
   64MOL    H9320379   6.918   3.823   4.534 -0.3345  1.5427  0.0597
   64MOL    H9420380   6.773   3.741   4.451  0.0464  0.8217  0.7083
   64MOL    H9520381   6.831   4.098   4.349  1.0835 -1.0828 -0.4510
   64MOL    H9620382   6.797   4.021   4.492  1.0713  0.7515 -0.0755
   64MOL    H9720383   6.688   3.993   4.354 -0.9024  1.1379  0.1435
   64MOL    C9820384   7.158   3.805   4.202 -0.0708  0.2457  0.1358
   64MOL    C9920385   7.191   3.935   4.120 -1.0664 -0.5408  0.5387
   64MOL   C10020386   7.324   3.904   4.039  0.3569  0.1201 -0.4680
   64MOL   O10120387   7.423   3.886   4.101 -0.2745  0.4588 -0.0629
   64MOL   N10220388   7.321   3.895   3.902 -0.4310 -0.2234  0.5406
   64MOL   C10320389   7.440   3.886   3.817 -0.6183 -0.1180  0.4725
   64MOL   C10420390   7.206   3.917   3.812 -0.2193  0.1632 -0.7371
   64MOL   H10520391   7.162   3.814   4.311  1.8719 -2.2273  0.3069
   64MOL   H10620392   7.228   3.726   4.176 -1.2533 -0.0358 -2.2782
   64MOL   H10720393   7.112   3.963   4.050  0.9141  2.4161 -0.6241
   64MOL   H10820394   7.435   3.937   3.720  3.2094  0.5147  0.5269
   64MOL   H10920395   7.532   3.926   3.860  0.7988 -2.3007 -0.4699
   64MOL   H11020396   7.462   3.781   3.799  0.6890  0.2838 -0.3592
   64MOL   H11120397   7.144   3.828   3.804  0.7528 -0.4001 -2.4233
   64MOL   H11220398   7.237   3.945   3.711  0.8235  0.3633 -0.3706
   64MOL   H11320399   7.137   3.988   3.857 -0.9533 -1.9638  1.5729
   64MOL   C11420400   7.208   4.055   4.216 -0.2131  0.3966  0.3294
   64MOL   C11520401   7.241   4.185   4.141  0.6722 -0.7191  0.2044
   64MOL   C11620402   7.327   4.276   4.232 -0.6272  0.3960 -0.2210
   64MOL   O11720403   7.267   4.341   4.318 -0.8749 -0.0140 -0.1020
   64MOL   N11820404   7.463   4.283   4.221 -0.2768  0.1859 -0.2703
   64MOL   C11920405   7.539   4.375   4.310  0.2853  0.1432  0.2360
   64MOL   C12020406   7.540   4.219   4.116  0.2258 -0.1998  0.8036
   64MOL   H12120407   7.116   4.059   4.274  0.5201 -1.8957  1.6920
   64MOL   H12220408   7.284   4.017   4.284 -0.4174 -2.6501 -1.0877
   64MOL   H12320409   7.297   4.152   4.053  1.3185  0.7556  0.0434
   64MOL   H12420410   7.623   4.329   4.361  0.3826  1.9302  1.7309
   64MOL   H12520411   7.574   4.449   4.237  0.5397 -1.8503 -1.7209
   64MOL   H12620412   7.484   4.419   4.393 -1.7256 -0.0042 -0.9650
   64MOL   H12720413   7.638   4.260   4.092  1.3025 -3.0033  0.1906
   64MOL   H12820414   7.492   4.223   4.019 -1.2369 -0.0725  1.5135
   64MOL   H12920415   7.550   4.112   4.135  1.2568 -0.4134 -0.8558
   64MOL   C13020416   7.107   4.255   4.094  0.1637  0.2844  0.6224
   64MOL   C13120417   7.114   4.326   3.954 -0.5815 -0.7505  0.4346
   64MOL   C13220418   7.225   4.431   3.941 -0.6482  0.3879  0.0047
   64MOL   O13320419   7.203   4.537   4.005 -0.1953 -0.1795 -0.1061
   64MOL   N13420420   7.333   4.407   3.860  0.1007  0.4839  0.1237
   64MOL   C13520421   7.348   4.299   3.760  0.0927  0.2740  0.9062
   64MOL   C13620422   7.445   4.499   3.882  0.2653  0.4499 -0.2367
   64MOL   H13720423   7.029   4.180   4.083 -0.2761  0.6391  1.2801
   64MOL   H13820424   7.067   4.323   4.170 -0.6429 -0.4684  0.8797
   64MOL   H13920425   7.127   4.247   3.880  1.3060  0.1203 -0.1886
   64MOL   H14020426   7.428   4.326   3.692 -0.0198 -1.3450  0.1252
   64MOL   H14120427   7.367   4.206   3.814 -1.9356  0.0594  1.3160
   64MOL   H14220428   7.261   4.285   3.696  1.5961 -0.9252 -0.8919
   64MOL   H14320429   7.502   4.500   3.975 -0.3119  0.4265  0.1146
   64MOL   H14420430   7.398   4.597   3.877 -0.4325  0.1017 -0.4976
   64MOL   H14520431   7.525   4.489   3.808  3.6468  0.5072  3.2516
   64MOL   C14620432   6.980   4.398   3.924  0.0646  0.4695 -0.0771
   64MOL   C14720433   6.844   4.319   3.896 -0.4321 -0.1027  0.5224
   64MOL   C14820434   6.864   4.229   3.777  0.4430  0.3526  0.0538
   64MOL   O14920435   6.933   4.267   3.682  0.8232  0.1188  0.0760
   64MOL   N15020436   6.795   4.116   3.772 -0.7859 -0.2836  0.1245
   64MOL   C15120437   6.674   4.086   3.847  0.5870 -0.3817 -0.9301
   64MOL   C15220438   6.834   4.009   3.681  0.1051 -0.6008 -0.2791
   64MOL   H15320439   6.955   4.453   4.015 -0.4787  1.4981 -0.8436
   64MOL   H15420440   6.999   4.469   3.843 -2.2546  0.4583 -0.6625
   64MOL   H15520441   6.818   4.273   3.991  0.2207 -0.8531  0.3419
   64MOL   H15620442   6.610   4.012   3.799 -1.3159  0.8857 -0.4207
   64MOL   H15720443   6.690   4.061   3.952 -0.6874  0.8282 -0.4218
   64MOL   H15820444   6.605   4.171   3.849 -1.6331 -2.1638  1.3333
   64MOL   H15920445   6.929   4.023   3.630  0.2491  0.7669  0.3677
   64MOL   H16020446   6.750   3.992   3.614  0.7051  1.0529 -1.4783
   64MOL   H16120447   6.843   3.915   3.735 -1.6013  0.4534  1.9076
   64MOL   C16220448   6.739   4.430   3.862 -0.2718  1.1224 -0.3068
   64MOL   C16320449   6.679   4.515   3.977 -0.2772  0.5098 -0.4492
   64MOL   C16420450   6.601   4.420   4.081 -0.3562  0.3045 -0.6488
   64MOL   O16520451   6.493   4.364   4.052 -0.6628  0.2710 -0.3224
   64MOL   N16620452   6.660   4.411   4.206  0.6846 -0.0242 -0.1476
   64MOL   C16720453   6.758   4.500   4.270  0.2581 -0.6407  0.6403
   64MOL   C16820454   6.628   4.289   4.286  0.1872  0.6666  0.0118
   64MOL   H16920455   6.790   4.498   3.794  0.1978  1.5429  0.4604
   64MOL   H17020456   6.655   4.393   3.802  0.5635  1.1620 -1.5133
   64MOL   H17120457   6.764   4.562   4.027 -1.1529  1.7739 -0.1254
   64MOL   H17220458   6.740   4.605   4.248 -0.1958 -0.3889  2.1451
   64MOL   H17320459   6.759   4.478   4.376 -4.3161 -0.8283  0.7130
   64MOL   H17420460   6.856   4.487   4.223  0.1227  0.3777  0.0642
   64MOL   H17520461   6.522   4.266   4.277  0.3337  0.7456 -2.4856
   64MOL   H17620462   6.656   4.293   4.391  1.3604 -0.1583 -0.2566
   64MOL   H17720463   6.682   4.205   4.241 -1.3031 -0.9929  1.2965
   64MOL   C17820464   6.590   4.623   3.919  0.1269 -0.2378  0.4802
   64MOL   C17920465   6.666   4.758   3.880 -0.4597 -0.7518 -0.5329
   64MOL   C18020466   6.720   4.827   4.010 -0.4646 -0.5723 -0.2640
   64MOL   O18120467   6.649   4.864   4.097  0.2428 -0.3711  0.2375
   64MOL   N18220468   6.854   4.857   4.010  0.2069 -0.3018 -0.2641
   64MOL   C18320469   6.906   4.927   4.124  0.3009  0.4760  0.0962
   64MOL   C18420470   6.958   4.787   3.945 -0.2120 -0.2181  0.1269
   64MOL   H18520471   6.544   4.584   3.828 -0.6241  1.1927  0.2360
   64MOL   H18620472   6.511   4.644   3.991  0.2045 -0.5432  0.6594
   64MOL   H18720473   6.740   4.744   3.802 -0.2610  0.6120 -0.5948
   64MOL   H18820474   7.009   4.960   4.128  0.0262  1.1536  2.3283
   64MOL   H18920475   6.849   5.014   4.157 -1.5064 -0.9295  0.7621
   64MOL   H19020476   6.905   4.851   4.203  0.3632  1.6893  1.2952
   64MOL   H19120477   6.944   4.679   3.954  1.4173 -0.2243  3.4496
   64MOL   H19220478   7.057   4.818   3.979 -0.3880  0.4797  0.0140
   64MOL   H19320479   6.957   4.811   3.839 -0.1148 -2.3384 -0.3884
   64MOL   C19420480   6.578   4.856   3.805  0.1433  0.0089  0.0566
   64MOL   C19520481   6.542   4.809   3.664 -0.3079  0.0541  0.0799
   64MOL   C19620482   6.663   4.781   3.565 -0.0235 -0.4196  0.6089
   64MOL   O19720483   6.747   4.873   3.562 -0.2322 -0.2248 -0.8512
   64MOL   N19820484   6.668   4.673   3.486 -0.0633  0.5920 -0.1900
   64MOL   C19920485   6.555   4.575   3.488  0.1518 -0.5046 -0.7277
   64MOL   C20020486   6.784   4.634   3.404  0.6767 -0.4473 -0.1068
   64MOL   H20120487   6.482   4.880   3.851  0.1226  0.9920 -0.4835
   64MOL   H20220488   6.629   4.952   3.794  0.9647 -0.5451 -1.0335
   64MOL   H20320489   6.483   4.717   3.666 -0.1521 -0.0877 -1.1444
   64MOL   H20420490   6.528   4.533   3.584 -1.6353  1.4868 -0.3415
   64MOL   H20520491   6.464   4.629   3.460  0.6146  0.1797 -0.9385
   64MOL   H20620492   6.568   4.496   3.413 -2.3671  1.1491 -3.0252
   64MOL   H20720493   6.822   4.724   3.356 -1.5271  1.3693  1.4808
   64MOL   H20820494   6.755   4.563   3.327  0.1455  0.5174 -0.8072
   64MOL   H20920495   6.861   4.597   3.472  1.1710 -0.7365 -0.8214
   64MOL   C21020496   6.456   4.923   3.598 -0.5921 -0.3819  0.2579
   64MOL   C21120497   6.308   4.942   3.637 -0.6086  0.3523  0.6538
   64MOL   C21220498   6.218   4.823   3.600 -0.1327  0.7134  0.3820
   64MOL   O21320499   6.209   4.790   3.480  0.6093 -0.2259 -0.1882
   64MOL   N21420500   6.162   4.754   3.699 -0.0452 -0.6903 -0.3964
   64MOL   C21520501   6.151   4.790   3.835  0.1949  0.1961  0.2075
   64MOL   C21620502   6.126   4.617   3.652 -1.0998  0.4983 -0.1916
   64MOL   H21720503   6.505   5.019   3.616  3.3356 -1.9548 -1.4719
   64MOL   H21820504   6.469   4.911   3.490 -0.8349  2.8444 -0.1750
   64MOL   H21920505   6.320   4.962   3.743  1.4004 -0.7569  0.6554
   64MOL   H22020506   6.229   4.745   3.896  1.2046 -1.6118 -2.3114
   64MOL   H22120507   6.143   4.899   3.844  3.7706  0.3501  2.5721
   64MOL   H22220508   6.063   4.753   3.888 -0.6587  0.6687 -0.8647
   64MOL   H22320509   6.093   4.552   3.733 -2.0734 -0.3762 -1.2678
   64MOL   H22420510   6.208   4.560   3.608 -3.4669 -3.1571 -0.0874
   64MOL   H22520511   6.045   4.623   3.580  0.3117  1.8037 -1.7078
   64MOL   C22620512   6.237   5.067   3.579  0.1392  0.8715 -0.2146
   64MOL   C22720513   6.295   5.210   3.625 -0.2987  0.7435 -0.2142
   64MOL   C22820514   6.298   5.217   3.779  0.1692 -0.3396  0.3848
   64MOL   O22920515   6.197   5.200   3.843 -0.1472  0.3497 -0.5376
   64MOL   N23020516   6.415   5.216   3.851  0.4159 -0.6942 -0.4602
   64MOL   C23120517   6.416   5.183   4.000  0.4915  0.0706  0.1043
   64MOL   C23220518   6.552   5.252   3.801 -0.5058  0.5834 -0.1454
   64MOL   H23320519   6.229   5.063   3.470  0.2697  0.4786 -0.2087
   64MOL   H23420520   6.135   5.055   3.615 -0.3410  1.3106 -1.3787
   64MOL   H23520521   6.395   5.221   3.583  0.0931 -2.6976 -0.3033
   64MOL   H23620522   6.465   5.087   4.017 -0.8537 -0.3795  1.5210
   64MOL   H23720523   6.455   5.260   4.067 -1.1280 -0.6561  1.9286
   64MOL   H23820524   6.320   5.149   4.037 -0.3854 -0.3890 -2.5194
   64MOL   H23920525   6.635   5.220   3.866 -0.0532  0.9115 -0.5567
   64MOL   H24020526   6.556   5.361   3.791  0.1905  0.5979  0.2088
   64MOL   H24120527   6.576   5.200   3.709 -1.1135 -1.7509  0.9660
   64MOL   C24220528   6.223   5.341   3.570  0.6468  0.1577 -0.7995
   64MOL   C24320529   6.155   5.347   3.436 -0.3117 -0.4940  0.2865
   64MOL   C24420530   6.239   5.273   3.323 -0.6713 -0.2513  0.2239
   64MOL   O24520531   6.364   5.282   3.330  0.0176  0.3964  0.7119
   64MOL   N24620532   6.179   5.200   3.228  0.0493 -0.3370 -0.3362
   64MOL   C24720533   6.035   5.192   3.207  0.8202 -0.3256 -0.1395
   64MOL   C24820534   6.264   5.142   3.121  0.3154  0.0199 -1.2269
   64MOL   H24920535   6.151   5.387   3.636 -0.2711  1.1880 -2.4819
   64MOL   H25020536   6.306   5.411   3.568  0.5533  0.2689 -0.7300
   64MOL   H25120537   6.059   5.296   3.445  0.3099 -1.3899  2.1750
   64MOL   H25220538   5.996   5.265   3.136  0.0521 -0.8310 -0.2450
   64MOL   H25320539   6.007   5.095   3.167 -1.7456 -0.3805  1.6498
   64MOL   H25420540   5.976   5.194   3.299 -1.2704 -0.1977 -1.4536
   64MOL   H25520541   6.311   5.221   3.062  0.9007 -0.5706 -1.5623
   64MOL   H25620542   6.201   5.096   3.046 -1.7639 -0.6450  0.8661
   64MOL   H25720543   6.337   5.067   3.151  0.7991  1.0641  0.3175
   64MOL   C25820544   6.142   5.501   3.390  0.3818 -0.3443 -0.1812
   64MOL   C25920545   5.999   5.561   3.400 -0.1161 -0.4572  0.5549
   64MOL   C26020546   5.933   5.533   3.534  0.1877 -0.4571 -0.3023
   64MOL   O26120547   5.858   5.434   3.534 -0.1313 -0.4210  0.0228
   64MOL   N26220548   5.956   5.608   3.648 -0.0225  0.8009  0.0508
   64MOL   C26320549   6.066   5.701   3.669  0.6673  0.2217 -0.0002
   64MOL   C26420550   5.888   5.576   3.773 -0.2357 -1.0014 -0.5782
   64MOL   H26520551   6.225   5.551   3.440  1.4244  0.1504 -2.3227
   64MOL   H26620552   6.173   5.511   3.286 -1.5507  0.4036 -0.7157
   64MOL   H26720553   6.013   5.669   3.405 -0.6987 -0.4574  2.5498
   64MOL   H26820554   6.100   5.696   3.772 -1.1868 -3.5898  0.5045
   64MOL   H26920555   6.148   5.691   3.597 -0.0492  2.5378 -1.2195
   64MOL   H27020556   6.031   5.803   3.653  0.5799  0.0260 -1.0888
   64MOL   H27120557   5.942   5.507   3.837  0.9320  2.4360  2.2914
   64MOL   H27220558   5.788   5.535   3.759 -0.6729  0.2243 -1.1426
   64MOL   H27320559   5.868   5.665   3.832  1.7966  0.4228 -1.9702
   64MOL   C27420560   5.903   5.523   3.275  0.1169  0.1183  0.1456
   64MOL   C27520561   5.845   5.641   3.195 -1.0715 -1.0964  0.1625
   64MOL   C27620562   5.960   5.735   3.129 -0.5296  0.3019  0.1064
   64MOL   O27720563   6.071   5.749   3.177  0.3316 -0.3581 -0.0081
   64MOL   N27820564   5.937   5.789   3.006 -0.8094  0.4745  0.0414
   64MOL   C27920565   5.803   5.797   2.941 -0.6800  0.0694 -0.3606
   64MOL   C28020566   6.040   5.871   2.946  0.2643  0.6043 -0.6072
   64MOL   H28120567   5.976   5.469   3.214  0.3266 -0.1519  0.6359
   64MOL   H28220568   5.835   5.443   3.305  0.3716 -0.4618 -0.7998
   64MOL   H28320569   5.798   5.592   3.110 -0.3168 -1.2129 -0.1843
   64MOL   H28420570   5.806   5.856   2.849 -1.1522 -0.0995 -0.4879
   64MOL   H28520571   5.785   5.698   2.898  0.5581 -0.1132 -0.4773
   64MOL   H28620572   5.725   5.830   3.009  0.4744  1.4390  0.3391
   64MOL   H28720573   6.011   5.916   2.851 -1.1098 -0.1067 -0.5297
   64MOL   H28820574   6.140   5.827   2.951  0.9996  2.4592  1.9785
   64MOL   H28920575   6.045   5.967   2.998  0.0708 -0.0485  0.6488
   64MOL   C29020576   5.751   5.733   3.290  0.3320  0.3110  0.7719
   64MOL   C29120577   5.630   5.670   3.365 -0.6549  0.0145 -0.2325
   64MOL   C29220578   5.543   5.590   3.262 -0.4005 -0.2974 -0.2170
   64MOL   O29320579   5.524   5.642   3.152 -0.3933 -0.1351  0.5990
   64MOL   N29420580   5.489   5.471   3.291 -0.3913 -0.3489  0.1644
   64MOL   C29520581   5.515   5.387   3.407 -0.3031 -0.2841 -0.0565
   64MOL   C29620582   5.411   5.402   3.192  0.0806 -0.3647  0.5910
   64MOL   H29720583   5.817   5.771   3.368  0.3774 -0.4517  1.1179
   64MOL   H29820584   5.723   5.825   3.238  1.7148  1.4102  1.9332
   64MOL   H29920585   5.675   5.595   3.430  3.1182  0.2409 -2.4332
   64MOL   H30020586   5.613   5.348   3.378 -0.3819 -0.9855  0.5911
   64MOL   H30120587   5.527   5.455   3.492 -0.5734  0.6476 -0.7534
   64MOL   H30220588   5.440   5.310   3.419  1.3405 -2.0463 -0.7931
   64MOL   H30320589   5.426   5.295   3.210 -1.2646 -0.9262 -1.4336
   64MOL   H30420590   5.454   5.426   3.095 -0.9355 -0.1866  0.1839
   64MOL   H30520591   5.304   5.421   3.203  0.2372  0.5712  0.5023
   64MOL   C30620592   5.555   5.768   3.462  0.3429 -0.5363 -0.3134
   64MOL   C30720593   5.496   5.697   3.589 -0.4369 -0.1385  0.1307
   64MOL   C30820594   5.408   5.794   3.668  0.0100  0.2301  0.4590
   64MOL   O30920595   5.453   5.875   3.754  0.8149 -0.2534  0.7446
   64MOL   N31020596   5.274   5.778   3.654  0.2627 -0.1150  0.3889
   64MOL   C31120597   5.210   5.718   3.534 -0.0756 -0.3739 -0.2225
   64MOL   C31220598   5.187   5.848   3.751 -0.4236  0.3330  0.3223
   64MOL   H31320599   5.618   5.853   3.486 -2.9997  1.7655  0.6333
   64MOL   H31420600   5.477   5.811   3.399  1.0174  0.5844 -0.3841
   64MOL   H31520601   5.436   5.612   3.558  0.1187  0.0145 -1.4112
   64MOL   H31620602   5.203   5.610   3.546 -1.0252 -0.1861  1.0340
   64MOL   H31720603   5.103   5.735   3.523 -0.1660 -0.4337  0.4998
   64MOL   H31820604   5.260   5.753   3.444 -0.7932 -1.6686 -1.1375
   64MOL   H31920605   5.093   5.875   3.703 -1.4946 -0.0881  2.1491
   64MOL   H32020606   5.226   5.948   3.769  3.4814 -0.7466 -1.5411
   64MOL   H32120607   5.178   5.797   3.847  1.4630  0.3416  0.5359
   64MOL   H32220608   5.583   5.663   3.644  0.2902  0.5463 -0.5768
   65MOL     C120609   2.093   3.172   1.897  0.0928 -0.5229  0.2197
   65MOL     C220610   2.162   3.209   2.033  0.2722  0.7851  0.7376
   65MOL     C320611   2.312   3.230   2.008  0.0174 -0.5339 -0.1891
   65MOL     O420612   2.386   3.132   2.003 -0.0144  0.6047 -0.4841
   65MOL     N520613   2.365   3.356   2.003 -0.3228  0.5574  0.1000
   65MOL     C620614   2.510   3.367   1.990  0.2032 -0.6168  0.3903
   65MOL     C720615   2.290   3.482   2.035 -0.0086 -0.0682  0.5278
   65MOL     H820616   1.987   3.198   1.888 -0.0987 -2.1116 -2.5745
   65MOL     H920617   2.098   3.065   1.879  4.5661 -0.0935 -1.7969
   65MOL    H1020618   2.123   3.298   2.082  2.7863  1.0356  2.3544
   65MOL    H1120619   2.538   3.468   2.018 -0.7097 -0.5828  1.2203
   65MOL    H1220620   2.560   3.302   2.063  0.6539  0.9777  1.5282
   65MOL    H1320621   2.552   3.339   1.894  0.7319  1.0867  0.1069
   65MOL    H1420622   2.205   3.494   1.969 -0.1414  0.6152  0.8089
   65MOL    H1520623   2.356   3.568   2.023 -0.8664  0.4918 -0.2360
   65MOL    H1620624   2.253   3.490   2.138 -2.1786  1.5289 -0.3459
   65MOL    H1720625   2.149   3.221   1.818 -1.6747  0.4478 -0.4716
   65MOL    C1820626   2.136   3.093   2.133  0.7988 -0.0077 -0.3890
   65MOL    C1920627   1.983   3.075   2.171 -0.2416  0.4403  0.7118
   65MOL    C2020628   1.932   3.172   2.282 -0.7290  0.1293 -0.0951
   65MOL    O2120629   1.960   3.158   2.401 -0.1785 -0.5150  0.1226
   65MOL    N2220630   1.845   3.270   2.251 -0.0731 -0.2450  0.4521
   65MOL    C2320631   1.811   3.316   2.120 -0.0691 -0.2775 -0.2951
   65MOL    C2420632   1.773   3.332   2.359  0.2326  0.2207 -0.1711
   65MOL    H2520633   2.179   3.003   2.088  1.5574  0.4834 -0.6618
   65MOL    H2620634   2.194   3.113   2.223 -1.3585 -0.6766  1.2056
   65MOL    H2720635   1.924   3.098   2.082  1.4442  3.2591  0.2582
   65MOL    H2820636   1.759   3.411   2.128 -2.0006 -1.4105  0.9066
   65MOL    H2920637   1.898   3.338   2.058  1.1676  0.9083  1.8042
   65MOL    H3020638   1.744   3.241   2.078  0.3436 -0.3204 -0.8976
   65MOL    H3120639   1.736   3.430   2.329  0.9556  0.3329 -0.7046
   65MOL    H3220640   1.823   3.344   2.455 -1.6977  1.7804  0.6855
   65MOL    H3320641   1.685   3.270   2.378 -0.6578  1.5754  0.1821
   65MOL    C3420642   1.956   2.930   2.219 -0.0681  0.3781 -0.1278
   65MOL    C3520643   1.815   2.880   2.233 -0.0426 -0.6881 -0.5996
   65MOL    C3620644   1.741   2.891   2.095  0.0283  0.6685  0.9485
   65MOL    O3720645   1.685   2.999   2.077  0.1805 -0.0313  0.1346
   65MOL    N3820646   1.736   2.784   2.016  0.0774  0.0200  0.1142
   65MOL    C3920647   1.841   2.681   2.016 -0.1848 -0.3041 -0.1121
   65MOL    C4020648   1.637   2.778   1.913 -0.0535  0.8790 -0.1277
   65MOL    H4120649   2.015   2.869   2.151 -0.9034 -0.3543 -0.2116
   65MOL    H4220650   2.006   2.907   2.313  0.4569  0.4223 -0.3919
   65MOL    H4320651   1.834   2.774   2.248  0.8484 -0.3177  0.9867
   65MOL    H4420652   1.793   2.593   2.059 -1.9033  1.0467  0.8082
   65MOL    H4520653   1.876   2.653   1.917  0.4609  0.7681 -0.1965
   65MOL    H4620654   1.933   2.698   2.072 -0.5312  1.5178 -0.0613
   65MOL    H4720655   1.642   2.678   1.868  2.0679 -0.1040  2.1714
   65MOL    H4820656   1.667   2.855   1.842  2.4812  1.9816  2.0935
   65MOL    H4920657   1.537   2.803   1.950 -0.3144  0.8304 -0.7812
   65MOL    C5020658   1.734   2.933   2.361  0.2605 -0.0688  0.1619
   65MOL    C5120659   1.606   2.852   2.406 -0.3117  0.1568 -0.2934
   65MOL    C5220660   1.574   2.877   2.551 -0.5245  0.2746 -0.1768
   65MOL    O5320661   1.659   2.851   2.643  0.3390  0.3209  0.3732
   65MOL    N5420662   1.447   2.910   2.588 -0.3586 -0.1993  0.5403
   65MOL    C5520663   1.389   2.856   2.713  0.0114 -0.1695  0.6779
   65MOL    C5620664   1.366   2.992   2.492 -0.1512  0.0106 -0.3372
   65MOL    H5720665   1.802   2.938   2.447  0.1215  2.5665  0.1769
   65MOL    H5820666   1.712   3.039   2.349  3.3978  0.7011  0.7616
   65MOL    H5920667   1.525   2.880   2.339 -0.1520 -0.2405 -0.6599
   65MOL    H6020668   1.281   2.854   2.700 -0.2802 -2.0989  2.9459
   65MOL    H6120669   1.417   2.751   2.717  2.5410  0.4733  1.2313
   65MOL    H6220670   1.412   2.905   2.808 -0.3650 -0.0683  0.7163
   65MOL    H6320671   1.276   3.027   2.543  1.4003  1.3492  1.5462
   65MOL    H6420672   1.326   2.940   2.405 -1.2567 -0.2447  0.3176
   65MOL    H6520673   1.420   3.085   2.471 -2.2594  1.1406 -0.8736
   65MOL    C6620674   1.633   2.698   2.378  0.4449 -0.6355 -0.2571
   65MOL    C6720675   1.507   2.613   2.415  0.6330 -0.5639 -0.2979
   65MOL    C6820676   1.549   2.468   2.425  0.0555 -0.7588  0.1318
   65MOL    O6920677   1.586   2.406   2.323  0.3251  0.0688  0.4182
   65MOL    N7020678   1.550   2.405   2.544 -0.2170 -0.2123 -0.8457
   65MOL    C7120679   1.534   2.476   2.670  0.2926  0.0367 -0.1520
   65MOL    C7220680   1.585   2.264   2.552  0.1125  0.2906  0.6536
   65MOL    H7320681   1.653   2.682   2.272 -0.2918 -1.3406 -0.2927
   65MOL    H7420682   1.721   2.667   2.435  1.3954  2.9544  0.3906
   65MOL    H7520683   1.456   2.643   2.507  0.0770 -2.2047 -0.0501
   65MOL    H7620684   1.560   2.428   2.765 -0.0878  1.3920  0.6518
   65MOL    H7720685   1.603   2.560   2.679 -0.3308  0.4650  0.6646
   65MOL    H7820686   1.433   2.511   2.692  0.7954  0.1715  2.0141
   65MOL    H7920687   1.541   2.193   2.481 -0.1790  1.2614 -0.1607
   65MOL    H8020688   1.558   2.222   2.648  1.8756 -0.3870  0.8639
   65MOL    H8120689   1.693   2.256   2.541  0.2006  0.9298  1.0823
   65MOL    C8220690   1.400   2.639   2.308  0.0348 -0.4327  0.3277
   65MOL    C8320691   1.261   2.570   2.339 -0.0639  0.5064  0.6536
   65MOL    C8420692   1.185   2.565   2.206  0.0851 -0.2403 -0.4893
   65MOL    O8520693   1.149   2.671   2.153 -0.4597  0.0570  0.3695
   65MOL    N8620694   1.155   2.444   2.148  0.8684 -0.2423  0.3024
   65MOL    C8720695   1.211   2.316   2.201 -0.0655  0.3438  0.3252
   65MOL    C8820696   1.052   2.431   2.041  0.2902 -0.4729 -0.8686
   65MOL    H8920697   1.384   2.747   2.303 -1.9745 -0.7196  0.2561
   65MOL    H9020698   1.438   2.615   2.209 -3.0080 -1.0654 -0.7158
   65MOL    H9120699   1.286   2.470   2.372  0.2246  0.4995  0.4093
   65MOL    H9220700   1.166   2.235   2.144 -0.1386 -0.2285  1.1842
   65MOL    H9320701   1.318   2.304   2.185 -0.0237  0.0060  0.8389
   65MOL    H9420702   1.201   2.286   2.305  1.6602 -0.8628  0.1661
   65MOL    H9520703   1.088   2.367   1.961  2.3278 -0.5386  0.0655
   65MOL    H9620704   1.013   2.529   2.012 -0.8963 -1.3173 -2.1615
   65MOL    H9720705   0.960   2.393   2.085  0.6904 -0.8432 -0.3448
   65MOL    C9820706   1.178   2.643   2.445 -0.5889 -0.0557  0.2949
   65MOL    C9920707   1.084   2.556   2.528  0.7973  0.9879  0.1137
   65MOL   C10020708   0.982   2.646   2.600 -0.5080 -0.9920 -0.5891
   65MOL   O10120709   0.996   2.666   2.724 -0.1330  0.2267 -0.1726
   65MOL   N10220710   0.886   2.716   2.533  0.1839  0.3827  0.4271
   65MOL   C10320711   0.881   2.714   2.381 -0.0789 -0.5185  0.4893
   65MOL   C10420712   0.795   2.810   2.592  1.0811 -0.2296  0.3935
   65MOL   H10520713   1.246   2.683   2.520 -0.0048  0.3280 -0.4445
   65MOL   H10620714   1.128   2.732   2.407  1.3671  0.9111 -0.0507
   65MOL   H10720715   1.017   2.495   2.467 -1.4273  2.7256  0.7459
   65MOL   H10820716   0.904   2.613   2.348  1.7412  0.4195 -1.2545
   65MOL   H10920717   0.781   2.737   2.346  0.2215  0.7615  0.4390
   65MOL   H11020718   0.945   2.789   2.333 -2.7269  1.6947  0.2706
   65MOL   H11120719   0.690   2.781   2.588  0.3692  2.0669  1.5568
   65MOL   H11220720   0.799   2.906   2.540 -1.0705  0.2971  1.1536
   65MOL   H11320721   0.816   2.824   2.697  3.2516 -2.5519  0.3118
   65MOL   C11420722   1.168   2.460   2.622 -0.3568 -0.0376  0.1950
   65MOL   C11520723   1.091   2.341   2.687 -0.8040 -0.2946  1.0274
   65MOL   C11620724   1.182   2.276   2.792 -0.4184 -0.3796 -0.0965
   65MOL   O11720725   1.286   2.220   2.758 -0.0066  0.3152 -0.1079
   65MOL   N11820726   1.166   2.305   2.924  0.5152  0.6437  0.0464
   65MOL   C11920727   1.258   2.268   3.030 -0.8093 -0.3072  0.2126
   65MOL   C12020728   1.063   2.398   2.985  0.3186 -0.0743  0.7586
   65MOL   H12120729   1.254   2.425   2.564 -2.1709 -1.6444 -1.6451
   65MOL   H12220730   1.206   2.528   2.698  0.0932  0.5537 -0.5510
   65MOL   H12320731   1.005   2.390   2.732 -1.0842  0.9324 -0.8017
   65MOL   H12420732   1.226   2.229   3.127 -1.4501 -1.5939 -0.4906
   65MOL   H12520733   1.323   2.189   2.992  0.4108  1.5916 -1.7410
   65MOL   H12620734   1.331   2.347   3.044 -1.1015  0.4072 -2.0316
   65MOL   H12720735   0.965   2.351   2.983 -0.1897  0.9389  1.3994
   65MOL   H12820736   1.045   2.488   2.926 -2.1651 -1.5552 -0.8026
   65MOL   H12920737   1.085   2.432   3.086 -2.5484  0.4388  1.2615
   65MOL   C13020738   1.029   2.242   2.582  0.0847  0.2013  0.3032
   65MOL   C13120739   0.890   2.182   2.614 -0.3823  0.2979  0.3040
   65MOL   C13220740   0.863   2.068   2.514  0.2693 -0.2065  0.0954
   65MOL   O13320741   0.847   2.099   2.399 -0.3003  0.4724  0.0832
   65MOL   N13420742   0.840   1.941   2.553  0.7632 -0.1505  0.3123
   65MOL   C13520743   0.863   1.895   2.693 -0.1870 -1.0078  0.0178
   65MOL   C13620744   0.785   1.840   2.464  0.1830  0.0571  0.5322
   65MOL   H13720745   1.036   2.278   2.479  1.7280  3.1074  1.3766
   65MOL   H13820746   1.101   2.161   2.572  0.9690  0.9871  0.2793
   65MOL   H13920747   0.913   2.145   2.714 -0.9404  0.1962  0.3937
   65MOL   H14020748   0.820   1.966   2.764 -1.5696 -3.4576  1.7165
   65MOL   H14120749   0.833   1.793   2.718  1.8220 -1.5293  0.3992
   65MOL   H14220750   0.969   1.894   2.715 -0.2932  0.1515  0.6202
   65MOL   H14320751   0.814   1.740   2.495  0.6639  0.4752  1.4300
   65MOL   H14420752   0.807   1.859   2.358  0.9945 -0.1780  0.6567
   65MOL   H14520753   0.679   1.856   2.483 -0.0480  1.3846 -1.6668
   65MOL   C14620754   0.772   2.289   2.611 -0.2652 -0.5110 -0.2176
   65MOL   C14720755   0.651   2.256   2.700  0.1783  0.1036  0.3758
   65MOL   C14820756   0.523   2.321   2.642  0.3594 -0.1165 -0.3794
   65MOL   O14920757   0.508   2.445   2.650  0.0467  0.3675 -0.3534
   65MOL   N15020758   0.426   2.243   2.587  0.4099  0.2657  0.3666
   65MOL   C15120759   0.312   2.310   2.511 -0.5305  1.0144  0.5015
   65MOL   C15220760   0.419   2.104   2.607 -0.7528  0.5899 -0.2373
   65MOL   H15320761   0.811   2.389   2.630 -0.4102 -0.1465 -1.7741
   65MOL   H15420762   0.749   2.311   2.507  2.2436  0.7521 -0.5464
   65MOL   H15520763   0.639   2.149   2.717 -0.6162  0.1924  0.3692
   65MOL   H15620764   0.343   2.370   2.426  3.9339  0.0654  1.3061
   65MOL   H15720765   0.234   2.246   2.471  1.4654  0.2557 -2.3515
   65MOL   H15820766   0.258   2.369   2.585 -1.9131  0.2392  0.1080
   65MOL   H15920767   0.322   2.062   2.579 -0.6922  0.9284 -0.9880
   65MOL   H16020768   0.441   2.074   2.709 -0.0791  3.3380  0.4732
   65MOL   H16120769   0.488   2.050   2.543  2.0136  1.7175  1.7268
   65MOL   C16220770   0.680   2.322   2.841  0.0504  0.1476 -0.0368
   65MOL   C16320771   0.594   2.276   2.965 -0.0104 -0.5785  0.9846
   65MOL   C16420772   0.597   2.383   3.081  0.3735 -0.8150  0.4224
   65MOL   O16520773   0.707   2.408   3.136  0.2632  0.3117  0.1103
   65MOL   N16620774   0.481   2.443   3.119  0.0170 -0.4885  0.3155
   65MOL   C16720775   0.352   2.418   3.061  0.2381 -0.0201 -0.1565
   65MOL   C16820776   0.487   2.545   3.227 -0.9031 -0.5203  0.0609
   65MOL   H16920777   0.783   2.311   2.875  0.1961 -1.2013 -0.8843
   65MOL   H17020778   0.673   2.431   2.838 -0.0898  0.1383 -0.0536
   65MOL   H17120779   0.490   2.260   2.936 -0.6946  0.3087  2.8927
   65MOL   H17220780   0.269   2.461   3.116 -0.7073 -2.5417  0.4510
   65MOL   H17320781   0.355   2.459   2.960  1.1151  0.9111  0.2382
   65MOL   H17420782   0.319   2.314   3.054 -1.5421  0.4929  0.4131
   65MOL   H17520783   0.533   2.491   3.309 -0.7551  0.3967  0.5909
   65MOL   H17620784   0.387   2.576   3.257 -0.2448  0.7739  0.9552
   65MOL   H17720785   0.552   2.631   3.208 -0.9031 -0.8969 -1.7802
   65MOL   C17820786   0.643   2.138   3.009 -0.0928  0.4611  0.1079
   65MOL   C17920787   0.545   2.058   3.096  0.0956 -0.8308  0.3887
   65MOL   C18020788   0.621   1.957   3.184  0.2430  0.6693  0.0759
   65MOL   O18120789   0.690   1.873   3.124 -0.7049 -0.0794 -0.4293
   65MOL   N18220790   0.623   1.962   3.320 -0.3762 -0.7718 -0.1109
   65MOL   C18320791   0.537   2.051   3.400 -0.3275 -1.0229 -0.2800
   65MOL   C18420792   0.739   1.910   3.396  0.1797  0.3229  0.3326
   65MOL   H18520793   0.675   2.081   2.922 -1.1641 -0.8063  0.5201
   65MOL   H18620794   0.740   2.155   3.055  0.6981  0.1713 -1.3986
   65MOL   H18720795   0.491   2.129   3.159 -3.5233 -1.4540 -1.8636
   65MOL   H18820796   0.548   2.057   3.508 -1.2227 -1.2230 -0.1687
   65MOL   H18920797   0.558   2.152   3.367  1.2555 -1.4610 -0.6444
   65MOL   H19020798   0.435   2.014   3.389 -0.1507 -1.9448  1.0583
   65MOL   H19120799   0.837   1.942   3.361 -0.5184 -0.0619 -2.0693
   65MOL   H19220800   0.737   1.803   3.377  3.3661  0.6926 -2.6958
   65MOL   H19320801   0.735   1.924   3.504 -1.3155 -0.4363  0.3803
   65MOL   C19420802   0.444   1.992   2.991 -0.3689 -0.1829 -0.2999
   65MOL   C19520803   0.346   1.888   3.043  1.2750  0.5896  0.1593
   65MOL   C19620804   0.283   1.791   2.932 -0.9124 -0.4576 -0.3483
   65MOL   O19720805   0.170   1.823   2.890  0.2881 -1.2299 -0.1792
   65MOL   N19820806   0.355   1.689   2.882  0.0602 -0.2297 -0.3242
   65MOL   C19920807   0.487   1.650   2.928 -0.0797 -0.1598 -0.2770
   65MOL   C20020808   0.292   1.597   2.788 -0.5063 -0.0325 -0.1087
   65MOL   H20120809   0.381   2.073   2.957  0.4584 -0.0297 -1.4901
   65MOL   H20220810   0.499   1.946   2.909  1.2599  1.5271 -0.2101
   65MOL   H20320811   0.405   1.823   3.108  2.4274  2.5321  1.1286
   65MOL   H20420812   0.539   1.612   2.841  0.0483  1.9333 -1.1484
   65MOL   H20520813   0.538   1.733   2.978  0.8056 -0.1951 -1.1133
   65MOL   H20620814   0.468   1.575   3.005  1.6316 -0.0159  0.3110
   65MOL   H20720815   0.225   1.647   2.719  0.4543  1.3613 -0.0473
   65MOL   H20820816   0.230   1.520   2.835 -0.1114 -0.8182 -0.8500
   65MOL   H20920817   0.368   1.548   2.727 -2.6452 -2.3998 -0.9431
   65MOL   C21020818   0.235   1.951   3.134  0.8071 -0.3634 -0.1387
   65MOL   C21120819   0.163   1.850   3.227 -0.0999 -0.3822 -0.1201
   65MOL   C21220820   0.021   1.906   3.233  0.5042 -0.7571 -0.3526
   65MOL   O21320821   0.003   2.016   3.287 -0.3518  0.3513  0.4671
   65MOL   N21420822   7.777   1.844   3.164  0.5870  0.3284  0.2021
   65MOL   C21520823   7.639   1.908   3.165 -0.9561 -0.6293 -0.1053
   65MOL   C21620824   7.770   1.712   3.089  0.2195 -0.1516 -0.2828
   65MOL   H21720825   0.278   2.026   3.202  1.1344 -1.6246  1.0778
   65MOL   H21820826   0.171   2.009   3.068 -0.0227  1.1515  1.9486
   65MOL   H21920827   0.153   1.753   3.179 -0.9158 -0.3974  0.0631
   65MOL   H22020828   7.600   1.895   3.065  1.3631 -2.6763 -0.8225
   65MOL   H22120829   7.571   1.869   3.241 -0.3866 -0.1347  0.6733
   65MOL   H22220830   7.650   2.015   3.179  2.1404 -0.6272 -2.0951
   65MOL   H22320831   7.740   1.730   2.986  0.8229  2.6880  0.0002
   65MOL   H22420832   7.696   1.645   3.133  0.9868 -0.2925  0.8208
   65MOL   H22520833   0.007   1.651   3.088 -0.2227 -0.9430  2.3889
   65MOL   C22620834   0.227   1.835   3.370  1.1928  0.7721 -0.2620
   65MOL   C22720835   0.150   1.753   3.470 -0.9277 -0.2302  0.3504
   65MOL   C22820836   0.209   1.771   3.617  0.0579 -0.2900  0.9256
   65MOL   O22920837   0.327   1.806   3.631 -0.3217 -0.3177 -0.2628
   65MOL   N23020838   0.138   1.734   3.727  0.2262  0.1955  0.2836
   65MOL   C23120839   0.201   1.743   3.862 -0.1581 -0.3687  0.3397
   65MOL   C23220840   7.848   1.700   3.728 -0.2222  0.0893 -0.3862
   65MOL   H23320841   0.325   1.789   3.355 -0.2739 -1.4538 -3.2584
   65MOL   H23420842   0.245   1.935   3.411  0.3793  0.5423  0.6714
   65MOL   H23520843   0.053   1.803   3.480 -2.3825 -3.1126  1.0747
   65MOL   H23620844   0.288   1.679   3.881 -1.0412 -1.4927  0.6322
   65MOL   H23720845   0.225   1.849   3.872  0.2216 -0.1309 -2.5675
   65MOL   H23820846   0.126   1.717   3.936 -1.2928  0.7089 -0.4155
   65MOL   H23920847   7.792   1.737   3.642 -2.2354 -0.5122  0.6263
   65MOL   H24020848   7.807   1.729   3.824  1.0433  0.6299 -0.0006
   65MOL   H24120849   7.845   1.591   3.730  1.2813  0.0145 -1.1276
   65MOL   C24220850   0.131   1.607   3.426  0.0145 -0.4756 -0.4151
   65MOL   C24320851   0.253   1.504   3.445  0.6529 -0.3667 -0.8417
   65MOL   C24420852   0.360   1.521   3.331  1.0507  0.2225 -0.6765
   65MOL   O24520853   0.316   1.537   3.223 -0.2271 -0.3193  0.2126
   65MOL   N24620854   0.491   1.517   3.357  0.8254  0.3812  0.6464
   65MOL   C24720855   0.547   1.538   3.495  0.0524 -0.1374 -0.8622
   65MOL   C24820856   0.590   1.503   3.250  0.1353 -0.3016  0.3096
   65MOL   H24920857   0.051   1.578   3.493  0.6048  1.3137  1.1211
   65MOL   H25020858   0.080   1.592   3.331 -0.9536 -2.3056  0.3688
   65MOL   H25120859   0.291   1.519   3.546  0.9699 -0.9987 -0.8671
   65MOL   H25220860   0.529   1.636   3.539  1.7912  0.1275 -0.7230
   65MOL   H25320861   0.512   1.469   3.572 -1.2131  3.2840  1.7243
   65MOL   H25420862   0.655   1.526   3.491 -0.0293 -0.4517 -2.2636
   65MOL   H25520863   0.687   1.467   3.285  1.2464  1.4424 -0.9144
   65MOL   H25620864   0.609   1.603   3.211  2.3939 -0.1371  1.7582
   65MOL   H25720865   0.554   1.438   3.170 -0.7841 -0.7071  1.0358
   65MOL   C25820866   0.188   1.364   3.436 -0.1322  0.0276 -0.0221
   65MOL   C25920867   0.124   1.304   3.570 -0.3723  0.3498 -0.4887
   65MOL   C26020868   0.233   1.237   3.650 -0.2159 -0.8609 -0.1361
   65MOL   O26120869   0.282   1.136   3.607 -0.0549 -0.4028 -0.3789
   65MOL   N26220870   0.277   1.286   3.771  0.3806  0.3384 -0.1657
   65MOL   C26320871   0.220   1.406   3.827 -0.0044  0.1503  0.6385
   65MOL   C26420872   0.406   1.240   3.835  0.5798 -0.1212  1.1732
   65MOL   H26520873   0.119   1.353   3.352 -1.6032  1.7349  0.9408
   65MOL   H26620874   0.272   1.296   3.418  2.0799  2.7171 -0.2198
   65MOL   H26720875   0.085   1.393   3.620 -0.0708 -0.5140  1.3396
   65MOL   H26820876   0.228   1.488   3.755 -1.2111  0.4335  0.8092
   65MOL   H26920877   0.118   1.402   3.865 -0.4694 -0.3709 -0.6470
   65MOL   H27020878   0.276   1.445   3.911  0.7659  0.0312  0.1835
   65MOL   H27120879   0.422   1.133   3.848 -0.3831 -0.2322  1.5526
   65MOL   H27220880   0.407   1.276   3.938  0.5779  1.1202  0.7555
   65MOL   H27320881   0.491   1.288   3.787 -0.1168  1.4950  1.5257
   65MOL   C27420882   0.003   1.216   3.546  0.0719 -0.4176  0.4467
   65MOL   C27520883   7.739   1.196   3.652  0.6408  0.4180 -0.0804
   65MOL   C27620884   7.673   1.338   3.674  1.0548 -0.6529 -0.2354
   65MOL   O27720885   7.721   1.396   3.769  0.9035  0.0542  0.0104
   65MOL   N27820886   7.577   1.391   3.595 -0.2537 -0.1414  0.1607
   65MOL   C27920887   7.523   1.527   3.597 -0.4250  0.8968  0.5765
   65MOL   C28020888   7.500   1.319   3.491 -0.4238 -0.1074 -0.1617
   65MOL   H28120889   7.816   1.247   3.449 -0.2003 -0.5996  0.5006
   65MOL   H28220890   0.038   1.118   3.513 -0.0801 -0.3259  0.0057
   65MOL   H28320891   7.662   1.133   3.607  1.1810 -0.1507 -0.2059
   65MOL   H28420892   7.523   1.571   3.497  0.3376 -0.0180  0.1563
   65MOL   H28520893   7.420   1.524   3.631 -0.3920  0.4807  0.6415
   65MOL   H28620894   7.583   1.600   3.652  2.6724 -1.5520  0.5764
   65MOL   H28720895   7.402   1.362   3.471  0.1396  0.5842 -1.5292
   65MOL   H28820896   7.482   1.215   3.519 -1.0434  0.1599  0.4361
   65MOL   H28920897   7.555   1.318   3.397 -0.3318 -1.1819 -0.1079
   65MOL   C29020898   7.785   1.133   3.783 -0.1493  0.1354  0.1440
   65MOL   C29120899   7.844   0.992   3.769  0.3769  0.4498  0.3141
   65MOL   C29220900   7.730   0.885   3.745  0.8577  0.0609 -0.1498
   65MOL   O29320901   7.652   0.857   3.844 -0.1188 -0.1782 -0.1476
   65MOL   N29420902   7.711   0.840   3.622  1.4970 -0.2268  0.1377
   65MOL   C29520903   7.804   0.841   3.511  0.1927  0.1874 -1.4167
   65MOL   C29620904   7.584   0.796   3.571  0.0963 -0.0525  0.0417
   65MOL   H29720905   0.011   1.193   3.829 -1.7253  1.3473  1.3296
   65MOL   H29820906   7.705   1.143   3.856 -0.3615  0.4122 -0.1240
   65MOL   H29920907   0.072   0.993   3.696  0.5653  1.3241  0.5278
   65MOL   H30020908   0.054   0.848   3.546  0.1790  0.6278 -1.4713
   65MOL   H30120909   7.795   0.746   3.458 -2.3763 -0.5595  0.2853
   65MOL   H30220910   7.789   0.927   3.446 -2.1740 -0.3483 -1.6301
   65MOL   H30320911   7.512   0.777   3.651 -0.5237 -0.4160 -0.6027
   65MOL   H30420912   7.599   0.698   3.526 -0.8747 -0.5597  0.7739
   65MOL   H30520913   7.539   0.860   3.495 -0.7360 -0.9393 -0.2176
   65MOL   C30620914   0.064   0.950   3.902  0.3797 -0.1570 -0.1621
   65MOL   C30720915   0.138   0.814   3.894 -0.0126 -0.3674 -0.4514
   65MOL   C30820916   0.284   0.833   3.846 -0.8027  0.4941  0.2659
   65MOL   O30920917   0.305   0.829   3.722 -0.3372 -0.2288 -0.4297
   65MOL   N31020918   0.385   0.844   3.938  0.2897  0.2920  0.5368
   65MOL   C31120919   0.367   0.874   4.083 -0.4907 -0.4927  0.1512
   65MOL   C31220920   0.520   0.824   3.902  0.4552  0.2945 -0.4336
   65MOL   H31320921   0.134   1.031   3.924 -0.1650  0.5172 -0.9043
   65MOL   H31420922   7.851   0.951   3.988  0.2254 -1.0366 -0.2687
   65MOL   H31520923   0.134   0.774   3.995 -2.0812 -1.0087 -0.7614
   65MOL   H31620924   0.321   0.786   4.128 -3.1353  0.1819 -1.1767
   65MOL   H31720925   0.458   0.911   4.130  0.6833 -0.4793 -2.0681
   65MOL   H31820926   0.296   0.951   4.112 -0.1608 -0.3306  0.5307
   65MOL   H31920927   0.567   0.895   3.833  2.1581  0.7183  1.1156
   65MOL   H32020928   0.535   0.727   3.853 -0.4250  0.4541 -1.0250
   65MOL   H32120929   0.586   0.826   3.989  0.5814  0.4824 -0.5324
   65MOL   H32220930   0.086   0.736   3.838 -2.7437  0.3811  0.9579
   66MOL     C120931   6.414   1.349   4.339  0.2431 -0.4333 -0.2613
   66MOL     C220932   6.326   1.459   4.411 -0.8061 -0.2076 -0.2622
   66MOL     C320933   6.413   1.531   4.518 -0.0710  0.4182 -0.2328
   66MOL     O420934   6.444   1.460   4.615  0.1953  0.2627  0.2681
   66MOL     N520935   6.455   1.665   4.513  0.4789  0.0898 -0.1561
   66MOL     C620936   6.433   1.748   4.399  0.0611  0.2169  0.1826
   66MOL     C720937   6.555   1.714   4.608 -0.4656  0.3703 -0.2916
   66MOL     H820938   6.451   1.288   4.422 -1.0570 -2.1448 -0.9114
   66MOL     H920939   6.496   1.407   4.298  1.5637 -2.1368 -0.0901
   66MOL    H1020940   6.302   1.529   4.331 -1.3093  0.4542  0.4719
   66MOL    H1120941   6.458   1.853   4.412 -0.0385  0.3916 -0.9770
   66MOL    H1220942   6.478   1.715   4.305 -2.3213  2.5133 -1.8260
   66MOL    H1320943   6.325   1.749   4.384  0.2284  1.0410 -1.0476
   66MOL    H1420944   6.617   1.790   4.562  2.6159 -1.3977  0.8283
   66MOL    H1520945   6.615   1.635   4.653 -1.9495 -0.7439 -0.2150
   66MOL    H1620946   6.527   1.783   4.688  0.0952  1.1747 -0.7906
   66MOL    H1720947   6.359   1.283   4.273  0.0403  0.8211 -1.3562
   66MOL    C1820948   6.194   1.397   4.471  0.0755  0.5390  0.0283
   66MOL    C1920949   6.068   1.384   4.382  0.2388  0.1733 -0.8835
   66MOL    C2020950   6.029   1.519   4.319  0.1572 -0.1661  0.6791
   66MOL    O2120951   5.997   1.607   4.399 -0.3207 -0.1676  0.1774
   66MOL    N2220952   6.047   1.539   4.186  0.1941  0.9227  0.2513
   66MOL    C2320953   6.020   1.667   4.113 -0.5837  0.3428  0.3449
   66MOL    C2420954   6.111   1.429   4.105  0.0912  0.1118  0.2584
   66MOL    H2520955   6.217   1.312   4.536  0.7909  1.9298  1.6246
   66MOL    H2620956   6.156   1.457   4.554 -0.0882 -0.5682  0.7765
   66MOL    H2720957   6.087   1.308   4.306 -1.1343 -1.6775  0.5752
   66MOL    H2820958   6.081   1.750   4.147  1.7548 -2.1808  2.5003
   66MOL    H2920959   6.035   1.653   4.006  2.1885  0.3018  0.7102
   66MOL    H3020960   5.915   1.692   4.132 -0.4300  0.9203  0.4408
   66MOL    H3120961   6.200   1.392   4.156 -0.6261 -2.6569 -0.4156
   66MOL    H3220962   6.152   1.476   4.015 -0.1814  2.8599  1.5171
   66MOL    H3320963   6.047   1.345   4.076 -1.3460  1.7875 -1.6117
   66MOL    C3420964   5.948   1.334   4.467  0.7917 -0.2678 -0.9888
   66MOL    C3520965   5.915   1.183   4.467 -0.6759  0.3849  0.7584
   66MOL    C3620966   6.014   1.094   4.536 -0.1830  0.2659 -0.4919
   66MOL    O3720967   6.117   1.071   4.472  0.0188  0.3997  0.0946
   66MOL    N3820968   5.982   1.025   4.649  0.3327  0.0888 -0.0312
   66MOL    C3920969   6.056   0.907   4.686 -0.6134  0.0126  0.3616
   66MOL    C4020970   5.863   1.054   4.733  0.0894  0.6678  0.2953
   66MOL    H4120971   5.963   1.352   4.574 -0.3681 -1.4209 -0.6307
   66MOL    H4220972   5.860   1.390   4.437 -0.4703 -0.6694  1.8091
   66MOL    H4320973   5.818   1.180   4.516 -1.0607  2.3456  0.1521
   66MOL    H4420974   6.080   0.895   4.792 -1.0946  0.4807  0.5262
   66MOL    H4520975   5.988   0.823   4.666 -0.7693  0.0943  0.5390
   66MOL    H4620976   6.154   0.899   4.640 -0.5555  1.6890  0.1799
   66MOL    H4720977   5.773   0.998   4.708 -0.7944  0.8065  2.9800
   66MOL    H4820978   5.823   1.155   4.727  1.0738  1.1027  0.8282
   66MOL    H4920979   5.877   1.023   4.837 -2.2409  0.1777  0.4839
   66MOL    C5020980   5.884   1.137   4.320  0.4002  0.8852  0.1667
   66MOL    C5120981   5.747   1.058   4.302 -0.2944 -0.6876  0.1643
   66MOL    C5220982   5.735   0.931   4.396 -0.1990 -0.0076  0.1825
   66MOL    O5320983   5.822   0.842   4.386 -0.2442  0.6253  0.0297
   66MOL    N5420984   5.639   0.931   4.496  0.0994 -0.8111  0.2787
   66MOL    C5520985   5.528   1.035   4.509 -0.2558  0.1203  0.1831
   66MOL    C5620986   5.617   0.819   4.583  0.0777  0.2613  0.2774
   66MOL    H5720987   5.881   1.215   4.244 -1.0853  0.2130 -0.4908
   66MOL    H5820988   5.964   1.070   4.288 -0.3590  0.0884 -0.0835
   66MOL    H5920989   5.676   1.137   4.330  0.8740  0.5600 -0.3395
   66MOL    H6020990   5.453   1.002   4.582 -2.5374 -0.8973 -2.5295
   66MOL    H6120991   5.567   1.131   4.542 -0.9869  0.1183  1.0644
   66MOL    H6220992   5.479   1.058   4.415 -1.0266  0.7230  0.7261
   66MOL    H6320993   5.593   0.867   4.678  0.7449 -0.1493  0.6612
   66MOL    H6420994   5.705   0.755   4.587  0.6640  0.6269 -4.3440
   66MOL    H6520995   5.530   0.754   4.577 -0.0468  0.5424 -1.1709
   66MOL    C6620996   5.713   1.015   4.158 -0.2170 -0.2301 -0.2308
   66MOL    C6720997   5.822   0.957   4.067 -0.0906 -0.1091  0.0334
   66MOL    C6820998   5.923   1.058   4.017 -0.2188  0.0617 -0.1091
   66MOL    O6920999   5.879   1.168   3.986  0.2380 -0.5506 -0.1690
   66MOL    N7021000   6.052   1.018   4.002  0.3104 -0.8049  0.3086
   66MOL    C7121001   6.105   0.884   4.021 -0.7552 -0.1631  0.3717
   66MOL    C7221002   6.151   1.117   3.960  0.6934  0.1365 -0.0022
   66MOL    H7321003   5.621   0.957   4.164 -0.3071  0.2282  4.1485
   66MOL    H7421004   5.671   1.101   4.104  0.1216  0.7872  1.1009
   66MOL    H7521005   5.881   0.883   4.122  1.0951  0.0688 -0.9750
   66MOL    H7621006   6.033   0.815   3.977 -2.0100  1.1601  0.3064
   66MOL    H7721007   6.196   0.858   3.967 -1.6614  1.7080 -2.1395
   66MOL    H7821008   6.109   0.857   4.127  2.9285  0.2917  0.4220
   66MOL    H7921009   6.185   1.157   4.055 -4.3035  2.7217  0.8463
   66MOL    H8021010   6.110   1.208   3.917  0.4785  0.8672  1.7090
   66MOL    H8121011   6.237   1.083   3.902  0.9128  0.3906  0.1715
   66MOL    C8221012   5.760   0.874   3.950  0.6988 -0.1638 -0.2503
   66MOL    C8321013   5.719   0.735   3.986  0.5018  0.2824  0.6009
   66MOL    C8421014   5.833   0.631   4.008  0.1358 -0.3835  0.2990
   66MOL    O8521015   5.909   0.615   3.906  0.2084 -0.3187 -0.2778
   66MOL    N8621016   5.832   0.556   4.120  0.1010 -0.0040 -0.0145
   66MOL    C8721017   5.940   0.459   4.154  0.2597  0.7836  0.0289
   66MOL    C8821018   5.748   0.589   4.231 -0.2990 -0.0822 -0.8900
   66MOL    H8921019   5.671   0.931   3.924  0.4757 -0.6713 -0.5977
   66MOL    H9021020   5.821   0.868   3.859 -1.5986 -1.4486 -1.7461
   66MOL    H9121021   5.652   0.746   4.071 -2.6620  0.8333 -1.8874
   66MOL    H9221022   5.902   0.394   4.233 -0.3959  0.7359 -0.3149
   66MOL    H9321023   5.948   0.383   4.076  1.5104 -0.3108  1.2136
   66MOL    H9421024   6.040   0.498   4.172  0.2780  0.0374  1.5854
   66MOL    H9521025   5.737   0.696   4.245 -0.3509 -0.4728  2.6356
   66MOL    H9621026   5.794   0.559   4.326 -0.6190  0.4380 -0.5695
   66MOL    H9721027   5.655   0.532   4.237  0.8867 -2.0561 -0.7768
   66MOL    C9821028   5.619   0.672   3.881  0.4353 -0.0450 -0.3882
   66MOL    C9921029   5.544   0.540   3.912  0.3186  0.4987 -0.3410
   66MOL   C10021030   5.502   0.466   3.783 -0.4775  0.1146 -0.8186
   66MOL   O10121031   5.414   0.527   3.718  0.3274  0.2846 -0.3792
   66MOL   N10221032   5.553   0.341   3.757 -0.0713 -0.2923  0.5262
   66MOL   C10321033   5.635   0.267   3.847 -0.0281  0.5428  0.3805
   66MOL   C10421034   5.503   0.271   3.641 -0.3641  0.0809  0.7493
   66MOL   H10521035   5.549   0.746   3.841  0.3537 -0.0084 -0.1764
   66MOL   H10621036   5.691   0.649   3.803  0.5188  0.2807 -0.4082
   66MOL   H10721037   5.618   0.488   3.974  1.1622  2.1052  0.0195
   66MOL   H10821038   5.579   0.244   3.937  1.3936  2.5931  1.8214
   66MOL   H10921039   5.669   0.176   3.799 -1.5369  0.0503  0.2190
   66MOL   H11021040   5.728   0.312   3.882  0.6869  0.5359 -1.4286
   66MOL   H11121041   5.578   0.290   3.564  0.5379 -1.3042  1.2663
   66MOL   H11221042   5.415   0.310   3.591 -0.3456  0.6163  1.1376
   66MOL   H11321043   5.492   0.163   3.651  0.5963 -0.1789 -0.7507
   66MOL   C11421044   5.426   0.552   4.013 -0.6144  0.6595  0.2613
   66MOL   C11521045   5.303   0.646   3.992 -0.1603 -0.0679  0.1579
   66MOL   C11621046   5.322   0.791   4.050 -0.8950 -0.4022 -0.2191
   66MOL   O11721047   5.341   0.808   4.171 -0.4789  0.0973 -0.4304
   66MOL   N11821048   5.316   0.902   3.973 -0.1461  0.3282  0.6571
   66MOL   C11921049   5.299   0.905   3.823 -0.1348  0.4434 -0.3288
   66MOL   C12021050   5.349   1.034   4.028  0.8071  0.2049 -0.0399
   66MOL   H12121051   5.397   0.447   4.020  2.2762 -0.0568  2.0776
   66MOL   H12221052   5.472   0.565   4.111 -0.1679 -0.1457  0.1629
   66MOL   H12321053   5.285   0.660   3.885  0.7843 -1.1905 -0.1630
   66MOL   H12421054   5.202   0.871   3.786  0.9510 -0.6974 -2.2228
   66MOL   H12521055   5.323   1.005   3.788 -0.9378  1.2481  1.3504
   66MOL   H12621056   5.373   0.844   3.770 -0.5379  1.3490 -1.9634
   66MOL   H12721057   5.331   1.063   4.132  0.1662  0.5869 -0.2523
   66MOL   H12821058   5.290   1.111   3.978 -1.4550 -0.4129  1.6117
   66MOL   H12921059   5.452   1.063   4.009  0.7246  0.3531 -0.2616
   66MOL   C13021060   5.172   0.578   4.056 -0.8738 -0.0513  0.2273
   66MOL   C13121061   5.098   0.477   3.960 -0.0209 -0.8215  0.4220
   66MOL   C13221062   4.984   0.554   3.894  1.0246  0.9046 -0.2471
   66MOL   O13321063   4.881   0.581   3.962 -0.0833 -0.0786 -0.0925
   66MOL   N13421064   4.996   0.598   3.764 -0.3988 -0.0978 -0.1228
   66MOL   C13521065   5.098   0.549   3.664 -0.4723 -0.6930  0.0066
   66MOL   C13621066   4.906   0.695   3.698  0.2195 -0.4351 -0.8144
   66MOL   H13721067   5.196   0.522   4.146 -1.1586  3.2817  2.4832
   66MOL   H13821068   5.097   0.641   4.104 -0.8311  0.5024 -0.4378
   66MOL   H13921069   5.166   0.439   3.883 -0.2912  0.5195 -0.4909
   66MOL   H14021070   5.057   0.511   3.570  1.1607 -1.0726 -0.5657
   66MOL   H14121071   5.179   0.619   3.642 -0.5748 -0.7205 -0.4555
   66MOL   H14221072   5.147   0.455   3.689  0.4119  0.1190  1.3764
   66MOL   H14321073   4.847   0.741   3.778  3.0995  1.6102  0.2360
   66MOL   H14421074   4.840   0.654   3.622 -1.2716 -0.5940  0.5396
   66MOL   H14521075   4.976   0.768   3.659  0.4190 -0.3362 -0.2785
   66MOL   C14621076   5.036   0.357   4.041 -0.0444 -0.4109 -0.2148
   66MOL   C14721077   5.105   0.218   4.022  0.7749  0.3402 -0.5189
   66MOL   C14821078   5.253   0.212   4.071 -1.0411  0.2524 -0.0023
   66MOL   O14921079   5.344   0.213   3.991  0.2126 -0.2166 -0.0769
   66MOL   N15021080   5.281   0.184   4.200  0.3415  0.1155  0.2054
   66MOL   C15121081   5.421   0.174   4.241 -0.0682  0.0636 -0.0762
   66MOL   C15221082   5.190   0.154   4.312 -0.7728  0.3989  0.9242
   66MOL   H15321083   5.021   0.390   4.143 -0.0063 -0.7955 -0.0830
   66MOL   H15421084   4.929   0.350   4.020 -0.5218 -0.5270  2.1353
   66MOL   H15521085   5.059   0.145   4.089 -2.1142  2.1844 -0.4144
   66MOL   H15621086   5.443   0.172   4.348 -0.6238 -2.0102  0.0229
   66MOL   H15721087   5.446   0.076   4.202 -1.8209  0.0389 -1.2011
   66MOL   H15821088   5.495   0.239   4.194  0.8051 -1.0071 -0.1898
   66MOL   H15921089   5.107   0.224   4.308 -1.3044 -0.2077  1.2077
   66MOL   H16021090   5.237   0.162   4.410 -0.0431  1.9694  0.4624
   66MOL   H16121091   5.137   0.060   4.301  1.0484 -0.6867  1.1350
   66MOL   C16221092   5.103   0.162   3.875 -0.0367 -0.5938 -0.7412
   66MOL   C16321093   5.114   0.007   3.864  0.1029  0.2612  0.6766
   66MOL   C16421094   5.177   7.814   3.731  0.4425  0.3580 -0.1580
   66MOL   O16521095   5.107   7.834   3.630 -0.6585  0.7201  0.1195
   66MOL   N16621096   5.288   7.738   3.716 -0.1792 -0.4161  0.3525
   66MOL   C16721097   5.325   7.658   3.595 -0.7103 -0.4881  0.0685
   66MOL   C16821098   5.403   7.751   3.819  0.1543  0.2539 -0.1834
   66MOL   H16921099   5.014   0.191   3.820 -0.0044 -2.1159 -1.6147
   66MOL   H17021100   5.168   0.207   3.800 -0.0506 -0.4152 -0.6471
   66MOL   H17121101   5.177   7.821   3.944  0.5954 -3.7485 -1.5541
   66MOL   H17221102   5.415   7.598   3.611 -2.0938 -2.3975  0.9306
   66MOL   H17321103   5.236   7.598   3.574  0.4192 -1.8001 -1.1220
   66MOL   H17421104   5.332   7.715   3.502 -0.2370 -0.8825 -0.1430
   66MOL   H17521105   5.400   0.004   3.845 -2.9036  0.4399 -1.1232
   66MOL   H17621106   5.498   7.732   3.769 -0.0821 -0.3785 -0.3901
   66MOL   H17721107   5.408   7.689   3.908  2.7498  0.4306 -0.1487
   66MOL   C17821108   4.970   7.812   3.899 -0.4374  0.0145  0.6505
   66MOL   C17921109   4.938   7.681   3.954 -0.9608 -0.2100 -0.8250
   66MOL   C18021110   5.033   7.628   4.066  0.0824  0.3585 -0.1856
   66MOL   O18121111   5.136   7.569   4.034 -0.4816 -0.8606 -0.3110
   66MOL   N18221112   4.993   7.629   4.194  0.4661  0.3601  0.0748
   66MOL   C18321113   5.072   7.541   4.293  0.6962 -0.0319  0.1674
   66MOL   C18421114   4.869   7.697   4.245 -0.6441  0.0893  0.0689
   66MOL   H18521115   4.932   0.034   3.968 -0.8845  0.1445  0.2657
   66MOL   H18621116   4.902   7.834   3.816  0.2222  0.0741  0.1283
   66MOL   H18721117   4.837   7.682   3.996 -0.3927 -1.7472  0.6100
   66MOL   H18821118   5.120   7.448   4.262  0.0685 -0.0461 -0.7706
   66MOL   H18921119   5.147   7.595   4.351 -1.8069  1.2147  2.3028
   66MOL   H19021120   5.002   7.507   4.369 -0.5210  0.3965 -0.7404
   66MOL   H19121121   4.864   7.800   4.210  0.5746  0.4060  0.8022
   66MOL   H19221122   4.890   7.701   4.352 -2.3174  0.7766  0.4013
   66MOL   H19321123   4.775   7.642   4.243  0.8815 -2.6235  0.8772
   66MOL   C19421124   4.919   7.572   3.847 -0.3809 -0.0680 -0.2244
   66MOL   C19521125   4.891   7.427   3.897 -1.0357  0.4070 -0.2901
   66MOL   C19621126   4.907   7.332   3.781  0.4549 -0.0099  0.8444
   66MOL   O19721127   4.807   7.310   3.718 -0.4939  0.1327  0.0559
   66MOL   N19821128   5.031   7.274   3.751 -0.2513 -0.1002  0.2537
   66MOL   C19921129   5.035   7.184   3.632  0.0217  0.2811 -0.6510
   66MOL   C20021130   5.160   7.325   3.808  0.2909  0.7330  0.4207
   66MOL   H20121131   4.830   7.602   3.791  0.4363 -0.5286 -1.7834
   66MOL   H20221132   5.006   7.569   3.782 -0.9545  1.4844 -1.0844
   66MOL   H20321133   4.966   7.388   3.967  0.3476  1.9633 -0.8605
   66MOL   H20421134   5.130   7.130   3.639  0.0521  0.4497  0.2707
   66MOL   H20521135   4.953   7.112   3.629  1.2750 -1.1607 -1.0313
   66MOL   H20621136   5.029   7.236   3.536  3.5621  0.4274 -0.8504
   66MOL   H20721137   5.237   7.267   3.756 -0.0375  0.6945 -0.0296
   66MOL   H20821138   5.161   7.298   3.913 -1.0536 -1.4691 -0.0932
   66MOL   H20921139   5.181   7.431   3.790 -0.9686  1.0744  0.8797
   66MOL   C21021140   4.746   7.415   3.956 -0.0841  1.0022 -0.7303
   66MOL   C21121141   4.717   7.293   4.047 -0.6776  0.2832  0.0434
   66MOL   C21221142   4.569   7.291   4.087 -0.8816  0.0579  0.5373
   66MOL   O21321143   4.534   7.393   4.146  0.2467  0.3338 -0.2639
   66MOL   N21421144   4.488   7.190   4.060  0.1677 -0.1340 -0.1520
   66MOL   C21521145   4.340   7.196   4.078  0.1209  0.2993 -0.3224
   66MOL   C21621146   4.517   7.066   3.984 -0.2956  0.1709 -0.1108
   66MOL   H21721147   4.730   7.496   4.028 -0.0021 -0.3236  0.7953
   66MOL   H21821148   4.665   7.405   3.884  0.5430  0.1085 -1.3245
   66MOL   H21921149   4.732   7.209   3.979 -0.8014 -0.6216  1.1132
   66MOL   H22021150   4.290   7.155   3.990 -0.1310  1.4117 -0.7058
   66MOL   H22121151   4.305   7.153   4.172 -0.5178  1.7801  0.1299
   66MOL   H22221152   4.305   7.299   4.077 -1.2350 -0.1531 -0.1517
   66MOL   H22321153   4.618   7.030   4.000 -0.4674  0.5158  1.9636
   66MOL   H22421154   4.503   7.088   3.878 -0.2806 -1.5948 -0.4814
   66MOL   H22521155   4.454   6.981   4.008  2.1449 -1.4020  0.8883
   66MOL   C22621156   4.815   7.280   4.173  0.3509 -1.1590  0.4660
   66MOL   C22721157   4.879   7.141   4.200 -0.0353 -0.7779  0.5378
   66MOL   C22821158   4.951   7.146   4.335  0.0089 -0.0880  0.4030
   66MOL   O22921159   5.059   7.206   4.343  0.0446  0.0025  0.3026
   66MOL   N23021160   4.900   7.087   4.447 -0.3173 -0.4446  0.2277
   66MOL   C23121161   4.763   7.031   4.445  0.3398 -0.1487 -0.7435
   66MOL   C23221162   4.994   7.046   4.553  0.2097  0.4029  0.3779
   66MOL   H23321163   4.895   7.353   4.162 -0.3518 -0.3605  0.5569
   66MOL   H23421164   4.754   7.317   4.256  2.1051  0.9284  0.8652
   66MOL   H23521165   4.796   7.070   4.193  1.9001 -2.8359 -2.7829
   66MOL   H23621166   4.751   6.942   4.383 -0.0854 -0.3923 -0.3173
   66MOL   H23721167   4.717   7.011   4.542  2.6037 -1.1544  0.1463
   66MOL   H23821168   4.697   7.110   4.411  1.0027  0.2492 -1.1028
   66MOL   H23921169   5.075   6.980   4.523 -0.4561 -0.4239  0.3908
   66MOL   H24021170   4.934   6.990   4.625  0.9445 -1.5458 -0.5041
   66MOL   H24121171   5.019   7.132   4.616  1.2723  1.1740 -1.0622
   66MOL   C24221172   4.975   7.085   4.088  0.0332  0.3566  0.1499
   66MOL   C24321173   5.007   6.927   4.077 -0.3091 -0.5403 -0.0560
   66MOL   C24421174   4.871   6.852   4.061  0.1628 -0.0784 -0.3880
   66MOL   O24521175   4.812   6.803   4.156  0.2721 -0.4121  0.2689
   66MOL   N24621176   4.824   6.835   3.934 -0.1462 -0.0301 -0.1405
   66MOL   C24721177   4.862   6.912   3.815 -0.7250 -0.0196  0.6632
   66MOL   C24821178   4.720   6.732   3.916  1.1220  0.3372  0.5032
   66MOL   H24921179   4.938   7.121   3.992  0.2611 -0.0221 -0.0818
   66MOL   H25021180   5.077   7.123   4.092 -0.3366  1.7512 -2.1922
   66MOL   H25121181   5.083   6.911   4.000 -0.0724 -1.8362  0.4346
   66MOL   H25221182   4.874   6.860   3.720  1.5675  0.5319  0.6243
   66MOL   H25321183   4.794   6.996   3.822 -0.9137 -0.3012  2.4369
   66MOL   H25421184   4.962   6.954   3.824  0.4424 -1.8187 -2.9299
   66MOL   H25521185   4.627   6.750   3.970  0.2822  0.3511 -0.9234
   66MOL   H25621186   4.751   6.635   3.956 -1.0204 -0.1087  1.1289
   66MOL   H25721187   4.702   6.713   3.810 -2.3226 -1.3911  1.3442
   66MOL   C25821188   5.086   6.874   4.200  0.1345  0.6753  0.5067
   66MOL   C25921189   5.137   6.732   4.189  0.3954 -0.5494 -0.0804
   66MOL   C26021190   5.197   6.687   4.326 -0.0225  0.2559 -0.9986
   66MOL   O26121191   5.294   6.745   4.369  0.2020 -0.3405 -0.3482
   66MOL   N26221192   5.141   6.589   4.400 -0.1734 -0.6434  0.9091
   66MOL   C26321193   5.197   6.547   4.530 -0.4585 -1.0623 -0.2743
   66MOL   C26421194   5.022   6.513   4.358  0.1291  0.9001  0.3944
   66MOL   H26521195   5.177   6.934   4.204  2.2278 -2.4347  1.9617
   66MOL   H26621196   5.044   6.878   4.301  0.5859 -1.4622  0.8208
   66MOL   H26721197   5.052   6.668   4.169  0.4482 -0.4742 -0.5398
   66MOL   H26821198   5.123   6.534   4.609  0.3366  3.6430  1.4218
   66MOL   H26921199   5.260   6.459   4.516 -0.6655 -1.1777 -0.4751
   66MOL   H27021200   5.270   6.614   4.577 -0.0235 -1.5056 -0.3130
   66MOL   H27121201   4.985   6.435   4.424 -1.8375  0.9605 -0.6019
   66MOL   H27221202   5.035   6.458   4.265 -0.3970  3.3503 -1.1975
   66MOL   H27321203   4.937   6.579   4.336  1.0898  1.1635 -2.8683
   66MOL   C27421204   5.246   6.713   4.075  0.3997 -0.0344 -0.7011
   66MOL   C27521205   5.313   6.567   4.060 -0.3568 -0.1242 -0.7395
   66MOL   C27621206   5.458   6.572   4.009  0.0877  0.3146  0.5373
   66MOL   O27721207   5.472   6.588   3.888 -0.3846 -0.2121 -0.0550
   66MOL   N27821208   5.556   6.559   4.098 -0.1307 -0.1154  0.5100
   66MOL   C27921209   5.694   6.563   4.048 -0.5761  0.3624  0.3061
   66MOL   C28021210   5.544   6.566   4.244 -0.2382  0.2522 -0.0392
   66MOL   H28121211   5.201   6.747   3.982  0.8945 -0.8453 -1.2455
   66MOL   H28221212   5.318   6.792   4.094  0.0516 -0.5030  3.0906
   66MOL   H28321213   5.321   6.513   4.154 -0.8319 -0.1866 -0.7356
   66MOL   H28421214   5.720   6.663   4.012  0.6132  0.1299  0.5088
   66MOL   H28521215   5.762   6.529   4.126 -1.1131  0.3333  0.7641
   66MOL   H28621216   5.709   6.501   3.960  1.3401  1.9174 -0.5065
   66MOL   H28721217   5.470   6.638   4.279 -1.1167 -1.1267  1.0270
   66MOL   H28821218   5.633   6.613   4.285  2.0922 -1.2325 -3.1735
   66MOL   H28921219   5.529   6.467   4.288 -0.1287  0.4075  0.3461
   66MOL   C29021220   5.221   6.478   3.974  0.8154  0.2157  0.3800
   66MOL   C29121221   5.259   6.330   3.960  0.2656  0.0218  0.9893
   66MOL   C29221222   5.212   6.272   3.818  0.8446 -0.2016 -0.4074
   66MOL   O29321223   5.089   6.262   3.803 -0.4277 -0.4782  0.7046
   66MOL   N29421224   5.299   6.227   3.732  0.2314  0.0830 -0.2643
   66MOL   C29521225   5.254   6.161   3.607 -0.7191 -0.3837  0.2812
   66MOL   C29621226   5.443   6.260   3.742 -0.2564 -0.3011  0.2269
   66MOL   H29721227   5.116   6.484   4.004  1.0911  0.2923  1.3544
   66MOL   H29821228   5.199   6.521   3.876 -1.2487 -2.2192 -0.2721
   66MOL   H29921229   5.365   6.306   3.969  0.3473 -0.7471 -1.5004
   66MOL   H30021230   5.307   6.067   3.589 -0.0005 -0.1591  1.1698
   66MOL   H30121231   5.150   6.130   3.601 -1.6216  1.7289  3.7997
   66MOL   H30221232   5.272   6.228   3.522  2.7724  0.2957  1.4446
   66MOL   H30321233   5.498   6.247   3.648 -0.0223 -1.2391  0.4848
   66MOL   H30421234   5.491   6.185   3.805  1.0834 -1.2933 -1.9053
   66MOL   H30521235   5.469   6.362   3.769  1.1666 -0.6734  0.3362
   66MOL   C30621236   5.187   6.254   4.074  0.1008  0.0243  0.1467
   66MOL   C30721237   5.222   6.104   4.094  0.4285  0.8095  0.0584
   66MOL   C30821238   5.158   6.020   4.205 -0.1577 -0.0862  0.0510
   66MOL   O30921239   5.077   6.076   4.284  0.3159  0.8296  0.0947
   66MOL   N31021240   5.195   5.892   4.207  0.0871  0.0796  0.0649
   66MOL   C31121241   5.125   5.794   4.291 -0.6238 -0.1552  0.6487
   66MOL   C31221242   5.307   5.829   4.135 -0.2521  0.2349 -0.2325
   66MOL   H31321243   5.180   6.304   4.170  2.0277  1.1848 -0.2995
   66MOL   H31421244   5.083   6.272   4.045  0.3241 -0.4793 -1.0166
   66MOL   H31521245   5.207   6.055   3.998  0.6302 -2.3386  1.5736
   66MOL   H31621246   5.026   5.825   4.323 -1.1429  0.4345 -1.4099
   66MOL   H31721247   5.112   5.702   4.234  2.6708  1.3888 -2.7904
   66MOL   H31821248   5.183   5.761   4.377  0.0043  0.5158  0.4827
   66MOL   H31921249   5.296   5.821   4.027  1.3185  1.8100 -0.5427
   66MOL   H32021250   5.322   5.723   4.156  0.9269  0.7625  1.6661
   66MOL   H32121251   5.409   5.857   4.163 -0.4917  0.9080 -0.0419
   66MOL   H32221252   5.328   6.093   4.117  0.2067 -3.0021 -0.4729
   67MOL     C121253   6.074   3.888   0.292 -1.2783  0.3188  0.1429
   67MOL     C221254   5.960   3.785   0.305 -0.4293 -0.1810  0.9098
   67MOL     C321255   5.864   3.831   0.419 -0.6708  0.1953 -0.5411
   67MOL     O421256   5.918   3.816   0.532  0.3768 -0.2778 -0.1526
   67MOL     N521257   5.750   3.901   0.398  0.5100 -0.6825 -0.0805
   67MOL     C621258   5.688   3.910   0.266 -0.3909 -0.2617 -0.3319
   67MOL     C721259   5.661   3.950   0.506 -0.5837  0.1903 -0.2690
   67MOL     H821260   6.149   3.855   0.221 -1.0352  0.3099  0.4054
   67MOL     H921261   6.130   3.892   0.385 -0.1766  1.8834 -0.5675
   67MOL    H1021262   5.913   3.781   0.207  0.3930  1.0859  0.4595
   67MOL    H1121263   5.675   3.807   0.231 -1.4385 -0.9137  1.8826
   67MOL    H1221264   5.590   3.958   0.256 -0.0321  1.0815  2.1886
   67MOL    H1321265   5.757   3.959   0.197 -0.6141 -0.9831 -1.0823
   67MOL    H1421266   5.588   4.024   0.473  3.1986  3.3926 -1.7133
   67MOL    H1521267   5.728   3.995   0.579  2.1648  0.3921 -2.8605
   67MOL    H1621268   5.608   3.864   0.547  0.6675 -0.2914  0.3681
   67MOL    H1721269   6.061   3.986   0.246 -0.6344 -0.3504 -1.5065
   67MOL    C1821270   6.025   3.643   0.330 -0.2830 -0.4849  0.2578
   67MOL    C1921271   5.930   3.521   0.356 -0.3811  0.1775  0.4392
   67MOL    C2021272   5.804   3.523   0.267  0.0093  0.1792 -0.0099
   67MOL    O2121273   5.704   3.568   0.323 -0.5612  0.1217 -0.1042
   67MOL    N2221274   5.810   3.483   0.135  0.1852  0.0549 -0.4158
   67MOL    C2321275   5.928   3.419   0.072  0.4370  0.2503  0.6118
   67MOL    C2421276   5.691   3.479   0.052  0.1473 -0.5087 -0.5581
   67MOL    H2521277   6.077   3.635   0.234 -1.4433 -1.4823 -0.3125
   67MOL    H2621278   6.099   3.658   0.408 -1.7306  0.2670  1.5124
   67MOL    H2721279   5.990   3.432   0.333  0.2860  0.5479  0.7424
   67MOL    H2821280   5.929   3.427   7.816  1.7762 -0.5109  0.5604
   67MOL    H2921281   6.023   3.463   0.101  0.6146  0.0481  0.3432
   67MOL    H3021282   5.930   3.311   0.087  0.5650 -0.0907 -1.5949
   67MOL    H3121283   5.596   3.461   0.102 -3.4717  0.3016 -6.6431
   67MOL    H3221284   5.695   3.399   7.831  2.7087 -1.3436  0.3933
   67MOL    H3321285   5.701   3.578   0.007  2.8924 -0.8438 -0.8029
   67MOL    C3421286   5.897   3.513   0.507 -0.6139  0.1408 -0.1375
   67MOL    C3521287   5.878   3.369   0.543 -0.5425 -0.6278 -0.2554
   67MOL    C3621288   5.776   3.344   0.661 -1.3166 -0.0710  0.3007
   67MOL    O3721289   5.822   3.346   0.775 -0.7699 -0.0911  0.2244
   67MOL    N3821290   5.642   3.324   0.639  0.4095  0.2583 -0.2819
   67MOL    C3921291   5.576   3.288   0.517  0.0963  1.3098 -0.1333
   67MOL    C4021292   5.544   3.336   0.753  0.6194  0.1172 -0.4801
   67MOL    H4121293   5.977   3.550   0.570 -1.4827 -0.2978  1.2341
   67MOL    H4221294   5.815   3.577   0.538 -0.6309 -0.3975  0.9503
   67MOL    H4321295   5.836   3.313   0.459 -1.1005 -0.5530 -0.0321
   67MOL    H4421296   5.470   3.267   0.527 -0.0110  1.4611 -0.9595
   67MOL    H4521297   5.586   3.376   0.453 -0.9031 -0.1243 -2.3180
   67MOL    H4621298   5.628   3.205   0.469  1.2932  3.1466 -2.1361
   67MOL    H4721299   5.470   3.256   0.752 -0.2269  0.8912 -1.0631
   67MOL    H4821300   5.493   3.430   0.733  0.8436  0.1229 -1.0325
   67MOL    H4921301   5.593   3.353   0.849 -0.6701  1.0941  0.0155
   67MOL    C5021302   6.017   3.303   0.559  0.1266  0.2478  0.3781
   67MOL    C5121303   6.033   3.155   0.509 -0.6601  0.0107  0.0062
   67MOL    C5221304   6.047   3.135   0.359 -0.0612 -0.0222 -0.5226
   67MOL    O5321305   5.944   3.130   0.288 -0.1943  0.1180 -0.4207
   67MOL    N5421306   6.175   3.129   0.306  0.1032 -0.3581 -0.1176
   67MOL    C5521307   6.303   3.107   0.373 -0.1573  0.2661 -0.4855
   67MOL    C5621308   6.189   3.129   0.161  0.3532  0.5176  0.3699
   67MOL    H5721309   6.099   3.352   0.507 -0.0852  0.5466  0.3215
   67MOL    H5821310   6.037   3.312   0.666 -1.0221 -1.6549  0.7836
   67MOL    H5921311   6.126   3.120   0.553 -0.2727  0.9787 -0.0269
   67MOL    H6021312   6.332   3.206   0.408  0.4811  0.5555 -1.8183
   67MOL    H6121313   6.306   3.016   0.433  2.8344  0.8304  0.2628
   67MOL    H6221314   6.376   3.069   0.301 -2.0531 -2.9549 -0.8374
   67MOL    H6321315   6.127   3.209   0.118 -2.0801 -1.4391  0.1266
   67MOL    H6421316   6.157   3.032   0.123 -3.0388  1.1842  1.3482
   67MOL    H6521317   6.287   3.155   0.123  1.4188 -1.9174  1.3765
   67MOL    C6621318   5.936   3.054   0.565  0.6655 -0.4516  0.5298
   67MOL    C6721319   5.948   3.017   0.718  0.6362 -0.2999 -0.0149
   67MOL    C6821320   6.070   2.929   0.745 -1.5718  0.0001 -0.4661
   67MOL    O6921321   6.098   2.836   0.665  0.5250 -0.2432  0.0560
   67MOL    N7021322   6.155   2.960   0.847 -0.0221 -0.7877 -0.6296
   67MOL    C7121323   6.255   2.857   0.888 -0.0830  0.3833 -0.1052
   67MOL    C7221324   6.151   3.072   0.936 -0.3971  0.3401  0.2024
   67MOL    H7321325   5.836   3.087   0.540  0.9574 -1.3960 -2.0144
   67MOL    H7421326   5.931   2.961   0.508 -0.1307  0.4602 -0.9100
   67MOL    H7521327   5.957   3.114   0.768 -1.9377 -0.4811  0.8789
   67MOL    H7621328   6.298   2.821   0.795  1.8757  1.9410  0.1578
   67MOL    H7721329   6.341   2.908   0.933  0.7830 -1.8809  0.8653
   67MOL    H7821330   6.213   2.781   0.954  1.3315 -0.5904 -0.3058
   67MOL    H7921331   6.182   3.040   1.036  0.5348  1.3862  0.2523
   67MOL    H8021332   6.065   3.138   0.932  0.1096  1.0147  0.4463
   67MOL    H8121333   6.233   3.134   0.901 -0.8025 -0.5177 -2.3635
   67MOL    C8221334   5.824   2.944   0.770  0.0547 -0.4252 -0.1541
   67MOL    C8321335   5.808   2.930   0.928  0.2177 -0.7710 -0.2848
   67MOL    C8421336   5.738   2.802   0.947 -0.7977 -0.1238 -0.7397
   67MOL    O8521337   5.621   2.795   0.901 -0.2340 -0.2088  0.5835
   67MOL    N8621338   5.805   2.698   1.004  0.3525  0.1582  0.0547
   67MOL    C8721339   5.720   2.580   1.043  0.2990  0.0224  0.0622
   67MOL    C8821340   5.944   2.691   1.047  0.1831 -0.4686 -0.1649
   67MOL    H8921341   5.734   2.993   0.731  0.9324 -0.0950 -1.7885
   67MOL    H9021342   5.817   2.845   0.726  3.6624 -1.0281  0.5113
   67MOL    H9121343   5.910   2.932   0.969 -0.7426 -0.9630  2.2070
   67MOL    H9221344   5.736   2.498   0.973  2.9181  1.7422 -1.4319
   67MOL    H9321345   5.743   2.558   1.147 -1.1933 -1.7756  0.0251
   67MOL    H9421346   5.614   2.606   1.038  0.1201 -0.8616 -0.9518
   67MOL    H9521347   6.005   2.747   0.976 -0.4009 -0.7554 -0.8954
   67MOL    H9621348   5.972   2.586   1.045 -0.2096 -0.5543 -1.4523
   67MOL    H9721349   5.954   2.724   1.151  0.4840  0.6504 -0.5389
   67MOL    C9821350   5.735   3.059   0.980 -0.8370 -0.0650 -0.1211
   67MOL    C9921351   5.725   3.073   1.129  0.3284  1.5659 -0.3106
   67MOL   C10021352   5.867   3.081   1.189 -1.3435 -0.1366 -0.4562
   67MOL   O10121353   5.913   2.971   1.215  0.1684  0.0259  0.3692
   67MOL   N10221354   5.919   3.191   1.243  0.0509  0.0533  0.1984
   67MOL   C10321355   5.882   3.328   1.206 -0.3941 -0.7795 -0.2713
   67MOL   C10421356   6.028   3.182   1.339  0.1203  0.4450 -0.2097
   67MOL   H10521357   5.784   3.148   0.942 -0.1041 -1.6897 -3.2126
   67MOL   H10621358   5.633   3.065   0.940 -0.1347 -0.3495 -2.0097
   67MOL   H10721359   5.669   3.166   1.142 -3.2249 -0.5057  0.0595
   67MOL   H10821360   5.943   3.405   1.253 -0.1510 -0.9993 -0.2247
   67MOL   H10921361   5.881   3.342   1.098  0.3450  1.3513 -0.0223
   67MOL   H11021362   5.777   3.342   1.230 -0.9834 -0.3255 -2.9338
   67MOL   H11121363   6.035   3.085   1.389 -2.3480  1.3587  2.0326
   67MOL   H11221364   6.016   3.254   1.421  2.9911 -0.3400  0.9411
   67MOL   H11321365   6.120   3.209   1.288  0.0701  1.2731  0.1311
   67MOL   C11421366   5.634   2.970   1.204 -0.0182  0.1019  0.3101
   67MOL   C11521367   5.524   3.020   1.317  0.4156 -0.4910 -0.3561
   67MOL   C11621368   5.594   3.091   1.439 -1.1901  1.3447  0.4324
   67MOL   O11721369   5.669   3.030   1.514  0.8381  0.3673  0.5831
   67MOL   N11821370   5.586   3.228   1.453 -0.3821 -1.0045  0.6069
   67MOL   C11921371   5.515   3.326   1.362  0.0085  0.3311 -0.5586
   67MOL   C12021372   5.654   3.287   1.565 -0.4217 -0.1032  0.1448
   67MOL   H12121373   5.578   2.914   1.129 -1.1176  0.4746  0.8465
   67MOL   H12221374   5.698   2.899   1.257 -1.0316  0.4172  2.0161
   67MOL   H12321375   5.459   3.084   1.257  2.6123  3.1098  0.9141
   67MOL   H12421376   5.543   3.431   1.377  0.7765  0.0456  0.0583
   67MOL   H12521377   5.531   3.302   1.257 -0.3079  0.3644 -0.6143
   67MOL   H12621378   5.408   3.313   1.382  0.0193 -1.3248 -1.5240
   67MOL   H12721379   5.674   3.391   1.540 -0.1092 -0.0530  0.5848
   67MOL   H12821380   5.751   3.238   1.578  0.5034  0.7739 -3.0546
   67MOL   H12921381   5.600   3.280   1.660  0.6196  0.6554  0.8110
   67MOL   C13021382   5.431   2.895   1.340 -0.7013  0.1711 -0.2521
   67MOL   C13121383   5.329   2.880   1.453 -0.2108  0.2637  0.2566
   67MOL   C13221384   5.293   2.731   1.475  0.2031 -0.0769 -1.0898
   67MOL   O13321385   5.274   2.664   1.374 -0.0541  0.2433  0.6249
   67MOL   N13421386   5.296   2.673   1.603  0.0461  0.4545 -0.1753
   67MOL   C13521387   5.293   2.528   1.622  0.0499  0.8328 -0.0966
   67MOL   C13621388   5.310   2.740   1.728  0.3424 -0.5337  0.3289
   67MOL   H13721389   5.372   2.867   1.253  1.1684 -0.6573 -1.2996
   67MOL   H13821390   5.493   2.805   1.338 -0.0492  0.6382 -2.0961
   67MOL   H13921391   5.389   2.911   1.539 -0.4768 -0.9101  0.8745
   67MOL   H14021392   5.191   2.508   1.655 -0.2798 -0.1391 -1.6369
   67MOL   H14121393   5.313   2.474   1.530  0.4500 -1.4655  1.2907
   67MOL   H14221394   5.355   2.497   1.707  1.6717  2.4621 -0.6411
   67MOL   H14321395   5.224   2.716   1.790 -0.4856 -2.2398 -1.4325
   67MOL   H14421396   5.316   2.849   1.717 -3.0624 -0.6351 -3.2465
   67MOL   H14521397   5.394   2.703   1.787  0.0300 -1.4807  0.1889
   67MOL   C14621398   5.214   2.984   1.435  0.2264  0.5353 -1.0224
   67MOL   C14721399   5.078   2.975   1.513 -0.5560 -0.2803 -0.0788
   67MOL   C14821400   4.979   2.881   1.445 -0.5618  0.3723  0.4434
   67MOL   O14921401   4.954   2.909   1.326 -1.2101  0.2909 -0.1370
   67MOL   N15021402   4.928   2.775   1.508 -0.7285  0.6156  0.1445
   67MOL   C15121403   4.856   2.666   1.440  0.7509  0.3893 -0.1413
   67MOL   C15221404   4.943   2.744   1.648 -0.0879  0.3145  0.4750
   67MOL   H15321405   5.256   3.080   1.463 -1.1016  0.5713  0.9507
   67MOL   H15421406   5.196   2.995   1.328 -0.3775  0.5922 -0.9142
   67MOL   H15521407   5.101   2.940   1.614 -0.8748  0.7583  0.3512
   67MOL   H15621408   4.804   2.696   1.348 -0.4165 -2.8501 -0.6002
   67MOL   H15721409   4.918   2.580   1.418 -1.5857 -1.1299 -1.0579
   67MOL   H15821410   4.775   2.624   1.499  1.1483 -3.6513 -2.3291
   67MOL   H15921411   4.863   2.677   1.678  0.1593  0.3602  1.2487
   67MOL   H16021412   4.940   2.825   1.722  2.0363 -0.0338  0.9778
   67MOL   H16121413   5.037   2.690   1.660 -1.5796 -2.4575  0.1047
   67MOL   C16221414   5.004   3.114   1.530  0.2370  0.2858  0.1493
   67MOL   C16321415   5.051   3.206   1.643  0.2525  0.6894 -0.0290
   67MOL   C16421416   5.098   3.336   1.590 -0.1501  0.1478  0.4552
   67MOL   O16521417   5.211   3.343   1.546  0.1322 -0.7408  0.3307
   67MOL   N16621418   5.007   3.441   1.585 -0.9383  0.6009 -0.3507
   67MOL   C16721419   5.053   3.583   1.568 -0.1422  0.0209 -0.1831
   67MOL   C16821420   4.858   3.422   1.583 -0.2688  0.9491  0.2638
   67MOL   H16921421   5.027   3.160   1.434  0.8114  1.3271  0.7709
   67MOL   H17021422   4.896   3.105   1.547 -0.0685  1.1653 -1.3155
   67MOL   H17121423   4.966   3.218   1.711  1.3744  1.4292  1.2843
   67MOL   H17221424   5.154   3.590   1.609 -0.2780 -1.4706  0.4370
   67MOL   H17321425   5.049   3.611   1.463 -0.7088 -0.1463 -0.2062
   67MOL   H17421426   4.979   3.651   1.609  0.3053  0.0961  0.5165
   67MOL   H17521427   4.843   3.333   1.522  0.3590 -0.2701  1.8413
   67MOL   H17621428   4.791   3.499   1.544  0.1378  1.5258  0.6818
   67MOL   H17721429   4.820   3.409   1.685 -2.1855  3.2774 -0.1151
   67MOL   C17821430   5.151   3.149   1.746 -0.3459  0.3654  0.5255
   67MOL   C17921431   5.219   3.243   1.849  0.0374  0.5517 -0.3436
   67MOL   C18021432   5.338   3.166   1.920 -0.1516 -0.2792 -0.3796
   67MOL   O18121433   5.324   3.038   1.932 -0.3459 -0.1286 -0.5080
   67MOL   N18221434   5.451   3.225   1.964  0.4083 -0.4266 -0.5314
   67MOL   C18321435   5.480   3.369   1.957 -0.3658 -0.0578  0.4329
   67MOL   C18421436   5.566   3.150   2.001  1.1759 -0.0865  0.2390
   67MOL   H18521437   5.097   3.077   1.807 -0.5010  0.7714  0.8736
   67MOL   H18621438   5.234   3.092   1.706 -0.0200  0.8628  0.4879
   67MOL   H18721439   5.264   3.322   1.789 -1.9038  0.8070 -1.4749
   67MOL   H18821440   5.391   3.429   1.938 -0.5191 -0.0788  1.0664
   67MOL   H18921441   5.501   3.414   2.054 -0.9036  0.6092  0.2450
   67MOL   H19021442   5.561   3.392   1.888 -1.0105 -0.6107 -0.5131
   67MOL   H19121443   5.659   3.205   1.985  0.2468  1.0453 -1.4216
   67MOL   H19221444   5.580   3.062   1.937 -0.0284  0.9353 -1.4838
   67MOL   H19321445   5.550   3.132   2.107 -1.3327  2.7366  0.4203
   67MOL   C19421446   5.124   3.302   1.959 -0.7279  0.4222  0.5428
   67MOL   C19521447   5.042   3.207   2.041 -0.1141 -0.0862 -0.4526
   67MOL   C19621448   4.902   3.176   1.980  0.4549  0.1227  0.8186
   67MOL   O19721449   4.836   3.265   1.931  0.3179 -0.0541 -0.0115
   67MOL   N19821450   4.872   3.044   1.972  0.2553 -0.3097  0.5226
   67MOL   C19921451   4.734   3.000   1.930  0.5297 -0.8241 -0.4383
   67MOL   C20021452   4.948   2.932   2.026 -0.5143  0.4734 -0.1586
   67MOL   H20121453   5.193   3.364   2.015  0.6404 -0.8037  0.2228
   67MOL   H20221454   5.058   3.378   1.917 -1.2902  0.1195  0.8705
   67MOL   H20321455   5.093   3.111   2.056 -0.6506 -0.0711  1.5655
   67MOL   H20421456   4.750   2.924   1.853  0.0927 -0.9951 -0.3576
   67MOL   H20521457   4.680   2.963   2.017 -0.6308 -1.1868 -1.3047
   67MOL   H20621458   4.681   3.085   1.886  0.9541  0.5454  1.6159
   67MOL   H20721459   4.901   2.833   2.020  0.9534 -0.2954  0.8743
   67MOL   H20821460   4.961   2.948   2.133 -2.5118  0.8800  0.0490
   67MOL   H20921461   5.042   2.911   1.975  0.0997  0.1004  1.1130
   67MOL   C21021462   5.013   3.280   2.176 -0.5252 -0.2364  0.1299
   67MOL   C21121463   5.127   3.295   2.286 -0.1052 -0.0192  0.1603
   67MOL   C21221464   5.177   3.157   2.324 -0.1606  0.0925  0.5502
   67MOL   O21321465   5.099   3.073   2.362  0.2697  0.1286 -0.3756
   67MOL   N21421466   5.306   3.130   2.317 -0.2371  0.0394  0.0976
   67MOL   C21521467   5.412   3.237   2.322  0.4611 -0.4005 -0.5537
   67MOL   C21621468   5.352   2.992   2.319 -0.5921  0.1824 -0.3805
   67MOL   H21721469   4.962   3.376   2.166  0.4017  0.1773 -0.6579
   67MOL   H21821470   4.937   3.214   2.219  0.0591 -1.4522 -0.6670
   67MOL   H21921471   5.198   3.367   2.246 -1.4546  1.7712  0.8846
   67MOL   H22021472   5.405   3.285   2.419 -2.4232 -1.0909 -0.3791
   67MOL   H22121473   5.515   3.203   2.321  0.3226 -0.8215 -0.6469
   67MOL   H22221474   5.408   3.306   2.238 -4.6514 -1.9014 -1.7306
   67MOL   H22321475   5.436   2.981   2.387 -1.0937  0.5070  0.3107
   67MOL   H22421476   5.386   2.974   2.217  2.4845  1.0952  0.4569
   67MOL   H22521477   5.270   2.923   2.339 -1.6870  1.1917 -1.3251
   67MOL   C22621478   5.063   3.366   2.404 -0.0810 -0.8515  0.4251
   67MOL   C22721479   5.145   3.377   2.531 -0.0069 -0.0060  0.4727
   67MOL   C22821480   5.046   3.388   2.651  0.6945  0.2040 -0.1544
   67MOL   O22921481   5.002   3.503   2.683 -0.3824 -0.0367 -0.3860
   67MOL   N23021482   5.013   3.281   2.723 -0.8687 -0.1379 -0.1884
   67MOL   C23121483   5.057   3.147   2.688  0.2237  0.3375  0.0056
   67MOL   C23221484   4.896   3.289   2.815  0.3294  0.0129 -0.0498
   67MOL   H23321485   5.025   3.464   2.373  1.7796 -0.3263 -0.2466
   67MOL   H23421486   4.973   3.311   2.433 -1.1706  2.1016  2.9279
   67MOL   H23521487   5.208   3.291   2.557  1.4328  1.1083  0.7334
   67MOL   H23621488   5.025   3.085   2.771 -2.1989 -0.9505 -1.8155
   67MOL   H23721489   5.005   3.114   2.598  0.0827  1.3966 -0.3062
   67MOL   H23821490   5.165   3.131   2.682  0.2826 -0.5908  2.7797
   67MOL   H23921491   4.851   3.388   2.807  0.5496  0.0794 -0.5100
   67MOL   H24021492   4.925   3.279   2.920 -2.8256 -2.2976  0.6720
   67MOL   H24121493   4.825   3.208   2.801  1.2577 -0.7083 -0.6812
   67MOL   C24221494   5.240   3.496   2.509  0.0374  0.3408  0.1372
   67MOL   C24321495   5.335   3.536   2.623 -0.0530 -0.3556  0.3792
   67MOL   C24421496   5.422   3.654   2.563  0.5407  0.4412  0.6677
   67MOL   O24521497   5.489   3.631   2.459 -0.1040 -0.4964  0.4573
   67MOL   N24621498   5.415   3.782   2.609  0.2721  0.0110  0.4201
   67MOL   C24721499   5.499   3.894   2.556  0.0962 -0.0124 -0.1205
   67MOL   C24821500   5.327   3.827   2.721  0.0511 -0.1436 -0.2400
   67MOL   H24921501   5.287   3.478   2.413 -2.4897  0.6341 -1.1954
   67MOL   H25021502   5.174   3.581   2.491 -2.9453 -1.5855  1.5372
   67MOL   H25121503   5.275   3.577   2.704  1.4950 -0.2643  1.4788
   67MOL   H25221504   5.554   3.943   2.636 -0.1563 -0.7694  0.5292
   67MOL   H25321505   5.588   3.862   2.500  0.8091  1.8383 -0.0802
   67MOL   H25421506   5.446   3.975   2.505  0.0511  0.6608  0.9954
   67MOL   H25521507   5.360   3.923   2.763  1.1080 -0.3140 -0.6565
   67MOL   H25621508   5.351   3.772   2.812  1.4728  0.8028 -0.0208
   67MOL   H25721509   5.221   3.829   2.699 -0.6118 -1.5376  2.5791
   67MOL   C25821510   5.430   3.426   2.679  0.1174 -0.0523  0.5639
   67MOL   C25921511   5.504   3.438   2.819  0.2125  0.0200  0.7218
   67MOL   C26021512   5.627   3.540   2.820  0.9193 -0.3269  0.0770
   67MOL   O26121513   5.705   3.547   2.725  0.6121 -0.1711  0.6214
   67MOL   N26221514   5.647   3.619   2.933  0.7418 -0.1667  0.4963
   67MOL   C26321515   5.760   3.710   2.932 -0.0662  0.5157  0.2754
   67MOL   C26421516   5.587   3.606   3.069  0.4502 -0.1085 -0.1235
   67MOL   H26521517   5.361   3.344   2.699  0.1207 -0.2915 -0.3896
   67MOL   H26621518   5.505   3.391   2.608 -1.2811 -0.7245 -0.6065
   67MOL   H26721519   5.435   3.483   2.891  0.4720  1.9883 -0.2198
   67MOL   H26821520   5.855   3.655   2.928 -0.4518 -0.4541  3.0167
   67MOL   H26921521   5.755   3.783   2.851  1.6370 -2.4232 -2.5916
   67MOL   H27021522   5.780   3.741   3.035 -0.3141 -1.2117  0.8679
   67MOL   H27121523   5.483   3.635   3.054  0.3315  0.7989  2.1360
   67MOL   H27221524   5.640   3.662   3.147  1.1780  2.1620 -2.1784
   67MOL   H27321525   5.571   3.501   3.092 -0.8320  0.2293  0.5651
   67MOL   C27421526   5.548   3.302   2.872  0.3590  0.5918  0.0859
   67MOL   C27521527   5.439   3.195   2.900  0.3771 -0.5024 -0.2261
   67MOL   C27621528   5.434   3.093   2.779  0.6551 -0.7106 -0.0626
   67MOL   O27721529   5.469   3.141   2.669 -0.1117  0.1056 -0.1621
   67MOL   N27821530   5.397   2.961   2.790  0.1984  1.3018 -0.7204
   67MOL   C27921531   5.336   2.905   2.915  0.4530 -0.4658 -0.3365
   67MOL   C28021532   5.387   2.873   2.669  0.2093  0.3197 -0.7553
   67MOL   H28121533   5.623   3.254   2.809 -1.3268 -1.6527 -0.2714
   67MOL   H28221534   5.606   3.316   2.963  0.3525  2.3839 -0.1798
   67MOL   H28321535   5.500   3.144   2.974 -0.3462  0.3772  0.9967
   67MOL   H28421536   5.401   2.912   3.003 -0.1544  3.5337 -0.0801
   67MOL   H28521537   5.242   2.951   2.944  1.9201  2.3854  0.1118
   67MOL   H28621538   5.304   2.801   2.916  0.1352 -0.3644  0.9980
   67MOL   H28721539   5.344   2.925   2.584 -1.4269  0.8201  0.3636
   67MOL   H28821540   5.323   2.785   2.682 -1.5775  1.5391 -1.1427
   67MOL   H28921541   5.486   2.846   2.631  0.9741 -1.6633  2.4138
   67MOL   C29021542   5.304   3.249   2.953  0.0934 -0.8162 -0.3505
   67MOL   C29121543   5.304   3.317   3.101  0.4395 -0.3731 -0.2113
   67MOL   C29221544   5.363   3.224   3.210 -0.1452 -0.7540  0.0186
   67MOL   O29321545   5.346   3.106   3.192 -0.6128 -0.1089 -0.6029
   67MOL   N29421546   5.419   3.271   3.322 -0.0979 -0.2719 -0.6050
   67MOL   C29521547   5.437   3.182   3.437  0.7156 -0.0028 -0.1420
   67MOL   C29621548   5.473   3.411   3.344 -0.4150 -0.2573 -0.0754
   67MOL   H29721549   5.247   3.319   2.892 -0.6930 -1.7109 -0.6672
   67MOL   H29821550   5.234   3.166   2.964 -3.0407  1.3171 -3.2985
   67MOL   H29921551   5.364   3.408   3.094  1.2659 -0.8229  0.9551
   67MOL   H30021552   5.521   3.113   3.425  1.6937  0.8733  1.5412
   67MOL   H30121553   5.466   3.238   3.525  0.9906 -0.9860  0.3925
   67MOL   H30221554   5.346   3.122   3.443 -0.0807  1.0992 -0.7671
   67MOL   H30321555   5.572   3.424   3.300 -0.7346  3.2919  0.1009
   67MOL   H30421556   5.473   3.442   3.449 -1.0964 -0.3063 -0.0616
   67MOL   H30521557   5.416   3.490   3.297  1.4324  0.8388 -0.5510
   67MOL   C30621558   5.163   3.350   3.147 -0.0714  0.6315 -0.2042
   67MOL   C30721559   5.091   3.463   3.072 -0.9108  0.2055  0.4641
   67MOL   C30821560   5.136   3.607   3.103 -0.0678  0.2703  0.4002
   67MOL   O30921561   5.235   3.619   3.171  0.4450 -0.0769  0.3310
   67MOL   N31021562   5.082   3.708   3.039 -0.3284  0.2220  0.1392
   67MOL   C31121563   5.127   3.847   3.053  0.1753 -1.0262  1.2783
   67MOL   C31221564   4.951   3.692   2.968 -0.2731  0.3529  0.0035
   67MOL   H31321565   5.107   3.258   3.145  0.9042 -0.0190  1.1250
   67MOL   H31421566   5.157   3.370   3.254 -1.5508 -0.9819  0.0204
   67MOL   H31521567   5.092   3.439   2.966 -1.0226 -2.7469  1.0921
   67MOL   H31621568   5.081   3.908   3.131  0.1768  0.8615 -0.1851
   67MOL   H31721569   5.236   3.850   3.056  0.3392 -2.6455 -1.2312
   67MOL   H31821570   5.104   3.905   2.964  3.2552 -1.0760  0.4167
   67MOL   H31921571   4.864   3.686   3.034  1.6542 -0.8763  2.5485
   67MOL   H32021572   4.954   3.604   2.905 -0.0038 -0.5656  1.2852
   67MOL   H32121573   4.939   3.776   2.900 -1.9884  0.2376  0.1557
   67MOL   H32221574   4.983   3.459   3.079 -0.9297  0.1772  0.1854
   68MOL     C121575   3.316   1.714   7.216 -0.2123 -0.0585 -0.5818
   68MOL     C221576   3.434   1.716   7.120 -0.4745 -0.2064  0.5816
   68MOL     C321577   3.443   1.585   7.028  0.5778  0.3390 -0.3026
   68MOL     O421578   3.483   1.484   7.081 -0.6206  0.3039 -0.1749
   68MOL     N521579   3.395   1.585   6.903  0.0052  0.3838  0.5585
   68MOL     C621580   3.373   1.454   6.837  0.0689 -0.0247  0.2769
   68MOL     C721581   3.349   1.709   6.828  0.1540 -0.1389  0.2656
   68MOL     H821582   3.244   1.636   7.191 -0.6886  0.2067 -0.0624
   68MOL     H921583   3.261   1.806   7.196  0.6048  0.1604 -1.8865
   68MOL    H1021584   3.430   1.806   7.059  1.7915  0.0955  0.8534
   68MOL    H1121585   3.297   1.401   6.894  0.7866 -3.4157 -1.7973
   68MOL    H1221586   3.330   1.459   6.737  0.2901  3.1749  0.2718
   68MOL    H1321587   3.464   1.395   6.838 -1.1155 -1.9146 -0.5723
   68MOL    H1421588   3.326   1.691   6.723  0.0384 -1.6433  0.5312
   68MOL    H1521589   3.433   1.777   6.814  1.8686 -2.7675 -3.0995
   68MOL    H1621590   3.271   1.768   6.876 -0.4784 -0.2008 -0.6613
   68MOL    H1721591   3.337   1.709   7.323  1.3386 -0.7699 -0.9032
   68MOL    C1821592   3.561   1.727   7.212  0.0202  0.4594  0.5576
   68MOL    C1921593   3.599   1.867   7.252 -0.0474  0.6562 -0.0618
   68MOL    C2021594   3.658   1.945   7.133  0.9075  0.2880  0.6770
   68MOL    O2121595   3.754   1.894   7.076  0.4472 -0.3177  0.1162
   68MOL    N2221596   3.608   2.067   7.099  0.1449 -0.2794  0.6554
   68MOL    C2321597   3.671   2.162   7.006  0.4947  1.0615 -0.0329
   68MOL    C2421598   3.477   2.112   7.147 -0.3327 -0.3760 -0.3091
   68MOL    H2521599   3.547   1.656   7.294 -0.2709  0.7825  0.7874
   68MOL    H2621600   3.643   1.685   7.154 -1.1101  2.1458 -2.3759
   68MOL    H2721601   3.507   1.914   7.286 -1.0035  0.1510 -1.8758
   68MOL    H2821602   3.770   2.172   7.050  0.1368  0.4807  0.9175
   68MOL    H2921603   3.675   2.114   6.908 -0.9923 -1.7681  1.2211
   68MOL    H3021604   3.621   2.258   6.991 -0.8298  0.4583  0.3675
   68MOL    H3121605   3.408   2.028   7.145 -0.2385 -0.4478 -1.9159
   68MOL    H3221606   3.446   2.188   7.075  0.9613  1.5090  1.0928
   68MOL    H3321607   3.485   2.171   7.238 -1.3484 -0.7352  0.0151
   68MOL    C3421608   3.708   1.866   7.363 -0.1720  0.3827 -0.2695
   68MOL    C3521609   3.719   2.004   7.437  0.2713  0.0532  0.6364
   68MOL    C3621610   3.857   1.997   7.511  0.1243 -0.4226  0.2533
   68MOL    O3721611   3.865   1.947   7.628  0.6225  0.3707 -0.0057
   68MOL    N3821612   3.965   2.044   7.446  0.0133  0.4421 -0.5380
   68MOL    C3921613   4.102   2.011   7.500  0.2144 -1.0349 -0.0220
   68MOL    C4021614   3.962   2.117   7.315  0.5350  0.2077 -0.1199
   68MOL    H4121615   3.677   1.798   7.442 -0.1287 -0.0350 -0.6102
   68MOL    H4221616   3.803   1.822   7.332 -0.0875 -0.1615  0.7473
   68MOL    H4321617   3.713   2.095   7.378  0.9264  0.2302  0.8427
   68MOL    H4421618   4.113   1.903   7.508  0.7753 -1.1632 -2.3220
   68MOL    H4521619   4.175   2.045   7.427 -1.3314  0.7656 -0.7797
   68MOL    H4621620   4.113   2.062   7.596  0.3803 -0.2471 -0.4650
   68MOL    H4721621   3.923   2.216   7.336 -1.4350 -0.4257 -0.6692
   68MOL    H4821622   3.909   2.067   7.234  0.1917 -0.0670  0.2736
   68MOL    H4921623   4.058   2.126   7.264  0.6379 -0.8802 -0.1278
   68MOL    C5021624   3.599   2.017   7.540 -0.3246 -0.2373  0.1488
   68MOL    C5121625   3.588   2.135   7.643  0.2378  0.3006 -0.5017
   68MOL    C5221626   3.562   2.066   7.781 -0.0152 -0.2014  0.1320
   68MOL    O5321627   3.464   1.989   7.789 -0.1126 -0.6810  0.0523
   68MOL    N5421628   3.639   2.097   0.035  0.2039  0.0132 -0.3246
   68MOL    C5521629   3.743   2.201   0.045 -0.7681  0.5221  0.8739
   68MOL    C5621630   3.639   2.011   0.154  0.6765  0.0571  0.0757
   68MOL    H5721631   3.507   2.033   7.483  0.6795  1.4666 -1.0374
   68MOL    H5821632   3.589   1.919   7.587  1.0458 -0.2404  0.4354
   68MOL    H5921633   3.687   2.180   7.653  0.6065 -0.8519  1.3176
   68MOL    H6021634   3.763   2.222   0.150 -0.5408  1.1447  0.7094
   68MOL    H6121635   3.838   2.195   7.845 -0.8916  0.3368  0.6733
   68MOL    H6221636   3.701   2.296   0.013  1.8547  1.2125 -0.6724
   68MOL    H6321637   3.658   1.908   0.120  1.8891 -0.7727  3.0911
   68MOL    H6421638   3.544   2.032   0.201  1.1235  3.1817 -0.3009
   68MOL    H6521639   3.718   2.037   0.224  0.8415  1.9996 -0.8001
   68MOL    C6621640   3.472   2.232   7.604 -1.0887 -0.4322 -0.5335
   68MOL    C6721641   3.498   2.389   7.629 -0.4798  0.1649  0.1211
   68MOL    C6821642   3.476   2.429   7.774 -1.0223  0.4153 -0.3112
   68MOL    O6921643   3.388   2.365   7.842  0.3055  0.5118  0.3782
   68MOL    N7021644   3.556   2.529   7.827 -0.0761  0.1243  0.0985
   68MOL    C7121645   3.553   2.558   0.113  0.1173 -0.3774 -0.3743
   68MOL    C7221646   3.619   2.633   7.752 -0.4768 -0.8865  0.0881
   68MOL    H7321647   3.445   2.219   7.499  2.5125 -1.1936 -1.4167
   68MOL    H7421648   3.380   2.204   7.656 -0.3209  0.7933  1.5720
   68MOL    H7521649   3.597   2.425   7.603  0.1401 -1.2557  0.4695
   68MOL    H7621650   3.647   2.526   0.158  0.9266  0.4250 -1.4660
   68MOL    H7721651   3.540   2.666   0.126 -1.8109 -0.2360 -3.0347
   68MOL    H7821652   3.470   2.510   0.166 -0.8258  3.0269  1.4546
   68MOL    H7921653   3.727   2.631   7.758 -0.5100 -0.8960  0.7414
   68MOL    H8021654   3.578   2.730   7.780 -0.0653 -0.7881  0.3476
   68MOL    H8121655   3.587   2.634   7.648  1.7254 -3.6707 -0.6902
   68MOL    C8221656   3.388   2.465   7.548  0.3875 -0.0119 -0.7602
   68MOL    C8321657   3.404   2.471   7.395  0.4631 -0.8288  0.1601
   68MOL    C8421658   3.516   2.576   7.368  0.3371 -0.3206  0.3758
   68MOL    O8521659   3.500   2.692   7.403  0.0284 -0.1494  0.7125
   68MOL    N8621660   3.640   2.544   7.324  0.1003  0.3334  0.2904
   68MOL    C8721661   3.694   2.406   7.299  0.0613  0.3446 -0.1722
   68MOL    C8821662   3.737   2.646   7.298  0.2061  0.5046 -0.4540
   68MOL    H8921663   3.297   2.417   7.583  1.7033 -1.9310  0.1162
   68MOL    H9021664   3.359   2.563   7.584  0.9250  1.3091 -3.7859
   68MOL    H9121665   3.434   2.375   7.354  0.1431 -0.6758 -0.4434
   68MOL    H9221666   3.763   2.409   7.215  0.0780 -1.1601 -0.2252
   68MOL    H9321667   3.742   2.348   7.377 -1.4082 -3.0401 -1.6697
   68MOL    H9421668   3.612   2.339   7.271  0.0612  0.0133  0.6087
   68MOL    H9521669   3.694   2.731   7.246 -0.5378  0.3906 -0.0440
   68MOL    H9621670   3.835   2.618   7.259 -0.0779 -0.4183 -0.5153
   68MOL    H9721671   3.761   2.702   7.389 -1.0132  0.9255 -0.3867
   68MOL    C9821672   3.261   2.493   7.324 -0.1045  0.4386 -0.5323
   68MOL    C9921673   3.219   2.409   7.201  0.6435  0.4069 -0.0429
   68MOL   C10021674   3.174   2.259   7.224  0.0443 -0.0767 -0.0422
   68MOL   O10121675   3.222   2.195   7.318 -0.0479  0.1278 -0.0697
   68MOL   N10221676   3.088   2.200   7.142  0.3301 -0.4967  0.6618
   68MOL   C10321677   3.028   2.260   7.019 -0.2886  0.3300 -0.6533
   68MOL   C10421678   3.031   2.064   7.176  0.2226 -0.2392  0.1920
   68MOL   H10521679   3.180   2.490   7.397  1.1611  0.4159  0.9025
   68MOL   H10621680   3.253   2.597   7.295  0.0542 -0.0103 -2.2207
   68MOL   H10721681   3.130   2.465   7.171 -0.8854 -0.9130  1.9092
   68MOL   H10821682   2.991   2.354   7.058  1.7820  0.7580  0.3634
   68MOL   H10921683   3.095   2.268   6.934  0.9579  2.8257  0.5259
   68MOL   H11021684   2.938   2.209   6.984 -0.8471  2.8396 -2.9906
   68MOL   H11121685   2.938   2.085   7.229  0.8695 -0.7320  1.5300
   68MOL   H11221686   3.088   1.997   7.241  0.5325  2.2130  2.5183
   68MOL   H11321687   3.009   2.003   7.088  1.1882 -1.8868  1.0657
   68MOL   C11421688   3.309   2.425   7.079 -0.0458 -0.6403 -0.5626
   68MOL   C11521689   3.337   2.564   7.026 -0.2883  0.0265  0.7431
   68MOL   C11621690   3.212   2.627   6.966 -0.0862 -0.8329 -0.5139
   68MOL   O11721691   3.122   2.552   6.929  0.1547 -0.2822  0.2345
   68MOL   N11821692   3.199   2.766   6.963 -0.1792 -0.5012 -0.3135
   68MOL   C11921693   3.078   2.847   6.926 -0.0633  0.1738 -0.1652
   68MOL   C12021694   3.310   2.860   6.997  0.4624 -0.4609  0.1082
   68MOL   H12121695   3.405   2.387   7.113  0.7094  0.9043 -0.9259
   68MOL   H12221696   3.275   2.357   7.001  0.7818 -1.1563 -0.4790
   68MOL   H12321697   3.369   2.627   7.109  1.5521 -0.9983  0.8407
   68MOL   H12421698   3.050   2.841   6.821 -0.6440 -2.8887  0.1254
   68MOL   H12521699   2.995   2.812   6.988 -0.2251  1.9056  0.6353
   68MOL   H12621700   3.093   2.952   6.950 -2.7981  0.9880 -1.8366
   68MOL   H12721701   3.302   2.906   7.096 -0.3033 -1.6282  0.5883
   68MOL   H12821702   3.323   2.940   6.924  0.0118  0.4715  1.0215
   68MOL   H12921703   3.409   2.815   7.006  0.6002 -0.4910 -1.5233
   68MOL   C13021704   3.455   2.563   6.918 -0.3306 -0.6524 -0.3337
   68MOL   C13121705   3.413   2.535   6.770 -0.1129  0.4570 -0.3106
   68MOL   C13221706   3.365   2.389   6.746  0.6124  0.1104  0.3183
   68MOL   O13321707   3.414   2.298   6.816  0.6686 -0.0802 -0.1494
   68MOL   N13421708   3.270   2.363   6.659  0.5150 -0.1891  0.2807
   68MOL   C13521709   3.244   2.463   6.551 -0.7298  0.7300 -0.9246
   68MOL   C13621710   3.207   2.238   6.640  0.0083  0.1052  0.3620
   68MOL   H13721711   3.516   2.653   6.927 -1.8519  0.3361  0.3467
   68MOL   H13821712   3.526   2.486   6.951 -0.0820 -0.4913 -0.4954
   68MOL   H13921713   3.327   2.597   6.744  0.3358  1.0448 -0.4019
   68MOL   H14021714   3.336   2.488   6.499  0.5181 -0.5249  0.6247
   68MOL   H14121715   3.170   2.433   6.477 -2.3774  0.1109  0.9442
   68MOL   H14221716   3.198   2.554   6.591  0.1259  0.5559  0.5124
   68MOL   H14321717   3.117   2.236   6.578 -1.8258  0.1086  2.9666
   68MOL   H14421718   3.173   2.192   6.733  1.9418  0.5827  1.3196
   68MOL   H14521719   3.282   2.168   6.604 -0.7359 -2.5914  3.8071
   68MOL   C14621720   3.534   2.575   6.674  0.2047 -0.0111  0.3095
   68MOL   C14721721   3.521   2.726   6.629 -0.6887 -0.0328 -0.7004
   68MOL   C14821722   3.438   2.734   6.496  0.1681 -0.2848  0.4433
   68MOL   O14921723   3.475   2.662   6.402 -0.6819  0.2824  0.1468
   68MOL   N15021724   3.333   2.821   6.487 -0.3113  0.2011 -0.5504
   68MOL   C15121725   3.253   2.822   6.365  0.9690  0.3440  0.4284
   68MOL   C15221726   3.283   2.902   6.595  0.1559 -0.5628 -0.5386
   68MOL   H15321727   3.626   2.572   6.731 -0.2987  4.3783  1.5655
   68MOL   H15421728   3.544   2.496   6.600  2.2801 -0.2768  0.8420
   68MOL   H15521729   3.462   2.772   6.707  0.2079  1.0350 -0.6529
   68MOL   H15621730   3.218   2.924   6.345  1.3314  0.5415  0.8041
   68MOL   H15721731   3.318   2.793   6.282 -1.8517 -3.4903 -0.5944
   68MOL   H15821732   3.168   2.755   6.375  1.5128 -0.1931  1.4905
   68MOL   H15921733   3.357   2.980   6.610 -1.1731  0.5125  0.6581
   68MOL   H16021734   3.252   2.856   6.689  0.3245  1.0568  0.3324
   68MOL   H16121735   3.195   2.952   6.553  0.6942 -0.1596 -1.1914
   68MOL   C16221736   3.661   2.797   6.609  0.6122 -0.2020  0.5233
   68MOL   C16321737   3.723   2.842   6.744  0.1886 -0.4008  0.2809
   68MOL   C16421738   3.658   2.967   6.792  0.1832  0.0765 -0.9089
   68MOL   O16521739   3.608   3.048   6.712  0.5183  0.5811  0.0045
   68MOL   N16621740   3.661   2.996   6.924  0.9080  0.0914 -0.9099
   68MOL   C16721741   3.707   2.907   7.040  0.1862  0.2718  0.3186
   68MOL   C16821742   3.581   3.116   6.964  0.5940  0.3018  0.2868
   68MOL   H16921743   3.735   2.731   6.563 -0.5296 -0.9754 -0.2408
   68MOL   H17021744   3.654   2.878   6.537  0.4162  0.3688  1.1787
   68MOL   H17121745   3.693   2.764   6.814 -1.1116  1.0321  1.3224
   68MOL   H17221746   3.811   2.926   7.065  0.9496 -1.5953 -1.2903
   68MOL   H17321747   3.644   2.917   7.128  0.7686 -2.7275  1.1079
   68MOL   H17421748   3.697   2.800   7.026 -0.5288  0.0994  2.0977
   68MOL   H17521749   3.580   3.144   7.070  0.3639  0.3138  0.2798
   68MOL   H17621750   3.478   3.095   6.936  0.1498  1.5303  0.9643
   68MOL   H17721751   3.617   3.205   6.913 -0.6038  0.1900 -0.7827
   68MOL   C17821752   3.882   2.854   6.736 -0.4403  0.4694 -0.2525
   68MOL   C17921753   3.961   2.720   6.712  0.4421 -0.7203  0.3795
   68MOL   C18021754   3.930   2.603   6.810  0.0523 -0.7581  0.0319
   68MOL   O18121755   3.903   2.636   6.924 -0.3174 -0.1154 -0.0824
   68MOL   N18221756   3.917   2.474   6.762 -0.0069 -0.2376 -0.4343
   68MOL   C18321757   3.840   2.371   6.844 -0.2224 -0.5906  0.4078
   68MOL   C18421758   3.946   2.433   6.623 -0.0682  0.1971 -0.1652
   68MOL   H18521759   3.910   2.931   6.664  2.1764 -1.1054 -0.9887
   68MOL   H18621760   3.913   2.889   6.834  0.0813 -0.2128 -0.1733
   68MOL   H18721761   3.949   2.690   6.608  1.4281 -0.3768  0.1623
   68MOL   H18821762   3.802   2.401   6.942 -0.1574  0.6786  0.0433
   68MOL   H18921763   3.759   2.343   6.778 -0.8656  1.2229  0.4155
   68MOL   H19021764   3.906   2.286   6.864 -0.7394 -0.7438  1.5589
   68MOL   H19121765   3.858   2.456   6.563 -1.3438 -0.2389  1.4774
   68MOL   H19221766   3.981   2.330   6.623 -0.0047  0.2025  0.9515
   68MOL   H19321767   4.027   2.488   6.577  0.7220  0.4473  1.4673
   68MOL   C19421768   4.111   2.741   6.733  0.1019  0.2327 -0.3973
   68MOL   C19521769   4.160   2.789   6.880 -0.4747 -0.1073  0.1104
   68MOL   C19621770   4.146   2.945   6.894  0.3214  0.4451  0.1697
   68MOL   O19721771   4.165   3.008   6.789  0.1334  0.3018 -0.3217
   68MOL   N19821772   4.087   3.002   6.997  0.1351  0.4985 -0.6052
   68MOL   C19921773   4.105   2.951   7.134  0.5377 -0.1036  0.7729
   68MOL   C20021774   4.014   3.128   6.987  0.0238 -0.8316  0.0801
   68MOL   H20121775   4.155   2.644   6.710 -0.1724 -0.5627  2.1876
   68MOL   H20221776   4.159   2.799   6.655  0.1517 -1.3673 -1.5885
   68MOL   H20321777   4.092   2.751   6.956  1.1730 -1.0588  1.1393
   68MOL   H20421778   4.207   2.937   7.169  1.9836  0.9473 -2.8360
   68MOL   H20521779   4.050   3.018   7.200 -0.1965 -1.7589  1.8756
   68MOL   H20621780   4.049   2.859   7.144 -1.3780  0.9648  0.2213
   68MOL   H20721781   4.063   3.214   6.940 -1.7818  0.8631  1.2293
   68MOL   H20821782   3.974   3.173   7.078 -1.2254  1.0232 -1.3287
   68MOL   H20921783   3.929   3.117   6.920  0.5291 -0.4593 -0.6316
   68MOL   C21021784   4.298   2.733   6.918  0.1644 -0.7908 -0.1022
   68MOL   C21121785   4.288   2.600   6.995 -0.2835  0.3281  0.0332
   68MOL   C21221786   4.234   2.613   7.137  0.7319  0.5270 -0.4752
   68MOL   O21321787   4.282   2.711   7.196 -0.0669  0.5487  0.0667
   68MOL   N21421788   4.158   2.520   7.192  0.2161 -0.2807 -0.1507
   68MOL   C21521789   4.121   2.523   7.332 -0.0425  0.4219 -0.0351
   68MOL   C21621790   4.096   2.420   7.112 -0.2084 -0.1924  0.3939
   68MOL   H21721791   4.373   2.726   6.840  2.9593 -1.1209  2.4947
   68MOL   H21821792   4.345   2.807   6.982  0.2435 -0.7995 -0.1512
   68MOL   H21921793   4.221   2.535   6.939  0.4396 -1.2894  1.0239
   68MOL   H22021794   4.158   2.437   7.389 -2.5332 -1.2137 -0.7642
   68MOL   H22121795   4.174   2.607   7.376 -1.1608  1.1977 -0.1565
   68MOL   H22221796   4.017   2.546   7.355 -0.0255 -0.3415  0.8414
   68MOL   H22321797   4.045   2.348   7.176  1.9434 -1.4174  0.7724
   68MOL   H22421798   4.165   2.354   7.060 -0.6322 -0.0047 -0.4169
   68MOL   H22521799   4.031   2.456   7.032  0.8922 -0.1395 -0.4978
   68MOL   C22621800   4.427   2.530   7.013 -0.2558  0.1634 -0.3319
   68MOL   C22721801   4.506   2.492   6.887  0.2338  0.3801 -0.3816
   68MOL   C22821802   4.412   2.422   6.780  0.0591  0.8612  0.1107
   68MOL   O22921803   4.338   2.331   6.827  0.3320  0.2724  0.6111
   68MOL   N23021804   4.418   2.467   6.650  0.2983 -0.6180 -0.4045
   68MOL   C23121805   4.510   2.570   6.599  0.3440 -0.2670  0.4553
   68MOL   C23221806   4.324   2.417   6.545 -0.0961 -0.7788  0.8167
   68MOL   H23321807   4.490   2.597   7.072 -0.0044  0.3873 -0.8433
   68MOL   H23421808   4.422   2.444   7.080 -3.6449  0.2528 -0.3881
   68MOL   H23521809   4.540   2.588   6.846 -0.1040  1.2272  1.2864
   68MOL   H23621810   4.482   2.668   6.637  0.3584 -0.1792  0.2393
   68MOL   H23721811   4.614   2.545   6.622  0.1842 -1.8114 -0.4532
   68MOL   H23821812   4.514   2.594   6.493  2.6320  1.2067  0.8245
   68MOL   H23921813   4.379   2.351   6.477  1.7026  1.9081 -0.4302
   68MOL   H24021814   4.284   2.500   6.487 -0.6733 -1.1167  0.7352
   68MOL   H24121815   4.237   2.375   6.594 -1.3965  0.3565 -0.4867
   68MOL   C24221816   4.624   2.394   6.902  0.4320 -0.0359 -0.0453
   68MOL   C24321817   4.727   2.425   7.013 -0.1329 -0.0171  0.5404
   68MOL   C24421818   4.821   2.546   6.975 -0.5761  1.2384  0.3956
   68MOL   O24521819   4.850   2.551   6.849 -0.1081  0.0599  0.4677
   68MOL   N24621820   4.852   2.639   7.068  0.0317 -0.4765  0.0575
   68MOL   C24721821   4.798   2.642   7.210 -0.0019 -0.3939 -0.0906
   68MOL   C24821822   4.914   2.765   7.020  0.5236 -1.0995 -0.2820
   68MOL   H24921823   4.585   2.297   6.932  0.2971 -0.4378 -1.4682
   68MOL   H25021824   4.673   2.385   6.805 -0.1470  1.1448 -0.4464
   68MOL   H25121825   4.669   2.459   7.099 -1.4448  0.4049 -0.5003
   68MOL   H25221826   4.827   2.548   7.257 -1.7691 -0.6257  0.5693
   68MOL   H25321827   4.852   2.722   7.258  2.9829 -0.3816 -3.2558
   68MOL   H25421828   4.691   2.662   7.215  0.1273  0.5419 -0.9172
   68MOL   H25521829   4.868   2.858   7.051  1.3008  0.0617 -2.5181
   68MOL   H25621830   4.911   2.779   6.912  0.4701 -0.0550 -0.1413
   68MOL   H25721831   5.020   2.750   7.042  1.4560  2.9085 -1.6325
   68MOL   C25821832   4.802   2.300   7.059 -0.3024  0.0085  0.1404
   68MOL   C25921833   4.735   2.181   7.127  0.2966 -0.0127 -0.5451
   68MOL   C26021834   4.656   2.228   7.249  0.4867  0.1334 -0.2600
   68MOL   O26121835   4.718   2.284   7.345 -0.1940 -0.0030  0.6104
   68MOL   N26221836   4.523   2.201   7.267  0.9381  0.1687  0.0255
   68MOL   C26321837   4.439   2.145   7.160  0.5435 -0.1549  0.4648
   68MOL   C26421838   4.456   2.238   7.395 -0.7278 -0.5585  0.8400
   68MOL   H26521839   4.849   2.264   6.967 -1.3932 -0.6491 -0.1642
   68MOL   H26621840   4.884   2.329   7.125 -0.8249  1.9704 -0.0382
   68MOL   H26721841   4.665   2.124   7.065 -0.8891 -1.1434  1.7773
   68MOL   H26821842   4.483   2.048   7.136  1.6975  0.6658 -0.8208
   68MOL   H26921843   4.337   2.127   7.192 -0.7634  4.3453 -0.7670
   68MOL   H27021844   4.442   2.201   7.066 -0.0653 -1.8554 -0.5847
   68MOL   H27121845   4.527   2.209   7.473  0.5455  0.8491  0.2256
   68MOL   H27221846   4.363   2.183   7.407 -1.5505  0.4935 -0.4722
   68MOL   H27321847   4.436   2.344   7.405 -0.5333 -0.5013  0.6236
   68MOL   C27421848   4.847   2.075   7.161  0.3401 -0.0560  1.1781
   68MOL   C27521849   4.910   2.007   7.035  0.2242  0.2650 -0.0385
   68MOL   C27621850   4.876   1.857   7.016 -1.1582 -0.1528  0.6615
   68MOL   O27721851   4.912   1.790   7.110 -0.6062 -0.1087 -0.1939
   68MOL   N27821852   4.812   1.810   6.906 -0.5732 -0.4392 -0.4052
   68MOL   C27921853   4.751   1.893   6.803 -0.8054 -0.3387 -0.2103
   68MOL   C28021854   4.801   1.664   6.879  0.0593  0.2424 -0.1804
   68MOL   H28121855   4.924   2.113   7.228 -0.0276  1.1295  0.9433
   68MOL   H28221856   4.804   1.999   7.225 -0.1021  0.3253  1.3430
   68MOL   H28321857   4.861   2.056   6.951 -1.0301 -0.4541  0.2670
   68MOL   H28421858   4.660   1.935   6.847 -0.3145 -0.9767  1.4521
   68MOL   H28521859   4.819   1.967   6.761  0.1324 -0.1683  1.5414
   68MOL   H28621860   4.718   1.833   6.718  0.7776 -1.7055  0.1247
   68MOL   H28721861   4.760   1.616   6.968 -1.8024 -0.9162 -1.6121
   68MOL   H28821862   4.898   1.616   6.870 -0.6930 -1.8173  1.9952
   68MOL   H28921863   4.742   1.633   6.793 -0.2654 -1.9576  0.8140
   68MOL   C29021864   5.059   2.035   7.020 -0.9042  0.2666  0.7569
   68MOL   C29121865   5.103   2.137   6.912  0.3913  0.3255  0.3792
   68MOL   C29221866   5.074   2.076   6.774  1.1608  0.7795  0.0947
   68MOL   O29321867   5.092   1.955   6.757  0.4309  0.2816 -0.6921
   68MOL   N29421868   5.023   2.147   6.677  0.3360  0.0952  0.1936
   68MOL   C29521869   4.983   2.288   6.691 -0.5909  0.1157  0.2494
   68MOL   C29621870   4.995   2.084   6.547 -0.2946 -0.4465 -0.0278
   68MOL   H29721871   5.101   2.070   7.114  1.1718  0.4531 -0.2162
   68MOL   H29821872   5.111   1.941   7.002 -0.1688  1.0888 -1.5936
   68MOL   H29921873   5.042   2.225   6.930  0.9371  0.6611  0.6037
   68MOL   H30021874   4.979   2.341   6.596  2.6477 -1.1118 -0.6463
   68MOL   H30121875   4.883   2.271   6.729 -0.8586 -0.1313 -0.5579
   68MOL   H30221876   5.043   2.352   6.757 -0.7629  0.7535 -0.2033
   68MOL   H30321877   5.065   2.123   6.473  0.5445 -0.4454  0.7540
   68MOL   H30421878   4.890   2.101   6.524 -0.8557 -2.3857  1.0479
   68MOL   H30521879   4.998   1.975   6.540 -1.5060 -0.3812 -1.9217
   68MOL   C30621880   5.250   2.190   6.926  0.2215  0.5206  0.4446
   68MOL   C30721881   5.361   2.073   6.933 -0.6517  0.1047  0.1538
   68MOL   C30821882   5.504   2.126   6.953  0.2521  0.0271 -0.1557
   68MOL   O30921883   5.518   2.244   6.964  0.1190 -0.1340 -0.4937
   68MOL   N31021884   5.611   2.044   6.960 -0.0660 -0.2226  0.2321
   68MOL   C31121885   5.748   2.101   6.941 -0.0586  0.5260  0.6057
   68MOL   C31221886   5.607   1.900   6.948  0.7451  0.1293 -0.0427
   68MOL   H31321887   5.262   2.247   6.834 -0.5644  0.2326  0.1621
   68MOL   H31421888   5.257   2.256   7.013 -0.4368  0.3185  0.6498
   68MOL   H31521889   5.342   2.017   7.025  1.6498  1.8344  1.7305
   68MOL   H31621890   5.811   2.017   6.911  0.4543  0.3934  1.9707
   68MOL   H31721891   5.743   2.173   6.860 -1.1127 -0.1267  0.0971
   68MOL   H31821892   5.783   2.143   7.036 -0.6782 -1.2728  1.6553
   68MOL   H31921893   5.647   1.880   6.848 -0.0576 -0.6131 -0.2188
   68MOL   H32021894   5.510   1.859   6.974  1.0443 -0.7988 -0.3548
   68MOL   H32121895   5.679   1.856   7.016  1.5243 -1.6318 -1.9513
   68MOL   H32221896   5.354   1.998   6.854 -0.9271  0.2042  0.0836
   69MOL     C121897   3.488   7.656   0.729  0.4216  0.2494  0.5581
   69MOL     C221898   3.352   7.698   0.692 -0.2120  0.3686 -0.1734
   69MOL     C321899   3.258   7.586   0.746 -0.3254  0.4605 -0.8163
   69MOL     O421900   3.267   7.477   0.699  0.2303 -0.0118  0.1453
   69MOL     N521901   3.173   7.621   0.842  0.3993  0.5136  0.2559
   69MOL     C621902   3.072   7.526   0.889 -0.4480 -0.0152  0.5644
   69MOL     C721903   3.174   7.753   0.914 -0.3030  0.1068 -0.0405
   69MOL     H821904   3.488   7.626   0.834 -1.3021 -1.6040  0.0493
   69MOL     H921905   3.557   7.737   0.706  0.6228 -0.0465  0.0963
   69MOL    H1021906   3.335   7.797   0.735 -2.9867  0.7858 -2.0721
   69MOL    H1121907   2.970   7.565   0.892 -0.6207 -0.1494 -2.0852
   69MOL    H1221908   3.059   7.447   0.815  0.2544  0.6272 -0.2436
   69MOL    H1321909   3.099   7.489   0.988 -3.2563 -1.5268  0.8397
   69MOL    H1421910   3.271   7.792   0.944  0.4825 -1.9113  0.1451
   69MOL    H1521911   3.123   7.744   1.010 -0.1539 -0.2241  0.0098
   69MOL    H1621912   3.120   7.821   0.849 -0.7736  1.5965  1.8658
   69MOL    H1721913   3.516   7.564   0.678 -0.6581  0.4664 -0.4394
   69MOL    C1821914   3.340   7.724   0.540  0.6132 -0.2012 -0.1201
   69MOL    C1921915   3.213   7.759   0.468 -0.1126 -0.4560  0.2788
   69MOL    C2021916   3.109   7.832   0.560 -0.1959 -0.5996  0.5060
   69MOL    O2121917   3.022   7.766   0.613  0.1847 -0.4307  0.6790
   69MOL    N2221918   3.103   0.113   0.567  0.0821  0.3420 -0.5155
   69MOL    C2321919   3.003   0.186   0.644  0.9298 -0.1044 -0.0337
   69MOL    C2421920   3.195   0.197   0.486  0.0206 -0.3927  0.3275
   69MOL    H2521921   3.406   7.807   0.517  0.6759 -0.1290  0.3098
   69MOL    H2621922   3.380   7.633   0.497 -0.7001 -1.6289  1.5633
   69MOL    H2721923   3.229   7.828   0.385  0.1241  0.4227  1.0451
   69MOL    H2821924   3.024   0.194   0.751  1.8332  0.5711 -0.2505
   69MOL    H2921925   2.972   0.281   0.601  0.9685  0.7211  1.7082
   69MOL    H3021926   2.915   0.122   0.643  0.3458  0.6872 -0.7949
   69MOL    H3121927   3.183   0.302   0.514  1.5845 -0.5243  1.6340
   69MOL    H3221928   3.174   0.181   0.381 -1.6861 -2.1423  0.9013
   69MOL    H3321929   3.297   0.167   0.511 -0.2782 -1.0934  0.7274
   69MOL    C3421930   3.146   7.631   0.401 -0.5710 -0.3870 -0.3101
   69MOL    C3521931   3.214   7.607   0.263  0.6383 -0.0721  0.8358
   69MOL    C3621932   3.167   7.717   0.165 -0.0859  0.1121 -0.1258
   69MOL    O3721933   3.045   7.738   0.146  0.0179 -0.0921 -0.1478
   69MOL    N3821934   3.257   7.783   0.095  0.4968  0.4194  0.2113
   69MOL    C3921935   3.400   7.771   0.114  0.5714  0.0074  0.0975
   69MOL    C4021936   3.215   0.041   0.001  0.2894  0.0502 -0.4629
   69MOL    H4121937   3.137   7.540   0.460 -1.1910 -1.0392 -1.3993
   69MOL    H4221938   3.042   7.661   0.391 -0.9316 -1.2393  0.8843
   69MOL    H4321939   3.322   7.603   0.276  0.7635  1.7438  0.3844
   69MOL    H4421940   3.456   7.835   0.046  0.0920 -1.8685 -2.1492
   69MOL    H4521941   3.429   7.803   0.214 -0.5111 -0.7553  0.6709
   69MOL    H4621942   3.430   7.668   0.095  0.6561  0.2095 -0.8826
   69MOL    H4721943   3.161   7.843   7.775 -0.8569  0.4559  0.0458
   69MOL    H4821944   3.295   0.092   7.800  2.2664 -1.2059  1.2190
   69MOL    H4921945   3.147   0.110   0.052 -0.6202  0.3928 -2.1004
   69MOL    C5021946   3.168   7.465   0.201  0.1756 -0.1541 -0.1796
   69MOL    C5121947   3.221   7.337   0.272 -1.0183  0.2724  0.4440
   69MOL    C5221948   3.380   7.332   0.302 -0.3064 -0.0980 -0.5177
   69MOL    O5321949   3.452   7.377   0.216  0.4700 -0.1809 -0.0032
   69MOL    N5421950   3.424   7.290   0.420 -0.1945  0.3660 -0.0299
   69MOL    C5521951   3.559   7.313   0.469  0.0989 -0.0165 -0.1415
   69MOL    C5621952   3.341   7.217   0.515 -0.3658 -0.2376 -0.0984
   69MOL    H5721953   3.061   7.449   0.192  0.4720 -0.8491 -2.9866
   69MOL    H5821954   3.196   7.459   0.096  1.8998  0.8808  0.2011
   69MOL    H5921955   3.164   7.320   0.364 -0.1461  0.9161  1.1147
   69MOL    H6021956   3.622   7.324   0.380  0.0826 -1.3425 -0.3348
   69MOL    H6121957   3.567   7.400   0.534 -1.3393 -1.4599  2.0135
   69MOL    H6221958   3.601   7.227   0.521 -1.8580 -0.9911 -0.1186
   69MOL    H6321959   3.247   7.270   0.534  0.2414  0.1479  2.0460
   69MOL    H6421960   3.384   7.196   0.613 -1.1641  2.9727  1.0323
   69MOL    H6521961   3.308   7.123   0.472 -2.2332  0.6110 -0.6051
   69MOL    C6621962   3.202   7.211   0.179  0.7981 -0.7021 -0.0472
   69MOL    C6721963   3.057   7.168   0.144 -0.5417 -0.1120  0.2622
   69MOL    C6821964   2.970   7.166   0.276 -0.2490  0.0411  0.2114
   69MOL    O6921965   2.999   7.084   0.364 -0.5067  0.0976 -0.5024
   69MOL    N7021966   2.874   7.258   0.300  0.0138  0.4313  0.2789
   69MOL    C7121967   2.809   7.265   0.433 -0.7068 -0.6299  0.2202
   69MOL    C7221968   2.807   7.334   0.193  0.2862  0.0212  1.1037
   69MOL    H7321969   3.258   7.213   0.085 -0.2786 -0.6266 -0.7048
   69MOL    H7421970   3.236   7.140   0.253 -0.1567  1.8206  2.9209
   69MOL    H7521971   3.032   7.239   0.066  3.4317  2.2835  1.0278
   69MOL    H7621972   2.746   7.353   0.444  2.6446  1.7755  1.0273
   69MOL    H7721973   2.751   7.177   0.461 -1.0842 -0.4217  0.0859
   69MOL    H7821974   2.890   7.277   0.505 -0.8129  0.2637  0.1971
   69MOL    H7921975   2.699   7.318   0.197  0.0385 -0.1414 -3.5796
   69MOL    H8021976   2.823   7.305   0.089  1.6918  0.7858  1.0853
   69MOL    H8121977   2.826   7.439   0.215 -2.2832  1.0368 -1.2617
   69MOL    C8221978   3.058   7.028   0.075 -0.4413  0.5133 -0.4572
   69MOL    C8321979   2.933   6.983   7.847  0.5351  0.4993 -0.1972
   69MOL    C8421980   2.913   6.828   7.842 -0.0308  0.2828  0.1765
   69MOL    O8521981   2.958   6.774   7.739 -0.0996  0.3535 -0.3679
   69MOL    N8621982   2.848   6.764   0.090  0.3148  0.1236 -0.2776
   69MOL    C8721983   2.812   6.825   0.224  0.2744  0.6345  0.3076
   69MOL    C8821984   2.805   6.624   0.077 -0.4503 -0.0617 -0.4540
   69MOL    H8921985   3.143   7.016   0.008 -1.3514 -2.9306 -1.0984
   69MOL    H9021986   3.074   6.951   0.151  3.3904  0.1124 -1.5593
   69MOL    H9121987   2.850   7.025   0.050 -0.0330  1.0520 -1.4329
   69MOL    H9221988   2.896   6.886   0.256 -1.1768  1.8237  1.9161
   69MOL    H9321989   2.711   6.863   0.241 -1.1537 -2.6023 -0.3755
   69MOL    H9421990   2.816   6.748   0.301 -2.9868  1.0584  0.9927
   69MOL    H9521991   2.697   6.606   0.069 -0.7234  0.8837  0.9586
   69MOL    H9621992   2.836   6.564   0.162  0.2954 -0.2203 -0.8357
   69MOL    H9721993   2.862   6.589   7.845  0.7357 -1.3705  0.8429
   69MOL    C9821994   2.924   7.060   7.711 -0.7454  0.4047  0.4600
   69MOL    C9921995   2.803   7.019   7.621  0.2755 -0.9715  0.4623
   69MOL   C10021996   2.819   7.089   7.482 -0.0927  0.2587 -0.2716
   69MOL   O10121997   2.788   7.208   7.465  0.0562 -0.1127 -0.3681
   69MOL   N10221998   2.880   7.016   7.386  0.4241 -0.4602 -0.8525
   69MOL   C10321999   2.909   7.081   7.257 -0.0874  0.2488 -0.0598
   69MOL   C10422000   2.902   6.867   7.401  0.5533  0.0458 -0.2281
   69MOL   H10522001   2.899   7.164   7.734  0.6010  0.2678  2.6116
   69MOL   H10622002   3.021   7.060   7.662  0.7427  0.9397  3.3153
   69MOL   H10722003   2.797   6.911   7.609 -0.6849 -0.8312 -0.3408
   69MOL   H10822004   2.978   7.165   7.261 -1.4949  1.5074 -1.2797
   69MOL   H10922005   2.946   7.007   7.186 -1.8925 -1.4680  0.7323
   69MOL   H11022006   2.815   7.115   7.212  0.4988  2.0172  0.0026
   69MOL   H11122007   2.945   6.824   7.491  3.0776  1.2580 -0.7982
   69MOL   H11222008   2.962   6.836   7.315  0.1408  0.7398 -0.7709
   69MOL   H11322009   2.806   6.816   7.394 -1.0242  2.8079  0.5006
   69MOL   C11422010   2.669   7.053   7.688  0.0749  0.5324  0.2225
   69MOL   C11522011   2.538   6.992   7.632 -0.5312 -0.8967  0.1600
   69MOL   C11622012   2.533   6.837   7.626  0.0983  0.5061  0.2647
   69MOL   O11722013   2.561   6.795   7.519  0.1211  0.2729  0.0618
   69MOL   N11822014   2.482   6.765   7.730 -0.4252  0.4950 -0.2336
   69MOL   C11922015   2.435   6.828   0.006 -0.0342 -0.1310 -0.2715
   69MOL   C12022016   2.463   6.623   7.718  0.2752 -0.1491  0.3150
   69MOL   H12122017   2.671   7.003   7.785 -1.2405 -0.2478 -0.1219
   69MOL   H12222018   2.655   7.160   7.704 -0.0189  0.4019  1.0431
   69MOL   H12322019   2.475   7.013   7.717  0.5693  4.1318 -0.1393
   69MOL   H12422020   2.339   6.874   7.839  1.5035  3.0538 -0.5567
   69MOL   H12522021   2.408   6.750   0.077 -1.4756  0.6429  0.0399
   69MOL   H12622022   2.504   6.894   0.058 -0.7879  0.0323  0.5181
   69MOL   H12722023   2.491   6.557   7.801 -2.6554 -0.0403  1.4565
   69MOL   H12822024   2.513   6.585   7.630 -0.0815  2.8311 -1.2374
   69MOL   H12922025   2.359   6.607   7.689  0.6610 -1.2084 -0.5173
   69MOL   C13022026   2.484   7.073   7.510 -0.9174  0.1086  0.2907
   69MOL   C13122027   2.330   7.069   7.497 -0.2925  0.1944 -0.0306
   69MOL   C13222028   2.281   7.077   7.351 -0.1963 -0.6309  0.1899
   69MOL   O13322029   2.275   7.188   7.290 -0.0095 -0.0776 -0.2431
   69MOL   N13422030   2.233   6.969   7.289 -0.7291 -0.2005  0.0721
   69MOL   C13522031   2.241   6.836   7.341  0.0304 -0.2973 -0.6167
   69MOL   C13622032   2.175   6.970   7.149  0.1203  0.0907  0.0245
   69MOL   H13722033   2.515   7.176   7.530 -0.9869 -0.0224  1.1069
   69MOL   H13822034   2.540   7.031   7.426 -0.0196 -1.2104  1.5247
   69MOL   H13922035   2.301   6.971   7.536  0.2908  0.2074  0.4426
   69MOL   H14022036   2.187   6.825   7.435  1.5611  0.9079  0.4182
   69MOL   H14122037   2.203   6.761   7.270  2.3137 -0.4071 -1.7713
   69MOL   H14222038   2.347   6.817   7.358 -0.0610  0.4943  0.8814
   69MOL   H14322039   2.153   7.070   7.111 -0.8304  0.2097  0.8915
   69MOL   H14422040   2.086   6.907   7.143  0.8801 -1.0380  0.2717
   69MOL   H14522041   2.236   6.919   7.074  0.2502 -0.5209  0.5443
   69MOL   C14622042   2.250   7.166   7.584  0.5837  0.4381 -0.4457
   69MOL   C14722043   2.103   7.121   7.605  0.5711  0.7235  0.0338
   69MOL   C14822044   2.017   7.240   7.651 -0.2530  0.1362 -0.1482
   69MOL   O14922045   2.027   7.267   7.771  0.2307  0.0287 -0.3245
   69MOL   N15022046   1.926   7.296   7.564 -0.2485  0.7607 -0.2335
   69MOL   C15122047   1.856   7.415   7.612  0.2302  0.0448  0.3639
   69MOL   C15222048   1.921   7.269   7.418 -0.0705  0.5524 -0.3224
   69MOL   H15322049   2.301   7.167   7.681  1.8612 -0.3081 -1.1007
   69MOL   H15422050   2.264   7.265   7.541 -1.5249  0.8577 -0.2321
   69MOL   H15522051   2.066   7.094   7.506  2.1277  2.6384 -1.0970
   69MOL   H15622052   1.751   7.402   7.587  0.3853 -0.6991  0.0907
   69MOL   H15722053   1.873   7.460   7.711 -0.9258  0.2580  0.4715
   69MOL   H15822054   1.887   7.493   7.543 -0.3113  0.0093  0.0786
   69MOL   H15922055   1.865   7.176   7.405  0.9529 -0.0645 -0.3023
   69MOL   H16022056   2.015   7.261   7.364  0.3202  2.6325  0.0063
   69MOL   H16122057   1.862   7.348   7.372 -1.8664  0.0815  1.0783
   69MOL   C16222058   2.087   7.002   7.704  0.0632 -0.0665  0.1241
   69MOL   C16322059   1.948   6.933   7.714  0.7554 -0.2869 -0.4466
   69MOL   C16422060   1.921   6.882   0.001 -0.0956 -0.0997 -1.0671
   69MOL   O16522061   1.959   6.767   0.033 -0.8096  0.0419  0.0705
   69MOL   N16622062   1.860   6.964   0.089 -0.1803 -0.2312  0.0788
   69MOL   C16722063   1.803   7.100   0.065  0.1072  0.0029 -0.9241
   69MOL   C16822064   1.849   6.934   0.231 -0.9322  0.1866  0.0083
   69MOL   H16922065   2.159   6.924   7.679 -0.0376  0.5939 -2.4077
   69MOL   H17022066   2.120   7.035   7.802  1.3639 -2.0978  0.3863
   69MOL   H17122067   1.878   7.010   7.683  3.8631  2.4505 -0.9512
   69MOL   H17222068   1.719   7.127   0.129  0.0976  0.1408 -0.9946
   69MOL   H17322069   1.878   7.179   0.075 -0.8736  0.9294 -0.8000
   69MOL   H17422070   1.765   7.118   7.818 -2.1986  1.1880  0.1101
   69MOL   H17522071   1.747   6.917   0.265 -0.3827 -0.9407  1.1663
   69MOL   H17622072   1.914   6.997   0.292  2.1565 -2.1019 -0.7885
   69MOL   H17722073   1.904   6.844   0.259 -0.5030  0.7195  0.8966
   69MOL   C17822074   1.941   6.813   7.613 -0.2602  0.0260 -1.1521
   69MOL   C17922075   1.789   6.780   7.574  0.1783  0.0770 -0.2271
   69MOL   C18022076   1.788   6.637   7.516 -0.1048  0.0970  0.1035
   69MOL   O18122077   1.821   6.620   7.398  0.5186 -0.6335  0.1724
   69MOL   N18222078   1.755   6.531   7.594 -0.2032 -0.5255 -0.1514
   69MOL   C18322079   1.810   6.396   7.555  0.5989  0.2402  0.1400
   69MOL   C18422080   1.680   6.549   7.722 -0.5580  0.1765  0.3210
   69MOL   H18522081   1.999   6.836   7.524  1.3710 -0.6390 -0.2813
   69MOL   H18622082   1.989   6.726   7.657 -1.6537 -0.5278 -0.7067
   69MOL   H18722083   1.730   6.788   7.666  0.5689  0.6596 -0.0225
   69MOL   H18822084   1.874   6.396   7.467 -0.4364 -0.2285 -0.6296
   69MOL   H18922085   1.860   6.345   7.638 -0.8337 -0.9356  0.3115
   69MOL   H19022086   1.723   6.335   7.531  0.6130  0.3419 -0.1634
   69MOL   H19122087   1.606   6.626   7.699  1.9934  2.3796 -0.7065
   69MOL   H19222088   1.744   6.566   7.808  1.6565  1.2448 -1.4715
   69MOL   H19322089   1.629   6.457   7.751  0.1247 -0.8343 -1.5750
   69MOL   C19422090   1.745   6.886   7.473  0.1655  0.4426  0.5921
   69MOL   C19522091   1.601   6.936   7.479  0.3864 -0.3093 -0.1040
   69MOL   C19622092   1.566   7.007   7.341  0.0310 -0.5761  0.2966
   69MOL   O19722093   1.603   7.124   7.322  0.4685  0.1575  0.2804
   69MOL   N19822094   1.489   6.941   7.248 -0.7289  0.3128 -0.2142
   69MOL   C19922095   1.467   6.796   7.238 -0.0317 -0.2678  0.5558
   69MOL   C20022096   1.418   7.008   7.145  0.0226 -0.9849 -0.1832
   69MOL   H20122097   1.807   6.976   7.475  1.2933 -0.2880 -0.5873
   69MOL   H20222098   1.775   6.839   7.379  2.0298 -0.2008  1.4924
   69MOL   H20322099   1.538   6.847   7.494 -2.6637  1.9436  1.0605
   69MOL   H20422100   1.440   6.760   7.139 -1.6094  1.1786  0.4414
   69MOL   H20522101   1.558   6.744   7.268 -0.1045 -0.3816  0.5793
   69MOL   H20622102   1.391   6.763   7.308 -0.2096  0.0015  0.4872
   69MOL   H20722103   1.314   7.018   7.176 -0.6831 -0.2242 -2.6395
   69MOL   H20822104   1.409   6.954   7.051 -2.7510 -0.0976 -0.4607
   69MOL   H20922105   1.445   7.113   7.126  0.5069 -1.0110  0.3415
   69MOL   C21022106   1.576   7.037   7.595  0.7232 -0.2990  0.3961
   69MOL   C21122107   1.426   7.082   7.618  0.2187 -0.5187 -0.7665
   69MOL   C21222108   1.425   7.193   7.730  0.0719 -0.4191 -0.1303
   69MOL   O21322109   1.469   7.164   7.844  0.2771  0.3872  0.3788
   69MOL   N21422110   1.360   7.312   7.701 -0.5048 -0.8453  0.4575
   69MOL   C21522111   1.307   7.363   7.566 -0.3303  0.6828 -0.0555
   69MOL   C21622112   1.306   7.389   7.810  0.0279 -0.1571  0.3643
   69MOL   H21722113   1.614   7.000   7.690  0.2374 -0.2156  0.6245
   69MOL   H21822114   1.641   7.122   7.574 -1.6058  1.2550 -0.7064
   69MOL   H21922115   1.384   7.118   7.524  1.2410 -1.0487 -1.4305
   69MOL   H22022116   1.230   7.291   7.537 -0.4337  0.3655  1.0017
   69MOL   H22122117   1.261   7.462   7.577  0.7922  1.1161  0.8257
   69MOL   H22222118   1.386   7.360   7.491 -0.2238  2.3130 -0.0244
   69MOL   H22322119   1.317   7.496   7.789 -0.1471 -0.1586  0.2654
   69MOL   H22422120   1.356   7.368   0.051  1.1612 -0.1314 -0.2165
   69MOL   H22522121   1.200   7.369   7.827  0.2982 -1.2197  0.8192
   69MOL   C22622122   1.336   6.961   7.668  0.3813  0.7054  0.0157
   69MOL   C22722123   1.179   6.965   7.643 -0.1748 -0.3332 -0.2228
   69MOL   C22822124   1.090   7.045   7.745 -0.2452 -0.4012 -0.3488
   69MOL   O22922125   1.014   7.132   7.697 -0.5006  0.0955 -0.3310
   69MOL   N23022126   1.105   7.024   0.029  0.1559  0.0183 -1.1462
   69MOL   C23122127   1.067   7.131   0.119  0.1640 -0.0010  0.5250
   69MOL   C23222128   1.143   6.896   0.087  0.2701  0.3301  0.0130
   69MOL   H23322129   1.376   6.870   7.625  1.0112  1.6884 -1.5397
   69MOL   H23422130   1.363   6.930   7.769  0.4614 -2.3034 -0.8947
   69MOL   H23522131   1.164   7.028   7.555 -1.8786 -3.0540 -1.9396
   69MOL   H23622132   1.147   7.204   0.108 -2.3240  2.4857 -1.7824
   69MOL   H23722133   0.976   7.185   0.094 -0.9136 -1.8480  0.2977
   69MOL   H23822134   1.059   7.102   0.224 -1.1202  0.8421  0.6705
   69MOL   H23922135   1.182   6.815   0.025  0.4693 -0.1696  0.7874
   69MOL   H24022136   1.047   6.855   0.116  0.8929 -0.1418  1.4318
   69MOL   H24122137   1.207   6.906   0.174 -0.0562 -0.1354  0.3073
   69MOL   C24222138   1.123   6.823   7.609 -1.1281  0.1604 -0.5228
   69MOL   C24322139   0.983   6.823   7.549  0.1611  0.5685  0.3938
   69MOL   C24422140   0.869   6.827   7.651  0.8541  0.6949 -0.2975
   69MOL   O24522141   0.883   6.757   7.755  0.1540 -0.0962 -0.5775
   69MOL   N24622142   0.764   6.907   7.631 -0.2496 -0.2661  0.1836
   69MOL   C24722143   0.645   6.868   7.707  0.0030 -0.0677 -0.6309
   69MOL   C24822144   0.752   7.026   7.535  0.7752  0.9035  0.3718
   69MOL   H24922145   1.194   6.781   7.537 -1.6564 -1.2873 -0.2216
   69MOL   H25022146   1.123   6.753   7.693  1.4060  1.2769  0.4678
   69MOL   H25122147   0.988   6.911   7.485 -0.0599 -0.9414 -1.7629
   69MOL   H25222148   0.570   6.947   7.712 -0.5259 -0.5808 -0.2712
   69MOL   H25322149   0.584   6.798   7.650 -0.3747 -0.9370  0.7997
   69MOL   H25422150   0.661   6.832   7.808  2.3106 -0.2896 -1.0598
   69MOL   H25522151   0.646   7.035   7.511  0.7840 -3.1457 -1.7178
   69MOL   H25622152   0.814   7.018   7.445  0.4885  0.2139  0.2316
   69MOL   H25722153   0.784   7.114   7.590  6.4191 -1.5844  1.3484
   69MOL   C25822154   0.970   6.707   7.448  0.4817  0.6261 -0.6129
   69MOL   C25922155   1.032   6.723   7.297  0.4708 -0.4543 -0.3607
   69MOL   C26022156   0.960   6.836   7.227 -0.4205 -0.4688  0.3831
   69MOL   O26122157   1.034   6.934   7.199  0.3639  0.4932  0.4965
   69MOL   N26222158   0.827   6.823   7.204 -0.4041 -0.1117 -0.3038
   69MOL   C26322159   0.740   6.709   7.223 -0.4652 -0.3136 -0.5568
   69MOL   C26422160   0.768   6.938   7.128 -0.1550  0.6388  0.0481
   69MOL   H26522161   1.015   6.615   7.486  0.5475  1.4527  1.3677
   69MOL   H26622162   0.863   6.688   7.442 -0.0277  2.6275  1.1124
   69MOL   H26722163   1.136   6.755   7.311  0.4456 -0.3768 -0.3511
   69MOL   H26822164   0.697   6.716   7.322 -1.1088 -0.0371 -0.8502
   69MOL   H26922165   0.648   6.715   7.165 -0.7674 -1.1595 -0.1627
   69MOL   H27022166   0.793   6.618   7.194 -0.9050 -0.3352 -1.3170
   69MOL   H27122167   0.786   6.921   7.022 -0.4847  0.9577 -0.0588
   69MOL   H27222168   0.791   7.037   7.169  0.0342  1.1450 -1.2619
   69MOL   H27322169   0.660   6.928   7.124 -0.1517  0.7778 -0.4364
   69MOL   C27422170   1.051   6.597   7.207  0.3509  0.6069  0.4319
   69MOL   C27522171   1.187   6.526   7.203 -0.0734  0.0739  0.4669
   69MOL   C27622172   1.176   6.413   7.095  0.0635  0.1726 -0.7198
   69MOL   O27722173   1.125   6.311   7.131 -0.0340  0.0966  1.0781
   69MOL   N27822174   1.218   6.431   6.969  0.4727  0.0407  0.4770
   69MOL   C27922175   1.273   6.559   6.924 -0.5407  0.2067 -0.4520
   69MOL   C28022176   1.232   6.320   6.872  0.2821  0.1232  0.6060
   69MOL   H28122177   0.987   6.522   7.253 -1.3281  1.8411  0.1380
   69MOL   H28222178   1.019   6.606   7.103 -1.5876 -0.7182  0.8954
   69MOL   H28322179   1.246   6.612   7.171 -3.9361  2.5335 -0.3733
   69MOL   H28422180   1.197   6.637   6.925 -2.5606 -1.7172 -0.0831
   69MOL   H28522181   1.373   6.576   6.963 -0.6096 -1.4551  0.5257
   69MOL   H28622182   1.293   6.545   6.818  1.5297  3.9595 -0.6470
   69MOL   H28722183   1.279   6.336   6.775  1.7903 -1.4753  1.0249
   69MOL   H28822184   1.131   6.293   6.842  0.0760  0.4301  1.0230
   69MOL   H28922185   1.277   6.226   6.906 -1.0793  0.1196  2.4588
   69MOL   C29022186   1.226   6.478   7.347 -0.0646  0.5196 -0.5952
   69MOL   C29122187   1.352   6.384   7.362  0.0602 -0.3799  0.1263
   69MOL   C29222188   1.357   6.325   7.510  0.6953 -0.5899 -0.0981
   69MOL   O29322189   1.415   6.382   7.599  0.2097  0.0216 -0.5634
   69MOL   N29422190   1.289   6.212   7.538 -0.0370 -0.3493  0.8408
   69MOL   C29522191   1.232   6.121   7.433  0.4266  0.7981 -0.2933
   69MOL   C29622192   1.275   6.169   7.678  0.1270  0.5541 -1.1053
   69MOL   H29722193   1.244   6.571   7.402 -0.5073  0.6040 -0.5877
   69MOL   H29822194   1.138   6.428   7.389  0.0418 -0.8725 -1.9955
   69MOL   H29922195   1.344   6.304   7.288 -0.0419  0.3440 -0.6625
   69MOL   H30022196   1.311   6.091   7.364  0.0660 -3.0620  0.8722
   69MOL   H30122197   1.191   6.033   7.481  0.9182  0.8501  0.2292
   69MOL   H30222198   1.154   6.167   7.372 -0.0575  2.1751  1.3443
   69MOL   H30322199   1.370   6.133   7.715 -0.6414  0.3391  0.7231
   69MOL   H30422200   1.209   6.083   7.690 -0.5669  1.2583  0.2317
   69MOL   H30522201   1.231   6.249   7.738 -0.9833 -0.3388 -0.7138
   69MOL   C30622202   1.482   6.461   7.331 -0.3896  0.0792 -0.4695
   69MOL   C30722203   1.601   6.374   7.286  0.0608  0.1688  0.2447
   69MOL   C30822204   1.586   6.321   7.137 -0.7342 -0.8237 -0.0959
   69MOL   O30922205   1.496   6.369   7.070  0.0346 -0.1224  0.2236
   69MOL   N31022206   1.666   6.213   7.101 -0.5266 -0.1448 -0.5779
   69MOL   C31122207   1.777   6.168   7.188 -0.0160  0.4230  0.1777
   69MOL   C31222208   1.653   6.154   6.968  0.2760 -0.0305 -0.2641
   69MOL   H31322209   1.468   6.528   7.246  0.2022 -0.7743 -1.2534
   69MOL   H31422210   1.515   6.528   7.410  0.3782 -2.9436  1.8452
   69MOL   H31522211   1.693   6.433   7.280  0.1759  0.0163  0.5100
   69MOL   H31622212   1.843   6.113   7.120  0.3539 -0.9094  1.6021
   69MOL   H31722213   1.835   6.244   7.240 -1.0296  0.2249  1.6048
   69MOL   H31822214   1.728   6.091   7.246  2.9768 -0.1146  2.1107
   69MOL   H31922215   1.678   6.224   6.888  2.8310  0.8676  1.2685
   69MOL   H32022216   1.557   6.104   6.965  0.6037 -0.5866 -2.1485
   69MOL   H32122217   1.722   6.070   6.959  0.0314 -0.2625  0.0302
   69MOL   H32222218   1.619   6.293   7.357 -0.9516  0.1434  0.4736
   70MOL     C122219   3.935   1.645   5.794 -0.2227 -0.3609 -0.2295
   70MOL     C222220   4.061   1.698   5.713 -0.3696 -0.4571 -0.1927
   70MOL     C322221   4.047   1.660   5.564 -0.4896  0.3578 -0.7293
   70MOL     O422222   4.065   1.546   5.519 -0.8911 -0.0152  0.5757
   70MOL     N522223   4.023   1.759   5.475  0.3563 -0.0315 -0.4049
   70MOL     C622224   3.961   1.883   5.517  0.0386  0.1791 -0.4978
   70MOL     C722225   4.079   1.752   5.339  0.5342  0.0722  0.1900
   70MOL     H822226   3.954   1.642   5.901  1.0983 -0.8305 -0.4633
   70MOL     H922227   3.903   1.543   5.769 -1.4931 -0.2820  1.0373
   70MOL    H1022228   4.066   1.806   5.730  2.4371 -0.7240  1.0100
   70MOL    H1122229   3.888   1.906   5.439 -0.3199  0.0660 -0.1965
   70MOL    H1222230   3.907   1.883   5.612 -2.8515 -2.2711 -2.0692
   70MOL    H1322231   4.045   1.952   5.521  0.4583 -0.4276  1.9263
   70MOL    H1422232   4.178   1.707   5.334 -0.3978 -1.8831 -1.7027
   70MOL    H1522233   4.074   1.851   5.293 -1.0897 -0.1336 -0.1242
   70MOL    H1622234   4.014   1.686   5.280 -1.1585  1.2220  0.7115
   70MOL    H1722235   3.842   1.697   5.770  0.0027  0.6305  1.0668
   70MOL    C1822236   4.193   1.635   5.764  0.0758 -0.0034  0.3282
   70MOL    C1922237   4.296   1.751   5.766  0.1705  0.5975 -0.0919
   70MOL    C2022238   4.438   1.696   5.755 -0.0900  0.5231  0.0548
   70MOL    O2122239   4.501   1.668   5.863 -0.5678  0.8321  0.2728
   70MOL    N2222240   4.494   1.674   5.630  1.1561  0.1321  0.1838
   70MOL    C2322241   4.635   1.620   5.613  0.0786 -0.0006 -0.3512
   70MOL    C2422242   4.416   1.673   5.505  0.7564  0.0541 -0.3163
   70MOL    H2522243   4.193   1.590   5.864  1.3433  0.1187  0.3865
   70MOL    H2622244   4.214   1.550   5.700  0.0418 -0.3074  0.7139
   70MOL    H2722245   4.282   1.821   5.683 -0.9939  0.4324 -0.0478
   70MOL    H2822246   4.715   1.684   5.652  0.2449 -1.2402  1.4200
   70MOL    H2922247   4.657   1.520   5.649  0.4185 -0.7351 -2.5280
   70MOL    H3022248   4.667   1.627   5.509  0.1509  0.7722 -0.2802
   70MOL    H3122249   4.378   1.576   5.471 -1.4511 -0.0547  2.3349
   70MOL    H3222250   4.483   1.714   5.429 -0.4488  0.3427 -1.2331
   70MOL    H3322251   4.335   1.746   5.507  0.3342 -0.4356  1.0943
   70MOL    C3422252   4.269   1.834   5.896 -0.1003  0.6272  0.6308
   70MOL    C3522253   4.323   1.976   5.882  0.0764 -0.1406  0.4480
   70MOL    C3622254   4.342   2.020   6.032 -0.2856  0.4069  0.0649
   70MOL    O3722255   4.243   2.033   6.101  0.3082  0.0708  0.1454
   70MOL    N3822256   4.467   2.050   6.082  0.3172 -0.6775 -0.2700
   70MOL    C3922257   4.589   1.995   6.022 -0.4466 -0.3458  0.3744
   70MOL    C4022258   4.478   2.128   6.204  0.1998 -0.6100  0.1491
   70MOL    H4122259   4.161   1.847   5.907 -0.5970 -1.1577 -1.7086
   70MOL    H4222260   4.309   1.781   5.981 -2.8269 -0.6100  1.1925
   70MOL    H4322261   4.422   1.985   5.837  0.6224 -2.6625  1.0741
   70MOL    H4422262   4.671   1.979   6.092 -0.1141 -0.7848 -0.1118
   70MOL    H4522263   4.566   1.900   5.974 -1.6035 -1.3535  2.8437
   70MOL    H4622264   4.621   2.066   5.945  0.4444 -1.8896 -0.7091
   70MOL    H4722265   4.576   2.174   6.219 -0.1618  0.3438 -0.3540
   70MOL    H4822266   4.458   2.060   6.287  0.1294 -1.4217 -0.5348
   70MOL    H4922267   4.394   2.198   6.207  0.1707 -0.6239 -0.5037
   70MOL    C5022268   4.229   2.075   5.800  0.2609 -0.3009  0.1674
   70MOL    C5122269   4.256   2.231   5.818  0.1017  0.0230  0.0971
   70MOL    C5222270   4.156   2.318   5.740 -0.5580 -0.1637  0.3769
   70MOL    O5322271   4.137   2.283   5.621 -0.0941 -0.1972  0.4700
   70MOL    N5422272   4.094   2.423   5.798  0.4381  0.3610  0.0122
   70MOL    C5522273   4.029   2.526   5.710 -0.1785  0.6642  0.4816
   70MOL    C5622274   4.073   2.431   5.942  0.0198 -0.4803  0.3513
   70MOL    H5722275   4.227   2.044   5.696 -1.3822 -0.6735  0.3116
   70MOL    H5822276   4.134   2.072   5.852  0.7423 -1.4468  0.9882
   70MOL    H5922277   4.241   2.258   5.923 -0.3090 -1.3902  0.4037
   70MOL    H6022278   4.088   2.526   5.619 -1.8484  2.1173 -0.6104
   70MOL    H6122279   3.930   2.485   5.690  0.5170 -0.8186 -0.0611
   70MOL    H6222280   4.028   2.626   5.751 -0.4935  1.6675 -1.9087
   70MOL    H6322281   3.997   2.370   5.989 -2.8131 -0.0585 -3.4195
   70MOL    H6422282   4.036   2.530   5.968  0.6173  0.1864 -1.2862
   70MOL    H6522283   4.163   2.417   6.002 -0.7965  0.4569  1.8068
   70MOL    C6622284   4.401   2.267   5.770  0.0960  0.0085 -0.1679
   70MOL    C6722285   4.447   2.420   5.808  0.2800  0.3103 -0.0535
   70MOL    C6822286   4.581   2.449   5.738  0.5071  0.0221  0.3297
   70MOL    O6922287   4.665   2.361   5.763  0.2944  0.4775 -0.5258
   70MOL    N7022288   4.608   2.561   5.664  0.6692 -0.7415  0.0283
   70MOL    C7122289   4.740   2.591   5.622 -0.2122  0.2485 -0.2010
   70MOL    C7222290   4.500   2.648   5.612 -0.0864 -0.5610 -0.1939
   70MOL    H7322291   4.477   2.201   5.811  1.3933  2.4636  1.5148
   70MOL    H7422292   4.405   2.260   5.662 -1.8976 -0.9852 -0.2042
   70MOL    H7522293   4.368   2.491   5.781  1.4984  0.4886 -3.3082
   70MOL    H7622294   4.756   2.541   5.527  0.2380  0.5947 -0.3140
   70MOL    H7722295   4.754   2.699   5.611  1.9880  0.0047 -0.0992
   70MOL    H7822296   4.809   2.562   5.702  0.1524  1.3608 -0.0943
   70MOL    H7922297   4.532   2.716   5.533  0.0146 -0.1499  0.1985
   70MOL    H8022298   4.470   2.714   5.693  2.9960  0.7653 -0.0495
   70MOL    H8122299   4.419   2.591   5.567 -0.3114  0.4527 -1.0866
   70MOL    C8222300   4.469   2.418   5.969  0.2968  0.4993  0.5538
   70MOL    C8322301   4.499   2.559   6.015  0.3396  0.6573  0.2991
   70MOL    C8422302   4.559   2.537   6.162 -0.0400 -0.4225 -0.0488
   70MOL    O8522303   4.486   2.489   6.244  0.1036 -0.3386  0.1233
   70MOL    N8622304   4.690   2.559   6.185  0.6554  0.3171  0.6212
   70MOL    C8722305   4.753   2.508   6.312  0.7819 -0.4978  0.7853
   70MOL    C8822306   4.774   2.612   6.079  0.7431 -0.1928  0.0651
   70MOL    H8922307   4.382   2.371   6.017  0.1650 -1.1569 -1.2214
   70MOL    H9022308   4.553   2.356   6.002 -0.7280 -0.2814  1.7781
   70MOL    H9122309   4.562   2.606   5.939  1.2547 -0.7004  0.2020
   70MOL    H9222310   4.797   2.410   6.290  0.9005  0.1632 -2.2342
   70MOL    H9322311   4.833   2.575   6.343  0.4628  0.9707 -1.4115
   70MOL    H9422312   4.685   2.491   6.395 -0.7163  0.7701 -0.1501
   70MOL    H9522313   4.880   2.618   6.101  0.4102 -0.3171  1.7461
   70MOL    H9622314   4.750   2.718   6.072  0.5422 -0.1369  1.5602
   70MOL    H9722315   4.755   2.548   5.992  0.6746 -1.5815  1.0901
   70MOL    C9822316   4.364   2.649   6.020  0.4793 -0.8764 -0.2603
   70MOL    C9922317   4.371   2.780   6.104 -0.2605 -0.0669 -0.0727
   70MOL   C10022318   4.236   2.848   6.082 -0.6381  0.1776 -0.2260
   70MOL   O10122319   4.205   2.900   5.972 -0.3017  0.3561 -0.1482
   70MOL   N10222320   4.147   2.844   6.185 -0.2022  0.3370 -0.2512
   70MOL   C10322321   4.160   2.782   6.324  0.2983  0.6950  0.1439
   70MOL   C10422322   4.026   2.925   6.170 -0.3477 -0.0141 -0.0687
   70MOL   H10522323   4.344   2.678   5.917 -2.2775  0.8086  0.6933
   70MOL   H10622324   4.280   2.589   6.054  0.5310 -1.1122 -0.5498
   70MOL   H10722325   4.376   2.747   6.208 -2.6364 -1.4609 -0.3585
   70MOL   H10822326   4.059   2.768   6.364  0.7150  1.2765  1.4127
   70MOL   H10922327   4.205   2.683   6.332 -0.1464  0.3869 -0.9725
   70MOL   H11022328   4.197   2.850   6.400 -1.6285  0.2735  1.5041
   70MOL   H11122329   4.010   2.982   6.261 -2.2788  0.7858 -0.8968
   70MOL   H11222330   3.945   2.855   6.150 -0.6351 -0.5410  2.7220
   70MOL   H11322331   4.031   3.005   6.097 -0.4205  0.8959  0.9043
   70MOL   C11422332   4.482   2.873   6.066  0.3356 -0.0442 -0.4405
   70MOL   C11522333   4.524   2.983   6.165 -0.0845  0.1974 -0.5433
   70MOL   C11622334   4.630   3.081   6.112  0.1174  0.2212 -0.1912
   70MOL   O11722335   4.749   3.057   6.140  0.1740  0.0258  0.0253
   70MOL   N11822336   4.598   3.185   6.037 -1.0657 -0.8179 -0.7404
   70MOL   C11922337   4.701   3.284   5.992 -0.1675 -0.7150  0.3961
   70MOL   C12022338   4.460   3.220   6.003 -0.2403 -0.3184  0.2025
   70MOL   H12122339   4.579   2.824   6.055  0.3540 -0.7590  2.5472
   70MOL   H12222340   4.454   2.921   5.972 -1.4903 -0.1059  0.0557
   70MOL   H12322341   4.429   3.034   6.185 -0.5706 -0.6309 -0.6874
   70MOL   H12422342   4.803   3.272   6.030 -0.4315  0.4656  1.4968
   70MOL   H12522343   4.700   3.286   5.883  0.3925 -0.0818  0.3988
   70MOL   H12622344   4.686   3.387   6.025 -0.6693 -0.1341 -1.6241
   70MOL   H12722345   4.457   3.328   6.020 -0.1825 -0.5439  1.6870
   70MOL   H12822346   4.379   3.176   6.062 -1.2960  0.7332 -0.4291
   70MOL   H12922347   4.444   3.199   5.897 -0.7339 -1.2466  0.4567
   70MOL   C13022348   4.573   2.913   6.295  0.4453 -0.2769 -1.0275
   70MOL   C13122349   4.602   3.007   6.418 -0.0024  0.1904 -0.4203
   70MOL   C13222350   4.723   2.950   6.501 -0.1160 -1.1402  0.1159
   70MOL   O13322351   4.705   2.846   6.565 -0.0084  0.2167 -0.3226
   70MOL   N13422352   4.839   3.016   6.501 -0.1638  0.4051  0.4088
   70MOL   C13522353   4.884   3.136   6.425  1.3772  0.1595 -0.3203
   70MOL   C13622354   4.947   2.972   6.596 -0.8429 -0.3346 -0.4663
   70MOL   H13722355   4.512   2.826   6.318  0.7246 -0.7171 -1.9037
   70MOL   H13822356   4.668   2.864   6.272  0.4010 -0.8529  0.0377
   70MOL   H13922357   4.638   3.101   6.376  1.7960  0.1618  0.9952
   70MOL   H14022358   4.921   3.105   6.327  1.0779 -2.1944  0.2851
   70MOL   H14122359   4.808   3.214   6.429 -0.8094 -2.0147  2.1579
   70MOL   H14222360   4.960   3.189   6.482  0.3070  2.3156 -0.8475
   70MOL   H14322361   4.954   2.864   6.609  2.2193 -0.2018 -0.7449
   70MOL   H14422362   4.931   3.019   6.693  0.5906 -1.8652  0.5272
   70MOL   H14522363   5.045   2.983   6.550 -0.7278  0.4783 -0.0343
   70MOL   C14622364   4.465   3.014   6.501  0.0404  0.2659 -0.5741
   70MOL   C14722365   4.398   3.153   6.539 -0.3239 -0.4174 -0.3850
   70MOL   C14822366   4.350   3.230   6.415  0.0647 -0.6572 -0.2525
   70MOL   O14922367   4.432   3.280   6.337 -0.3889 -0.0511  0.3657
   70MOL   N15022368   4.218   3.228   6.383 -0.9266  0.1132 -0.2525
   70MOL   C15122369   4.165   3.261   6.255  0.2940 -0.0359 -0.2012
   70MOL   C15222370   4.112   3.173   6.473 -0.5421  0.9204  0.4994
   70MOL   H15322371   4.392   2.952   6.448 -0.0727  0.3877 -0.5600
   70MOL   H15422372   4.480   2.955   6.592  0.4834 -1.8318 -1.9878
   70MOL   H15522373   4.312   3.135   6.604  0.4614 -2.0519  0.2293
   70MOL   H15622374   4.139   3.168   6.205  0.6399 -0.2460  0.0059
   70MOL   H15722375   4.077   3.324   6.268 -1.3106 -1.8202 -2.1275
   70MOL   H15822376   4.239   3.318   6.200 -0.6646  0.7354 -0.7055
   70MOL   H15922377   4.122   3.238   6.560  0.4068  0.0477  1.0514
   70MOL   H16022378   4.137   3.070   6.500 -0.7685  0.3195 -1.4723
   70MOL   H16122379   4.011   3.184   6.434 -0.5409  1.2222  0.5799
   70MOL   C16222380   4.498   3.237   6.619 -0.2266  0.1119 -0.1231
   70MOL   C16322381   4.444   3.289   6.753  0.1334  0.6370 -0.0804
   70MOL   C16422382   4.313   3.387   6.747  0.3593  0.3448  0.2522
   70MOL   O16522383   4.288   3.445   6.641  0.9707 -0.3586 -0.5544
   70MOL   N16622384   4.243   3.414   6.857 -0.7708 -0.2845 -0.0829
   70MOL   C16722385   4.259   3.350   6.988 -0.3282  0.1210  0.3398
   70MOL   C16822386   4.157   3.538   6.865 -0.0297 -0.5379  0.1430
   70MOL   H16922387   4.592   3.183   6.634 -0.0736  0.1664 -0.8526
   70MOL   H17022388   4.525   3.327   6.563  0.4750 -0.1350 -0.1924
   70MOL   H17122389   4.403   3.202   6.805  0.3771  1.2225  1.1214
   70MOL   H17222390   4.287   3.245   6.979 -1.0295 -0.0912  0.5669
   70MOL   H17322391   4.339   3.406   7.036 -0.2867  0.2368  0.1357
   70MOL   H17422392   4.171   3.365   7.051 -1.8826  0.7792 -1.9294
   70MOL   H17522393   4.209   3.630   6.841 -1.0051  0.0391  0.2026
   70MOL   H17622394   4.097   3.552   6.955  1.5795 -2.3129  1.5214
   70MOL   H17722395   4.077   3.524   6.791  1.0675 -2.4668 -0.7126
   70MOL   C17822396   4.557   3.355   6.830  0.2104 -0.2501 -0.1509
   70MOL   C17922397   4.657   3.268   6.897  0.1106  0.0098 -0.2203
   70MOL   C18022398   4.591   3.177   7.005  0.4536 -0.2558 -0.1090
   70MOL   O18122399   4.517   3.236   7.088  0.2464  0.0981  0.4685
   70MOL   N18222400   4.611   3.043   7.002 -0.1525 -0.3505 -1.0357
   70MOL   C18322401   4.580   2.964   7.126 -0.4075 -0.0027  0.0451
   70MOL   C18422402   4.651   2.970   6.882  0.2976  0.0408  1.0450
   70MOL   H18522403   4.607   3.417   6.755  0.4776 -0.1020  0.1467
   70MOL   H18622404   4.521   3.430   6.900  1.5474 -0.5279  0.8536
   70MOL   H18722405   4.714   3.214   6.821  2.6849 -0.0279  1.7029
   70MOL   H18822406   4.502   3.013   7.185 -1.1296 -0.0498 -0.8621
   70MOL   H18922407   4.558   2.859   7.107 -0.2534  0.0528 -0.4398
   70MOL   H19022408   4.668   2.967   7.190 -0.2125 -1.9088 -0.1245
   70MOL   H19122409   4.624   3.020   6.789  3.0381 -2.0246 -0.9350
   70MOL   H19222410   4.588   2.881   6.882 -0.9854  0.9232  1.0513
   70MOL   H19322411   4.757   2.950   6.874 -0.2690 -1.7556 -4.2501
   70MOL   C19422412   4.748   3.370   6.965 -0.1179 -0.7616 -0.6158
   70MOL   C19522413   4.889   3.329   7.016 -0.5614 -0.2598  0.6042
   70MOL   C19622414   4.987   3.284   6.909  0.3674  0.2780  0.4344
   70MOL   O19722415   4.996   3.160   6.889  0.1732  0.0691 -0.3011
   70MOL   N19822416   5.065   3.377   6.844  0.6647  0.0450 -0.7324
   70MOL   C19922417   5.053   3.526   6.857  0.3278  0.0712  0.7054
   70MOL   C20022418   5.148   3.327   6.724  0.2185  0.1973  0.5794
   70MOL   H20122419   4.764   3.461   6.907  0.5843 -0.9616 -0.7394
   70MOL   H20222420   4.697   3.409   7.053  1.7416  2.6532 -0.9356
   70MOL   H20322421   4.945   3.414   7.053  0.1099  0.2653 -1.5734
   70MOL   H20422422   5.097   3.552   6.953 -0.4097 -0.0471  1.0748
   70MOL   H20522423   5.131   3.568   6.792  0.0266  1.5086  1.2524
   70MOL   H20622424   4.958   3.575   6.837  0.0786 -0.4274  0.6601
   70MOL   H20722425   5.181   3.224   6.724 -2.3773 -0.7154 -2.5403
   70MOL   H20822426   5.241   3.382   6.713  0.7197 -0.9042 -0.8378
   70MOL   H20922427   5.087   3.340   6.634 -0.5360 -0.1673  1.0368
   70MOL   C21022428   4.885   3.231   7.143 -0.0602  0.4158  0.1875
   70MOL   C21122429   5.016   3.213   7.225 -0.2636 -0.3638  0.3630
   70MOL   C21222430   4.995   3.094   7.323 -0.1775 -1.0069 -0.2039
   70MOL   O21322431   4.883   3.070   7.369  0.0694  0.1401  0.0520
   70MOL   N21422432   5.106   3.010   7.345  0.7329 -0.1319 -0.2564
   70MOL   C21522433   5.242   3.045   7.313  0.2747  0.0113 -0.4410
   70MOL   C21622434   5.088   2.877   7.405 -0.2172  0.0052  0.4475
   70MOL   H21722435   4.810   3.268   7.213  0.1766 -1.9488  1.7320
   70MOL   H21822436   4.853   3.130   7.118 -1.0799  1.3562 -2.5509
   70MOL   H21922437   5.095   3.198   7.151  0.8117 -1.7714  1.7649
   70MOL   H22022438   5.265   3.081   7.212  2.8248 -0.2077  0.0466
   70MOL   H22122439   5.266   3.127   7.381  1.0889  1.6188 -2.5832
   70MOL   H22222440   5.311   2.964   7.334  0.1812  0.3123  1.0493
   70MOL   H22322441   5.009   2.872   7.480  0.3639  2.0110  1.2450
   70MOL   H22422442   5.174   2.828   7.449  0.1697 -0.3292 -0.6622
   70MOL   H22522443   5.061   2.813   7.321  1.1065 -1.0987  0.8559
   70MOL   C22622444   5.069   3.335   7.303 -0.3270 -0.5433  0.4354
   70MOL   C22722445   4.956   3.422   7.377  0.5139 -0.3592  0.3778
   70MOL   C22822446   4.901   3.542   7.293 -0.1902 -0.5441  1.0565
   70MOL   O22922447   4.985   3.616   7.249 -0.2413  0.3030  0.1652
   70MOL   N23022448   4.769   3.572   7.283 -0.6887  0.7668  0.1981
   70MOL   C23122449   4.731   3.672   7.182 -0.4910  0.3188  0.8404
   70MOL   C23222450   4.652   3.512   7.353 -0.5027 -0.9367  0.9754
   70MOL   H23322451   5.146   3.306   7.374 -2.0353 -2.2946  1.5943
   70MOL   H23422452   5.125   3.400   7.235  1.8079 -0.3442  2.3246
   70MOL   H23522453   4.869   3.362   7.403 -1.3114  2.6193  1.5089
   70MOL   H23622454   4.722   3.776   7.213  0.3265  0.5527  0.3045
   70MOL   H23722455   4.809   3.675   7.106 -1.3431 -0.1308 -0.0713
   70MOL   H23822456   4.648   3.636   7.121  0.7005 -1.4925  0.2397
   70MOL   H23922457   4.664   3.434   7.429 -1.5155  0.7611  2.9278
   70MOL   H24022458   4.576   3.476   7.284 -0.4257 -1.7154  1.2889
   70MOL   H24122459   4.608   3.597   7.406  2.5157  1.2958  0.0172
   70MOL   C24222460   5.014   3.480   7.507 -0.0717 -0.1731 -0.1293
   70MOL   C24322461   5.034   3.384   7.632  0.3770  0.1820 -0.3546
   70MOL   C24422462   4.900   3.338   7.685  1.1360 -0.1193  0.1119
   70MOL   O24522463   4.811   3.427   7.691 -0.3598  0.0453  0.7351
   70MOL   N24622464   4.878   3.207   7.724 -0.1388  0.2769 -0.1489
   70MOL   C24722465   4.972   3.099   7.704 -0.4960  0.2393 -0.3688
   70MOL   C24822466   4.752   3.160   7.782 -0.2337 -0.4235 -0.2796
   70MOL   H24922467   5.108   3.530   7.481  1.6191 -2.2182  1.8387
   70MOL   H25022468   4.946   3.558   7.541 -0.6696 -0.6623 -0.2113
   70MOL   H25122469   5.096   3.301   7.598  0.2964 -0.2317  0.4916
   70MOL   H25222470   4.964   3.014   7.771  1.2983  0.4676  0.1788
   70MOL   H25322471   4.956   3.065   7.602 -0.7789 -4.0882  1.0384
   70MOL   H25422472   5.073   3.136   7.722 -0.0460  0.2377 -2.7429
   70MOL   H25522473   4.700   3.243   7.830  0.5732  0.1270 -0.3600
   70MOL   H25622474   4.755   3.078   7.853 -0.0263  1.2591  1.6936
   70MOL   H25722475   4.690   3.122   7.701 -3.1855  1.0020  1.2230
   70MOL   C25822476   5.095   3.457   7.753 -0.0959 -0.3340  0.0462
   70MOL   C25922477   5.242   3.516   7.723 -0.0225 -0.2190  0.4403
   70MOL   C26022478   5.345   3.411   7.673 -0.2624  0.3875  0.8847
   70MOL   O26122479   5.342   3.296   7.723 -0.1082 -0.0118  0.3697
   70MOL   N26222480   5.423   3.440   7.561  0.2891  0.0233  0.5100
   70MOL   C26322481   5.452   3.579   7.520 -0.6755  0.5303 -0.0544
   70MOL   C26422482   5.486   3.338   7.481  0.4424 -0.3584 -0.1208
   70MOL   H26522483   5.026   3.538   7.776 -0.6151 -0.2693 -1.6230
   70MOL   H26622484   5.099   3.391   7.839 -1.1890 -0.5812 -0.0931
   70MOL   H26722485   5.229   3.585   7.640  0.9600  1.4599  1.6548
   70MOL   H26822486   5.496   3.624   7.610 -0.0815 -1.4103  0.6450
   70MOL   H26922487   5.540   3.584   7.456  0.1227  0.5687  1.0168
   70MOL   H27022488   5.374   3.628   7.462  1.5797  1.4130 -2.4379
   70MOL   H27122489   5.426   3.248   7.494  2.0776 -1.2185  1.7100
   70MOL   H27222490   5.587   3.318   7.515  0.3026 -0.2589  0.3541
   70MOL   H27322491   5.501   3.368   7.377 -2.0968 -0.9630 -0.6864
   70MOL   C27422492   5.297   3.584   7.847 -0.1277 -0.3258  0.7079
   70MOL   C27522493   5.252   3.732   0.005  0.0546 -0.0247  0.2086
   70MOL   C27622494   5.352   3.830   7.779 -0.5049  0.1563 -0.6034
   70MOL   O27722495   5.468   3.835   7.818 -0.2713  0.1163  0.2896
   70MOL   N27822496   5.312   3.904   7.675  0.6541 -0.2790 -0.2019
   70MOL   C27922497   5.407   3.990   7.604 -0.0644  0.2454 -0.7080
   70MOL   C28022498   5.169   3.920   7.635  0.3728  0.1674 -0.0762
   70MOL   H28122499   5.258   3.528   0.078 -2.7144 -2.7008 -1.9808
   70MOL   H28222500   5.406   3.584   7.851 -0.1076  2.0520  1.6392
   70MOL   H28322501   5.158   3.743   7.805  0.3979 -0.5689 -0.5210
   70MOL   H28422502   5.399   3.991   7.496  1.5299 -2.5235 -0.9021
   70MOL   H28522503   5.388   4.093   7.634 -0.2778 -0.5243  1.9225
   70MOL   H28622504   5.515   3.984   7.622  0.0009  3.5735  0.3723
   70MOL   H28722505   5.109   3.830   7.636  0.9702 -0.2315  0.6271
   70MOL   H28822506   5.168   3.958   7.533 -0.8905 -0.0128 -0.1331
   70MOL   H28922507   5.115   3.993   7.695 -0.1718  0.5140 -0.9772
   70MOL   C29022508   5.226   3.776   0.149  1.0777  0.3964  0.9369
   70MOL   C29122509   5.114   3.882   0.187 -0.3285 -0.5677 -0.6705
   70MOL   C29222510   4.968   3.855   0.138 -0.2695 -0.9804  0.0353
   70MOL   O29322511   4.946   3.871   0.021 -0.1490 -0.0395  0.5430
   70MOL   N29422512   4.867   3.832   0.225 -0.4147  0.5530 -0.0246
   70MOL   C29522513   4.882   3.820   0.368  0.1802 -0.1539 -0.0773
   70MOL   C29622514   4.728   3.814   0.179 -0.5175 -0.4474 -0.6991
   70MOL   H29722515   5.215   3.685   0.209  1.6127  1.2477  2.3469
   70MOL   H29822516   5.320   3.815   0.187  1.2409  1.4216 -0.4936
   70MOL   H29922517   5.117   3.869   0.295  1.7038 -0.3254 -0.6818
   70MOL   H30022518   4.912   3.722   0.405 -0.8918 -0.6007 -0.3649
   70MOL   H30122519   4.932   3.902   0.421  0.6567 -0.6618  0.2625
   70MOL   H30222520   4.794   3.844   0.429  1.4127 -1.6334  2.3507
   70MOL   H30322521   4.662   3.788   0.262  0.3629 -2.2704 -0.5597
   70MOL   H30422522   4.727   3.730   0.109 -2.1447 -0.1590 -1.0448
   70MOL   H30522523   4.699   3.901   0.119 -2.2927 -2.0882 -2.2931
   70MOL   C30622524   5.164   4.024   0.161 -0.2586  0.6465  0.4928
   70MOL   C30722525   5.063   4.151   0.161  0.1460  0.0757  0.3859
   70MOL   C30822526   4.986   4.173   0.290  0.0609  0.1771  0.2482
   70MOL   O30922527   5.052   4.145   0.387 -0.2086 -0.0550  0.5704
   70MOL   N31022528   4.861   4.217   0.294  0.7509 -0.3747  0.4157
   70MOL   C31122529   4.788   4.280   0.183  0.1893  0.2879  0.2196
   70MOL   C31222530   4.799   4.222   0.424  0.8127 -0.5875 -0.0757
   70MOL   H31322531   5.252   4.038   0.225 -0.8367  0.7199  1.2699
   70MOL   H31422532   5.198   4.044   0.059  1.9402  3.1829  1.6434
   70MOL   H31522533   5.115   4.244   0.142  1.5862 -0.5203  1.3803
   70MOL   H31622534   4.855   4.345   0.126  0.4695  0.6509  0.9598
   70MOL   H31722535   4.757   4.200   0.115 -0.5956 -0.6684  1.6857
   70MOL   H31822536   4.705   4.334   0.227 -2.4578 -2.8170 -0.7944
   70MOL   H31922537   4.852   4.284   0.496 -0.4622 -1.4628  1.6320
   70MOL   H32022538   4.790   4.121   0.463  0.4245  0.1449  1.7673
   70MOL   H32122539   4.699   4.264   0.419  0.1451 -1.9054  1.8136
   70MOL   H32222540   4.985   4.142   0.084 -1.2836  0.1041  1.8060
   71MOL     C122541   4.509   4.611   3.555 -0.7695 -0.2349  0.3262
   71MOL     C222542   4.528   4.674   3.414 -0.3507  0.1239  0.5044
   71MOL     C322543   4.641   4.605   3.336 -0.1805 -0.2729 -0.4935
   71MOL     O422544   4.745   4.589   3.403 -0.0297 -0.1530  0.6708
   71MOL     N522545   4.617   4.558   3.214 -0.0290  0.0524  0.1237
   71MOL     C622546   4.485   4.561   3.146 -1.2348  0.0441  0.1978
   71MOL     C722547   4.711   4.478   3.153  0.1446  1.1292 -0.4550
   71MOL     H822548   4.465   4.512   3.542 -0.7180  0.0882 -2.4745
   71MOL     H922549   4.450   4.672   3.624 -0.8189  0.2847 -0.1715
   71MOL    H1022550   4.430   4.654   3.370  1.1193 -1.1372 -2.3374
   71MOL    H1122551   4.424   4.651   3.144 -2.5262 -0.8316 -2.7782
   71MOL    H1222552   4.505   4.517   3.048 -0.4555 -0.7832  0.7261
   71MOL    H1322553   4.424   4.485   3.197  0.5793 -1.1130  0.6845
   71MOL    H1422554   4.801   4.537   3.138  2.1250 -1.9366 -1.2746
   71MOL    H1522555   4.690   4.434   3.055 -1.4437  0.3084  0.2410
   71MOL    H1622556   4.729   4.398   3.225 -1.4846  1.0488 -0.1294
   71MOL    H1722557   4.602   4.585   3.605 -0.0972 -1.6830 -1.6434
   71MOL    C1822558   4.553   4.829   3.422 -0.8704  0.5242 -0.2944
   71MOL    C1922559   4.482   4.915   3.308  0.9650 -0.4180  0.4429
   71MOL    C2022560   4.583   5.031   3.262  0.2221 -0.2589 -0.1145
   71MOL    O2122561   4.596   5.133   3.327  0.4035 -0.2757 -0.0989
   71MOL    N2222562   4.649   5.017   3.144  1.2198 -0.0725  0.3202
   71MOL    C2322563   4.712   5.134   3.084  0.8129  0.4830 -0.3475
   71MOL    C2422564   4.649   4.902   3.061  0.0454 -0.1144 -0.4529
   71MOL    H2522565   4.511   4.862   3.517 -0.4202 -1.0341  0.4542
   71MOL    H2622566   4.656   4.863   3.420 -0.2041 -1.4415 -0.3703
   71MOL    H2722567   4.461   4.846   3.227 -1.6840  0.0162  0.7072
   71MOL    H2822568   4.820   5.118   3.086  0.7248 -0.1415 -0.5563
   71MOL    H2922569   4.673   5.158   2.985 -0.8332 -1.7937 -0.2844
   71MOL    H3022570   4.697   5.226   3.141 -1.2658 -0.5369  0.7836
   71MOL    H3122571   4.752   4.890   3.027  0.4723 -1.2857  1.1885
   71MOL    H3222572   4.603   4.916   2.963 -0.4247  1.5680 -0.0101
   71MOL    H3322573   4.625   4.803   3.101 -1.8893 -0.5440 -2.5695
   71MOL    C3422574   4.348   4.972   3.359 -0.9086  0.2742  0.1171
   71MOL    C3522575   4.230   4.980   3.263  0.5248  0.3735  0.1007
   71MOL    C3622576   4.193   4.837   3.215 -0.5305 -0.1990 -0.4104
   71MOL    O3722577   4.252   4.797   3.119 -0.0311  0.3668  0.4914
   71MOL    N3822578   4.109   4.755   3.286  0.0077 -0.1563  0.1030
   71MOL    C3922579   4.045   4.799   3.406 -0.4680  1.1348  0.6137
   71MOL    C4022580   4.098   4.619   3.252 -0.2688  0.1813  0.8053
   71MOL    H4122581   4.309   4.909   3.439 -0.0380 -0.4954 -0.0597
   71MOL    H4222582   4.351   5.072   3.403  1.3932  0.3675 -0.1942
   71MOL    H4322583   4.147   5.017   3.322  2.0266  0.2596  2.3376
   71MOL    H4422584   3.980   4.722   3.446  0.1641  0.4182  0.2772
   71MOL    H4522585   4.120   4.828   3.479 -0.2695  2.0308  0.0732
   71MOL    H4622586   3.980   4.886   3.392  1.0838  2.0421 -1.3528
   71MOL    H4722587   4.143   4.585   3.158 -0.3170 -0.4200  0.9991
   71MOL    H4822588   3.993   4.590   3.253 -0.4049  0.5826 -0.3196
   71MOL    H4922589   4.157   4.562   3.323  0.6188 -0.5932 -0.5307
   71MOL    C5022590   4.239   5.077   3.143 -0.1727 -0.1369  0.6161
   71MOL    C5122591   4.122   5.101   3.042 -0.2449 -0.0097 -0.6385
   71MOL    C5222592   4.165   5.140   2.896 -0.3716 -0.4538  0.6277
   71MOL    O5322593   4.152   5.260   2.859 -0.0225  0.0835 -0.5947
   71MOL    N5422594   4.220   5.054   2.810  0.2776 -0.3721  0.0878
   71MOL    C5522595   4.237   4.905   2.823 -0.3648 -0.1734 -0.1658
   71MOL    C5622596   4.280   5.093   2.683 -0.5339 -0.4921 -0.0810
   71MOL    H5722597   4.281   5.172   3.175  2.6605 -1.4659  1.0184
   71MOL    H5822598   4.325   5.039   3.088  0.3037 -1.6182  2.3258
   71MOL    H5922599   4.078   5.002   3.029 -1.2196 -0.0526  2.4634
   71MOL    H6022600   4.265   4.852   2.732  0.2525  0.6568 -0.4644
   71MOL    H6122601   4.318   4.887   2.894  0.0534  1.3151 -0.2479
   71MOL    H6222602   4.151   4.848   2.857 -0.0697 -0.8235 -0.4969
   71MOL    H6322603   4.216   5.057   2.603 -1.0707  2.0525 -0.8100
   71MOL    H6422604   4.373   5.036   2.678  0.7586  1.5168  0.4695
   71MOL    H6522605   4.307   5.198   2.672 -0.6038 -0.3850  0.6967
   71MOL    C6622606   4.001   5.183   3.103  0.0810  0.0665 -0.1335
   71MOL    C6722607   4.010   5.328   3.159  0.3594 -0.2827  0.5975
   71MOL    C6822608   4.099   5.342   3.280 -0.0216 -0.1684 -0.3768
   71MOL    O6922609   4.063   5.291   3.384 -0.0423  0.4805 -0.4134
   71MOL    N7022610   4.218   5.407   3.269 -0.5586 -0.0320 -0.2862
   71MOL    C7122611   4.274   5.464   3.144 -0.0208  0.0369  0.4496
   71MOL    C7222612   4.298   5.412   3.387 -0.1037 -0.0621  0.3257
   71MOL    H7322613   3.929   5.187   3.021 -0.1245  1.1736  0.0891
   71MOL    H7422614   3.952   5.114   3.171  1.2326 -1.4664 -0.8379
   71MOL    H7522615   4.046   5.397   3.083  0.2672  0.6892  1.4161
   71MOL    H7622616   4.287   5.382   3.073  0.3976  0.8017 -0.3709
   71MOL    H7722617   4.211   5.541   3.098 -0.3767  0.0630  0.9816
   71MOL    H7822618   4.367   5.519   3.163  0.1080 -0.7399  2.1463
   71MOL    H7922619   4.286   5.332   3.459  1.2884 -0.6096 -0.0436
   71MOL    H8022620   4.285   5.511   3.432  0.3541  0.9128 -1.5969
   71MOL    H8122621   4.404   5.413   3.362  0.2061  1.2132  1.6188
   71MOL    C8222622   3.865   5.391   3.198 -0.0433  0.0560  1.1563
   71MOL    C8322623   3.762   5.400   3.077  0.5871 -0.1583  0.2465
   71MOL    C8422624   3.792   5.527   3.000 -0.5059 -0.1849 -0.2345
   71MOL    O8522625   3.810   5.633   3.067 -0.1275  0.1535  0.3100
   71MOL    N8622626   3.823   5.516   2.868  0.3687 -0.2435  0.0147
   71MOL    C8722627   3.822   5.389   2.800  0.6744  0.1716  0.7637
   71MOL    C8822628   3.878   5.637   2.801 -0.5227 -0.0023  0.6086
   71MOL    H8922629   3.827   5.328   3.278  2.0665 -0.6234  1.6653
   71MOL    H9022630   3.881   5.482   3.257 -1.6482  0.3465  1.1623
   71MOL    H9122631   3.768   5.311   3.014 -1.8035  1.5763 -2.5511
   71MOL    H9222632   3.857   5.406   2.698  1.0352 -0.8959  0.7077
   71MOL    H9322633   3.891   5.321   2.850  0.8159 -1.3124 -1.3828
   71MOL    H9422634   3.722   5.351   2.783  1.2642 -1.1280  0.1613
   71MOL    H9522635   3.985   5.617   2.800 -1.0424 -3.0282  1.7095
   71MOL    H9622636   3.863   5.736   2.844  1.6453  0.5914  0.0526
   71MOL    H9722637   3.847   5.644   2.696 -0.4978  0.1604  0.6121
   71MOL    C9822638   3.611   5.394   3.125 -0.5841 -0.3807  0.0028
   71MOL    C9922639   3.535   5.258   3.118  1.2553 -0.5358 -0.3675
   71MOL   C10022640   3.609   5.134   3.180  0.2120 -0.3738 -0.4412
   71MOL   O10122641   3.708   5.083   3.125  0.3878  0.6531  0.2729
   71MOL   N10222642   3.566   5.092   3.299 -0.0718  0.0103  0.1172
   71MOL   C10322643   3.468   5.160   3.391  0.5782 -0.3683 -0.4522
   71MOL   C10422644   3.639   4.979   3.358  0.7689 -0.3459 -0.0713
   71MOL   H10522645   3.596   5.449   3.219  0.0916 -0.2265  0.0270
   71MOL   H10622646   3.558   5.458   3.055 -0.5077  0.1442  0.4187
   71MOL   H10722647   3.443   5.282   3.171  0.7165 -1.7971 -0.7237
   71MOL   H10822648   3.366   5.158   3.353  0.3362  3.1111 -0.1436
   71MOL   H10922649   3.460   5.118   3.491 -0.5206 -1.4681 -0.9915
   71MOL   H11022650   3.491   5.265   3.410  0.5565 -0.6580  1.2673
   71MOL   H11122651   3.579   4.935   3.438 -2.3997  2.2011 -0.9533
   71MOL   H11222652   3.732   5.020   3.399  1.4916 -1.2659 -0.7698
   71MOL   H11322653   3.656   4.903   3.281  3.2783  1.5548 -1.4588
   71MOL   C11422654   3.475   5.222   2.983  0.8078 -0.3099 -0.7600
   71MOL   C11522655   3.349   5.299   2.931 -0.9148  0.4359  0.0485
   71MOL   C11622656   3.229   5.257   3.020 -0.2237  1.1564  0.5986
   71MOL   O11722657   3.200   5.133   3.019  0.1289  0.5570 -0.2411
   71MOL   N11822658   3.158   5.340   3.096 -0.2856 -0.2490 -1.2264
   71MOL   C11922659   3.032   5.298   3.166 -0.0468  0.5451 -0.4541
   71MOL   C12022660   3.192   5.476   3.131 -0.6737 -0.2708  0.0696
   71MOL   H12122661   3.554   5.221   2.908  0.4172 -1.0166 -1.1726
   71MOL   H12222662   3.447   5.116   2.984  0.9964 -0.3594 -0.8040
   71MOL   H12322663   3.346   5.408   2.938 -1.4141  0.4777 -0.7749
   71MOL   H12422664   3.059   5.243   3.256 -0.0432 -0.0271 -0.8019
   71MOL   H12522665   2.967   5.374   3.209 -1.0982 -2.3274  3.3478
   71MOL   H12622666   2.968   5.234   3.104 -0.7244  0.1067  0.6693
   71MOL   H12722667   3.142   5.544   3.062  2.9594  1.1973 -1.2248
   71MOL   H12822668   3.299   5.497   3.128 -0.2686 -2.0823  1.0567
   71MOL   H12922669   3.165   5.499   3.234 -1.0968  1.0797 -0.3348
   71MOL   C13022670   3.323   5.255   2.784  0.1611  0.2958  0.3203
   71MOL   C13122671   3.396   5.341   2.688  0.0373  0.4437  0.8390
   71MOL   C13222672   3.331   5.482   2.667 -0.3964 -0.8041  0.6759
   71MOL   O13322673   3.207   5.489   2.685  0.2111  0.3665  0.2241
   71MOL   N13422674   3.402   5.591   2.629 -0.1215 -0.6470  0.1276
   71MOL   C13522675   3.544   5.579   2.608  0.8286 -0.0626  0.3436
   71MOL   C13622676   3.347   5.728   2.655  0.2371 -0.5934 -0.3538
   71MOL   H13722677   3.354   5.151   2.774 -1.1840 -0.2256  1.4482
   71MOL   H13822678   3.215   5.256   2.773  0.2905 -1.1082 -1.3557
   71MOL   H13922679   3.497   5.359   2.725 -0.1973 -0.7366  2.0985
   71MOL   H14022680   3.582   5.483   2.574  1.1926 -0.1185  0.9185
   71MOL   H14122681   3.571   5.655   2.534  1.2723 -0.9462 -0.4153
   71MOL   H14222682   3.604   5.600   2.696  0.5685 -0.1470  0.5435
   71MOL   H14322683   3.267   5.720   2.729 -0.4487 -1.5336 -1.1710
   71MOL   H14422684   3.298   5.775   2.569  2.2281  2.6487  0.2027
   71MOL   H14522685   3.415   5.807   2.684 -1.0911  0.6748 -0.6268
   71MOL   C14622686   3.400   5.278   2.541 -0.2575  0.0778  0.1666
   71MOL   C14722687   3.472   5.140   2.515 -0.3363  0.6566 -0.7108
   71MOL   C14822688   3.622   5.141   2.555  0.6288 -0.2498  0.7464
   71MOL   O14922689   3.689   5.246   2.531  0.4446 -0.4539  1.1898
   71MOL   N15022690   3.685   5.040   2.621  1.2459 -0.2450 -0.2688
   71MOL   C15122691   3.816   5.064   2.680  0.5512  0.0079 -0.2631
   71MOL   C15222692   3.617   4.919   2.662 -0.3533  0.8915 -1.0877
   71MOL   H15322693   3.296   5.278   2.508  0.0501 -2.3622 -0.9272
   71MOL   H15422694   3.444   5.352   2.474 -0.2933  0.4572  0.5587
   71MOL   H15522695   3.422   5.069   2.581 -0.6900  0.0275 -1.6508
   71MOL   H15622696   3.879   5.109   2.603 -0.3592 -0.4169 -1.2745
   71MOL   H15722697   3.789   5.132   2.760  0.5811  1.6902 -1.6396
   71MOL   H15822698   3.874   4.978   2.715 -1.0591 -1.1697 -0.4202
   71MOL   H15922699   3.547   4.930   2.746  1.7147 -2.1449  1.1515
   71MOL   H16022700   3.689   4.856   2.715 -2.6353  0.4207  1.5577
   71MOL   H16122701   3.564   4.863   2.586 -0.4341  0.2314 -0.5561
   71MOL   C16222702   3.467   5.099   2.369  0.5644 -0.6018 -0.4549
   71MOL   C16322703   3.336   5.040   2.322  0.4486  0.3180  0.0454
   71MOL   C16422704   3.312   4.895   2.379 -0.1550 -0.2136  0.2276
   71MOL   O16522705   3.385   4.808   2.343 -0.2340  0.7648 -0.1614
   71MOL   N16622706   3.222   4.870   2.471 -0.5386 -0.2126  0.2438
   71MOL   C16722707   3.143   4.971   2.533  0.1121  0.1443  0.0137
   71MOL   C16822708   3.196   4.733   2.515  0.1086 -0.9732  0.3043
   71MOL   H16922709   3.484   5.186   2.306  0.1121 -0.5305 -0.4791
   71MOL   H17022710   3.539   5.019   2.353 -0.4866 -1.7267  0.3359
   71MOL   H17122711   3.245   5.095   2.347 -0.5678 -1.4402  0.2587
   71MOL   H17222712   3.063   4.929   2.595  1.3221  0.8266  2.1070
   71MOL   H17322713   3.196   5.049   2.587 -0.6474  1.7647 -1.5191
   71MOL   H17422714   3.079   5.024   2.463  0.3434 -0.4139 -0.6170
   71MOL   H17522715   3.203   4.725   2.624 -0.4745 -2.6762  0.2323
   71MOL   H17622716   3.252   4.650   2.474  2.0955 -0.0850  1.1810
   71MOL   H17722717   3.091   4.723   2.486 -0.6133  1.0340  2.0386
   71MOL   C17822718   3.341   5.035   2.168  0.8301  0.2914  0.1645
   71MOL   C17922719   3.226   4.970   2.089 -0.0142  0.0197 -0.0655
   71MOL   C18022720   3.261   4.958   1.938 -0.1618 -0.2065 -0.0363
   71MOL   O18122721   3.262   5.060   1.869 -0.5586  0.1839  0.3278
   71MOL   N18222722   3.290   4.836   1.880 -0.0042 -0.3888  0.0762
   71MOL   C18322723   3.275   4.710   1.951 -0.4312  0.5756 -0.0519
   71MOL   C18422724   3.324   4.818   1.740 -0.4219  0.2390  1.0608
   71MOL   H18522725   3.356   5.134   2.127  1.9348  0.6149  1.3299
   71MOL   H18622726   3.434   4.983   2.144 -0.2021 -1.1511 -0.8546
   71MOL   H18722727   3.218   4.877   2.145 -1.0418  0.0232 -0.1885
   71MOL   H18822728   3.341   4.708   2.038  1.5822 -0.9374 -1.5551
   71MOL   H18922729   3.170   4.713   1.981 -0.0470  1.6363  1.2383
   71MOL   H19022730   3.290   4.620   1.892  1.1668  0.5880  0.2930
   71MOL   H19122731   3.358   4.895   1.671  0.3667 -0.3302  0.8037
   71MOL   H19222732   3.232   4.782   1.694  0.9868 -0.7783 -1.1010
   71MOL   H19322733   3.402   4.741   1.731  0.3068  1.0750 -0.0308
   71MOL   C19422734   3.094   5.056   2.098  0.0197 -0.0462  0.3376
   71MOL   C19522735   2.954   4.982   2.073  0.7986 -0.3951  0.5177
   71MOL   C19622736   2.939   4.861   2.162  0.0799 -0.4040 -0.6457
   71MOL   O19722737   2.998   4.754   2.151  0.2863 -0.7167 -0.2214
   71MOL   N19822738   2.854   4.869   2.270  0.6599 -0.5028 -0.4718
   71MOL   C19922739   2.801   4.752   2.335  0.5886 -0.4022 -0.5947
   71MOL   C20022740   2.817   4.998   2.332  0.1452 -0.0536  1.1823
   71MOL   H20122741   3.096   5.105   2.195  0.7262  2.0869 -0.7255
   71MOL   H20222742   3.107   5.139   2.029  1.6570 -1.2619 -0.8584
   71MOL   H20322743   2.873   5.050   2.099 -0.0581 -1.6239  1.1232
   71MOL   H20422744   2.712   4.764   2.397  0.4865  1.6126 -1.0980
   71MOL   H20522745   2.754   4.688   2.260 -2.8841  1.3626 -0.0464
   71MOL   H20622746   2.883   4.713   2.396  0.1048  2.4084  1.9769
   71MOL   H20722747   2.727   5.034   2.283  0.8706  0.6224  0.3393
   71MOL   H20822748   2.886   5.081   2.321  1.4623 -1.6182 -3.3995
   71MOL   H20922749   2.791   4.985   2.438  2.7773 -0.9980  1.7427
   71MOL   C21022750   2.941   4.938   1.924 -0.0477  0.0327  0.1619
   71MOL   C21122751   2.811   4.862   1.879 -1.0769 -0.6095 -0.4978
   71MOL   C21222752   2.831   4.795   1.740  0.5796  0.2077  0.3184
   71MOL   O21322753   2.832   4.876   1.647  0.4387  0.4301  0.1240
   71MOL   N21422754   2.829   4.661   1.719 -0.2259  0.4430 -0.0651
   71MOL   C21522755   2.817   4.587   1.591  0.1348  0.2116  0.1183
   71MOL   C21622756   2.832   4.565   1.836 -0.2750  0.3671 -0.7857
   71MOL   H21722757   2.951   5.015   1.847  1.2803 -0.6372 -0.3581
   71MOL   H21822758   3.029   4.878   1.904  0.5677  1.5136 -1.7485
   71MOL   H21922759   2.795   4.783   1.952  1.7948 -1.7546 -1.0572
   71MOL   H22022760   2.903   4.520   1.584  0.4250  0.2840  2.6652
   71MOL   H22122761   2.729   4.523   1.577  0.0892  0.7039 -1.9417
   71MOL   H22222762   2.828   4.664   1.515  0.3209 -0.3444 -0.4238
   71MOL   H22322763   2.903   4.602   1.911  1.1354 -1.3295 -1.2612
   71MOL   H22422764   2.847   4.461   1.808  0.6319  0.2188  0.2008
   71MOL   H22522765   2.733   4.571   1.881  0.6193  0.3747  1.2611
   71MOL   C22622766   2.685   4.957   1.875 -0.1036  0.5085  0.3283
   71MOL   C22722767   2.548   4.898   1.898  0.2208  0.4871  0.3671
   71MOL   C22822768   2.532   4.831   2.035  0.1245  0.1821 -0.3475
   71MOL   O22922769   2.571   4.711   2.049 -0.2897 -0.3853 -0.2895
   71MOL   N23022770   2.490   4.913   2.141 -0.7429  0.0303  0.0588
   71MOL   C23122771   2.481   5.057   2.141 -0.0064  0.2806 -0.8569
   71MOL   C23222772   2.448   4.849   2.267  0.5544  0.0562  0.4783
   71MOL   H23322773   2.701   5.038   1.946 -0.4666  0.5144  0.4050
   71MOL   H23422774   2.679   5.007   1.778  0.7269  0.9362  0.4945
   71MOL   H23522775   2.485   4.985   1.881 -0.3855 -0.1204 -0.4748
   71MOL   H23622776   2.531   5.112   2.061 -1.3523  0.3066 -1.7000
   71MOL   H23722777   2.377   5.089   2.129  0.5170  1.7094 -1.7296
   71MOL   H23822778   2.520   5.102   2.232 -0.3314  1.4270 -1.2775
   71MOL   H23922779   2.374   4.911   2.317 -1.0474  0.1119 -1.8920
   71MOL   H24022780   2.532   4.852   2.337  1.3172  1.0940 -0.4626
   71MOL   H24122781   2.410   4.747   2.267  2.4639 -0.6834  0.2609
   71MOL   C24222782   2.497   4.813   1.784 -0.6075 -0.0610  0.3307
   71MOL   C24322783   2.349   4.766   1.786  0.1596  0.3493  0.0177
   71MOL   C24422784   2.326   4.671   1.667  0.0887 -0.0145  0.5794
   71MOL   O24522785   2.325   4.719   1.558  0.0698  0.2709  0.1301
   71MOL   N24622786   2.310   4.535   1.681  0.6833  0.3430  0.1630
   71MOL   C24722787   2.235   4.460   1.575  0.1873  0.2187 -0.0601
   71MOL   C24822788   2.338   4.468   1.805  0.4117  0.0718  0.0207
   71MOL   H24922789   2.525   4.851   1.686 -0.0109  2.5085  1.4358
   71MOL   H25022790   2.566   4.729   1.788 -0.6026 -0.1973 -2.0136
   71MOL   H25122791   2.325   4.719   1.881 -2.2155 -0.1049 -0.7809
   71MOL   H25222792   2.128   4.476   1.589  0.2121 -1.7724  2.9936
   71MOL   H25322793   2.259   4.495   1.475 -1.0827 -4.6475 -2.2200
   71MOL   H25422794   2.254   4.352   1.574 -2.9641 -0.4059 -2.2009
   71MOL   H25522795   2.355   4.361   1.790 -2.5064 -0.4239 -0.0714
   71MOL   H25622796   2.254   4.484   1.873  1.9680 -1.2214  2.2979
   71MOL   H25722797   2.426   4.510   1.853  0.9401 -0.4782 -0.4632
   71MOL   C25822798   2.263   4.896   1.772  0.5611 -0.0577 -0.1096
   71MOL   C25922799   2.109   4.872   1.793  0.1090 -0.7141  0.3548
   71MOL   C26022800   2.087   4.813   1.935  0.7421  0.1032  0.2163
   71MOL   O26122801   2.090   4.692   1.951  0.1746  0.2073  0.3566
   71MOL   N26222802   2.057   4.897   2.039  0.5040 -0.1811  0.2856
   71MOL   C26322803   2.056   4.858   2.181  0.3106  0.1901 -0.1205
   71MOL   C26422804   2.037   5.043   2.025 -0.9268 -0.0807  0.0563
   71MOL   H26522805   2.293   4.968   1.848 -1.1203  0.4297  0.1093
   71MOL   H26622806   2.282   4.950   1.680 -2.8117  1.4766  0.0237
   71MOL   H26722807   2.055   4.967   1.794  0.9851 -0.2148  1.7335
   71MOL   H26822808   2.097   4.940   2.240 -0.1006  0.0235  0.4084
   71MOL   H26922809   1.951   4.840   2.202  0.7637 -2.0547  0.3361
   71MOL   H27022810   2.105   4.763   2.201 -4.1839 -2.1380  0.4196
   71MOL   H27122811   1.979   5.079   1.941  0.4600  1.7015 -0.1655
   71MOL   H27222812   2.136   5.085   2.004 -0.9384 -0.1978 -0.2343
   71MOL   H27322813   1.996   5.088   2.115  1.2661  0.1691  0.9561
   71MOL   C27422814   2.034   4.794   1.687  0.1005  0.2043 -0.3980
   71MOL   C27522815   1.876   4.812   1.697  0.3164 -0.8024 -0.6221
   71MOL   C27622816   1.833   4.721   1.582 -0.2357  0.7764  0.4117
   71MOL   O27722817   1.809   4.773   1.470 -0.5400  0.3962  0.6341
   71MOL   N27822818   1.808   4.589   1.605 -0.4810  0.5839  0.5558
   71MOL   C27922819   1.804   4.523   1.737 -0.2045 -0.1826 -0.2870
   71MOL   C28022820   1.784   4.497   1.491  0.6555 -0.1528 -0.2148
   71MOL   H28122821   2.068   4.820   1.587  1.3418 -3.3986 -1.0206
   71MOL   H28222822   2.075   4.693   1.701  0.4042  0.3490 -0.2296
   71MOL   H28322823   1.844   4.773   1.794  2.9186  1.3872  1.1647
   71MOL   H28422824   1.807   4.415   1.720  0.1355 -0.2069 -0.0822
   71MOL   H28522825   1.890   4.525   1.804  0.3415  2.8667 -1.0303
   71MOL   H28622826   1.718   4.543   1.801  0.4268  2.8308 -0.3137
   71MOL   H28722827   1.762   4.557   1.403 -0.0161  1.5598  1.0867
   71MOL   H28822828   1.696   4.438   1.519  0.5393  0.6280  1.1121
   71MOL   H28922829   1.872   4.435   1.478 -0.1735 -1.1067 -1.4043
   71MOL   C29022830   1.820   4.953   1.683 -0.0586  0.4733 -0.6017
   71MOL   C29122831   1.661   4.969   1.675 -1.0359  0.2716  0.0677
   71MOL   C29222832   1.636   5.121   1.649 -0.2993 -0.8096 -0.4790
   71MOL   O29322833   1.702   5.211   1.704  0.4993 -0.7520  0.3150
   71MOL   N29422834   1.543   5.155   1.555  0.6116 -0.0488  0.1701
   71MOL   C29522835   1.520   5.296   1.520 -0.4054  0.3146 -0.0257
   71MOL   C29622836   1.428   5.073   1.517  0.3707 -0.4991  0.6507
   71MOL   H29722837   1.853   5.018   1.765 -0.1561 -0.4035  0.1443
   71MOL   H29822838   1.871   4.996   1.597  1.5941 -1.2771 -0.5376
   71MOL   H29922839   1.623   4.905   1.595 -1.6415 -0.9372  1.3231
   71MOL   H30022840   1.571   5.332   1.430  0.0262 -0.8886 -0.2675
   71MOL   H30122841   1.412   5.309   1.511 -0.8091 -2.7468 -0.0850
   71MOL   H30222842   1.554   5.367   1.595  1.0629  0.6941 -1.0298
   71MOL   H30322843   1.453   4.969   1.498  2.8560  0.0080  1.0539
   71MOL   H30422844   1.383   5.103   1.422 -0.6163 -1.2289  0.8769
   71MOL   H30522845   1.338   5.083   1.578 -0.7225  0.5077 -1.0920
   71MOL   C30622846   1.586   4.910   1.791 -0.5177 -0.3878  0.1148
   71MOL   C30722847   1.634   4.972   1.929  0.7127 -0.4102  0.3240
   71MOL   C30822848   1.545   4.941   2.049 -0.2830  0.0337  0.5143
   71MOL   O30922849   1.483   4.833   2.044  0.0010  0.1972  0.2551
   71MOL   N31022850   1.532   5.035   2.146  0.4024 -0.2877  0.5948
   71MOL   C31122851   1.642   5.131   2.190 -0.4005  0.9145  0.7518
   71MOL   C31222852   1.427   5.031   2.249 -1.3416  0.3436 -0.0153
   71MOL   H31322853   1.478   4.926   1.783 -0.7590 -2.2367 -0.4558
   71MOL   H31422854   1.606   4.804   1.804 -0.9685 -0.3441  1.1783
   71MOL   H31522855   1.725   4.921   1.958  1.4501  0.5920 -0.1769
   71MOL   H31622856   1.741   5.102   2.156 -0.9121  0.7522 -0.6328
   71MOL   H31722857   1.629   5.235   2.162  2.0272  1.5085  1.7000
   71MOL   H31822858   1.641   5.139   2.299 -2.1769 -0.6136  0.8906
   71MOL   H31922859   1.328   5.036   2.205 -0.6184  2.9808 -1.4038
   71MOL   H32022860   1.440   5.103   2.329 -0.3519  0.2422 -0.0820
   71MOL   H32122861   1.427   4.938   2.306 -0.3879  0.6761  0.5363
   71MOL   H32222862   1.646   5.081   1.922  0.1198 -0.4018 -0.6761
   72MOL     C122863   2.837   5.630   0.467 -0.7041 -0.9137 -0.1812
   72MOL     C222864   2.945   5.550   0.392 -0.3101  0.5624 -0.1940
   72MOL     C322865   3.076   5.545   0.473  0.2124 -0.6871  0.6667
   72MOL     O422866   3.108   5.642   0.545  0.1948  0.3748 -0.0605
   72MOL     N522867   3.150   5.428   0.476 -0.0314 -0.1689 -0.3964
   72MOL     C622868   3.102   5.291   0.436  0.4164  0.1846  0.5768
   72MOL     C722869   3.283   5.433   0.530 -0.0619 -0.7814 -0.0846
   72MOL     H822870   2.876   5.719   0.516 -1.8665  1.1691 -2.9171
   72MOL     H922871   2.783   5.581   0.547  0.2651 -0.1393  0.9752
   72MOL    H1022872   2.897   5.453   0.381  1.1917 -0.1306 -0.7019
   72MOL    H1122873   3.055   5.288   0.337  0.8309  0.0103  0.3846
   72MOL    H1222874   3.186   5.222   0.440 -0.0456 -0.4793 -0.7483
   72MOL    H1322875   3.022   5.252   0.499 -0.9055 -0.6602 -1.5595
   72MOL    H1422876   3.287   5.458   0.637 -1.3317 -1.0775  0.0320
   72MOL    H1522877   3.337   5.518   0.487 -1.4270  0.5387  0.7386
   72MOL    H1622878   3.345   5.345   0.514 -0.4470 -1.2419  0.8894
   72MOL    H1722879   2.756   5.664   0.403 -1.5240  0.1235  1.3811
   72MOL    C1822880   2.977   5.585   0.244  0.6946  0.5805 -0.6523
   72MOL    C1922881   3.033   5.732   0.226 -0.2332  1.0398 -0.7538
   72MOL    C2022882   2.925   5.840   0.209 -0.4813  0.7824  0.2888
   72MOL    O2122883   2.843   5.822   0.122  0.7227 -0.0883 -0.1206
   72MOL    N2222884   2.926   5.942   0.292  0.2535  0.2677 -0.4965
   72MOL    C2322885   3.009   5.969   0.409 -0.0884  0.1009  1.0861
   72MOL    C2422886   2.835   6.054   0.264  0.0672  0.5689  0.6800
   72MOL    H2522887   3.040   5.507   0.201  0.7094  0.9740 -1.3484
   72MOL    H2622888   2.880   5.583   0.194  0.6207 -1.4081 -0.4676
   72MOL    H2722889   3.083   5.748   0.321  1.9214 -1.5228 -1.3969
   72MOL    H2822890   3.109   5.994   0.374 -0.3195 -1.4500 -0.7494
   72MOL    H2922891   2.971   6.048   0.475  0.9801  1.3440  0.2434
   72MOL    H3022892   3.017   5.878   0.467  0.4809 -1.8709 -2.0022
   72MOL    H3122893   2.765   6.057   0.348  2.3278  0.3385  2.6382
   72MOL    H3222894   2.763   6.046   0.183 -0.3189  1.5946  0.9089
   72MOL    H3322895   2.901   6.140   0.251 -0.2724  0.9005  1.1292
   72MOL    C3422896   3.145   5.756   0.119  0.6477 -0.1557 -0.3186
   72MOL    C3522897   3.248   5.870   0.149  0.2786 -0.0054  0.1729
   72MOL    C3622898   3.316   5.929   0.027  0.1263 -0.7335  0.1707
   72MOL    O3722899   3.411   5.874   7.823 -0.8303 -0.5037  0.7167
   72MOL    N3822900   3.283   6.053   7.831 -0.9218 -0.0254  0.6643
   72MOL    C3922901   3.149   6.109   0.009  0.1315 -0.5389  0.4789
   72MOL    C4022902   3.367   6.136   7.744 -1.0624  0.3063 -0.4160
   72MOL    H4122903   3.188   5.660   0.092  0.6334  0.2922 -1.9748
   72MOL    H4222904   3.098   5.779   0.023 -0.4663 -0.4738  0.1329
   72MOL    H4322905   3.194   5.957   0.187  0.7181  1.5923 -2.7006
   72MOL    H4422906   3.150   6.134   0.116 -1.4083  0.0117  0.3761
   72MOL    H4522907   3.125   6.197   7.804 -0.2332 -0.0237  1.3861
   72MOL    H4622908   3.076   6.034   7.833 -2.2652  1.6254  0.8267
   72MOL    H4722909   3.387   6.238   7.778  0.8032 -0.1080 -0.2239
   72MOL    H4822910   3.307   6.154   7.655 -0.8009  1.1327 -0.4251
   72MOL    H4922911   3.460   6.088   7.712  0.0385  3.5514 -2.3795
   72MOL    C5022912   3.359   5.831   0.244 -0.2618  0.3503 -0.4778
   72MOL    C5122913   3.464   5.925   0.308 -0.4582 -0.0750  0.6001
   72MOL    C5222914   3.407   6.055   0.363 -0.1911 -0.0607 -0.1106
   72MOL    O5322915   3.373   6.148   0.288 -0.1142 -0.0664  0.0231
   72MOL    N5422916   3.380   6.065   0.494 -0.5839  0.1159  0.0740
   72MOL    C5522917   3.320   6.187   0.553 -0.4221  0.0676 -0.5139
   72MOL    C5622918   3.406   5.967   0.598 -0.5088 -0.3859  0.1705
   72MOL    H5722919   3.309   5.791   0.332 -0.8272 -0.3982 -1.1313
   72MOL    H5822920   3.408   5.745   0.199  0.2027  0.0007  0.6744
   72MOL    H5922921   3.510   5.869   0.389 -0.4648 -0.9555 -0.0010
   72MOL    H6022922   3.217   6.164   0.580  0.2525 -3.6386 -0.9189
   72MOL    H6122923   3.372   6.240   0.633 -0.3627 -2.4523  1.1889
   72MOL    H6222924   3.319   6.270   0.482 -2.3916  0.0887 -0.4676
   72MOL    H6322925   3.402   6.007   0.700 -0.8861  1.2759 -0.4737
   72MOL    H6422926   3.513   5.945   0.594 -0.3090 -0.4189  4.1237
   72MOL    H6522927   3.349   5.875   0.589 -1.6991  0.3686 -0.0864
   72MOL    C6622928   3.586   5.962   0.206  0.0464  0.7037  0.3478
   72MOL    C6722929   3.719   5.991   0.269  0.4920  0.0495 -0.7921
   72MOL    C6822930   3.791   5.862   0.325  0.1434 -0.1889  0.6340
   72MOL    O6922931   3.735   5.799   0.411 -0.0494 -0.0609 -0.2163
   72MOL    N7022932   3.922   5.838   0.282 -0.2048 -0.4065  0.4144
   72MOL    C7122933   3.983   5.709   0.299  0.6588  0.2754  0.0444
   72MOL    C7222934   4.018   5.946   0.268 -0.5465 -0.1773 -0.4797
   72MOL    H7322935   3.598   5.879   0.136 -1.9708  1.0657 -0.4624
   72MOL    H7422936   3.566   6.048   0.141  0.9322  0.6210 -0.0372
   72MOL    H7522937   3.774   6.026   0.181  1.2759 -0.5788 -0.5656
   72MOL    H7622938   4.050   5.706   0.384  0.7346  2.5470  0.0844
   72MOL    H7722939   3.906   5.633   0.307  0.0330  0.7623 -1.1355
   72MOL    H7822940   4.041   5.676   0.212  0.8226  0.6146  0.0229
   72MOL    H7922941   4.121   5.912   0.262 -0.8387 -1.4621  1.4477
   72MOL    H8022942   4.016   6.012   0.356  1.1162  1.1367 -1.3911
   72MOL    H8122943   3.997   6.017   0.188  1.0928  1.4997  0.5232
   72MOL    C8222944   3.720   6.110   0.373 -0.5823  0.3602 -0.3365
   72MOL    C8322945   3.704   6.249   0.311  0.0338  0.0091  0.4133
   72MOL    C8422946   3.834   6.291   0.239  0.7573  0.0263  0.5252
   72MOL    O8522947   3.937   6.296   0.311 -0.9399  0.1106  0.1146
   72MOL    N8622948   3.840   6.307   0.104  0.0923 -0.1862  0.1117
   72MOL    C8722949   3.723   6.310   0.020  0.1246  0.1884 -0.2499
   72MOL    C8822950   3.972   6.309   0.033 -0.1538 -0.2410  0.5091
   72MOL    H8922951   3.647   6.096   0.453  0.1197 -1.1061  0.0876
   72MOL    H9022952   3.812   6.105   0.432  0.1294 -2.1617 -1.5547
   72MOL    H9122953   3.622   6.252   0.239 -0.3106 -1.2346  0.7385
   72MOL    H9222954   3.664   6.396   0.052  2.3225  1.3751  0.7249
   72MOL    H9322955   3.754   6.310   7.769  0.7843 -0.7170 -0.0535
   72MOL    H9422956   3.659   6.223   0.033 -3.0658  2.4762  0.1395
   72MOL    H9522957   4.041   6.375   0.084 -0.7842  0.6612  0.2082
   72MOL    H9622958   3.956   6.355   7.789  0.3515 -2.7203 -0.7957
   72MOL    H9722959   4.013   6.210   0.014 -1.7871 -1.2908  2.2998
   72MOL    C9822960   3.651   6.353   0.418  0.0350 -0.0723  0.4539
   72MOL    C9922961   3.728   6.399   0.538 -0.2802 -0.4275  0.1537
   72MOL   C10022962   3.748   6.285   0.638 -0.2054  0.1165 -0.5750
   72MOL   O10122963   3.646   6.243   0.695 -0.1125  0.4774  0.0782
   72MOL   N10222964   3.871   6.232   0.671  0.3562  0.4295 -0.8798
   72MOL   C10322965   4.000   6.279   0.630  0.2300  0.3806  0.5358
   72MOL   C10422966   3.869   6.105   0.747  0.7194  0.2774  0.1762
   72MOL   H10522967   3.627   6.440   0.357 -0.3188 -0.7652 -0.4268
   72MOL   H10622968   3.547   6.331   0.442  0.8473 -2.1441  2.2068
   72MOL   H10722969   3.827   6.418   0.494  0.3924 -0.9456  1.4269
   72MOL   H10822970   3.992   6.387   0.630 -1.8616  0.2553 -0.3852
   72MOL   H10922971   4.088   6.248   0.686 -0.1269 -2.1133 -0.1892
   72MOL   H11022972   4.023   6.250   0.527  1.6959 -0.3540  1.0446
   72MOL   H11122973   3.785   6.038   0.728 -0.2528  1.5617 -0.1484
   72MOL   H11222974   3.861   6.134   0.852  0.3555  0.5082  0.0838
   72MOL   H11322975   3.964   6.053   0.745 -0.3736 -1.8139  0.9651
   72MOL   C11422976   3.667   6.526   0.607  0.5956 -0.5221 -0.4712
   72MOL   C11522977   3.656   6.659   0.530 -0.2985  0.0965 -0.1753
   72MOL   C11622978   3.800   6.696   0.489  0.0760  0.1315  0.1492
   72MOL   O11722979   3.875   6.731   0.580 -0.0789 -0.1012 -0.1114
   72MOL   N11822980   3.849   6.694   0.361  0.0953 -0.3693  0.7695
   72MOL   C11922981   3.763   6.673   0.240 -0.0711 -0.0732  0.7068
   72MOL   C12022982   3.994   6.688   0.333  0.1570  0.0558 -0.2449
   72MOL   H12122983   3.568   6.503   0.645  0.2922 -1.2438 -1.6384
   72MOL   H12222984   3.726   6.541   0.697  1.0823 -1.5538 -0.6055
   72MOL   H12322985   3.591   6.652   0.443  0.5307  0.1498 -0.8045
   72MOL   H12422986   3.674   6.736   0.251 -0.5770 -0.5259 -0.7162
   72MOL   H12522987   3.814   6.705   0.149  0.4461  0.3701  1.1561
   72MOL   H12622988   3.723   6.572   0.228  1.4945 -0.4340 -1.6981
   72MOL   H12722989   4.014   6.637   0.239 -0.1787 -0.6569  0.0728
   72MOL   H12822990   4.037   6.618   0.405  0.7386  2.2822  1.6847
   72MOL   H12922991   4.044   6.785   0.323  0.5487 -0.1027  0.1146
   72MOL   C13022992   3.596   6.773   0.617  0.1724  0.7241  0.1393
   72MOL   C13122993   3.443   6.762   0.659 -0.3052 -0.4221  0.1571
   72MOL   C13222994   3.349   6.774   0.540 -0.0792  0.0372 -0.5772
   72MOL   O13322995   3.350   6.873   0.471  0.9730  0.1468  0.5099
   72MOL   N13422996   3.260   6.679   0.509  0.0739  1.1525 -0.2962
   72MOL   C13522997   3.252   6.546   0.575  0.4234 -0.0257  0.0542
   72MOL   C13622998   3.155   6.707   0.417  0.0723 -0.1746 -0.1432
   72MOL   H13722999   3.653   6.789   0.708  0.8626 -0.5098 -0.0722
   72MOL   H13823000   3.607   6.869   0.565  0.0779  1.4764  1.4868
   72MOL   H13923001   3.443   6.666   0.710  1.7893 -0.1578  0.7176
   72MOL   H14023002   3.318   6.478   0.522 -1.6259 -0.5736 -1.8845
   72MOL   H14123003   3.280   6.536   0.680 -1.5751  0.0703  0.6196
   72MOL   H14223004   3.151   6.503   0.577  0.0178  0.9806  2.3971
   72MOL   H14323005   3.070   6.763   0.455  1.4860  2.0732 -0.2245
   72MOL   H14423006   3.105   6.617   0.380 -0.6228 -0.1489  0.7188
   72MOL   H14523007   3.192   6.759   0.329  0.5251 -0.7762 -0.3140
   72MOL   C14623008   3.417   6.861   0.772  0.2222 -0.2024  0.1543
   72MOL   C14723009   3.271   6.853   0.827 -0.3298 -0.4084  0.1479
   72MOL   C14823010   3.208   6.998   0.853  0.8468 -0.4188 -0.1966
   72MOL   O14923011   3.247   7.052   0.953 -0.3100 -0.3059  0.4173
   72MOL   N15023012   3.105   7.055   0.777  0.5884 -0.1451 -0.3235
   72MOL   C15123013   3.086   7.194   0.784  0.2961 -0.3682 -0.1494
   72MOL   C15223014   3.031   6.987   0.670 -0.7067 -0.0885  0.2444
   72MOL   H15323015   3.487   6.842   0.854  1.6825 -1.1898 -1.2851
   72MOL   H15423016   3.432   6.964   0.740 -2.5365  0.3344  0.4346
   72MOL   H15523017   3.210   6.798   0.755  0.1438  0.7018 -1.1145
   72MOL   H15623018   3.048   7.225   0.881 -3.0437  1.4299 -1.9422
   72MOL   H15723019   3.180   7.247   0.774  0.0935 -0.0800 -0.5176
   72MOL   H15823020   3.008   7.229   0.717 -0.6220 -0.1099  1.0245
   72MOL   H15923021   3.092   6.975   0.581  2.4037  0.2545  2.2596
   72MOL   H16023022   2.937   7.038   0.648 -0.3094  1.4996  2.0858
   72MOL   H16123023   3.017   6.883   0.700  4.5732 -1.0334 -0.1742
   72MOL   C16223024   3.270   6.757   0.950  0.1418 -0.5013 -0.1899
   72MOL   C16323025   3.137   6.706   1.019  0.0575 -0.3796  0.0287
   72MOL   C16423026   3.049   6.626   0.923  0.7260  0.1367 -0.1171
   72MOL   O16523027   2.983   6.682   0.838  0.2030 -0.2426 -0.0541
   72MOL   N16623028   3.038   6.491   0.937 -0.0297 -0.0205  0.2062
   72MOL   C16723029   2.960   6.411   0.840  0.5453 -0.0360 -0.3999
   72MOL   C16823030   3.073   6.413   1.061 -0.7246 -0.0884  0.4400
   72MOL   H16923031   3.325   6.666   0.926 -0.7702 -1.1021 -0.0148
   72MOL   H17023032   3.325   6.801   1.033 -1.2719 -2.0165  1.5690
   72MOL   H17123033   3.164   6.632   1.094 -1.3029 -0.5375  0.3832
   72MOL   H17223034   3.003   6.432   0.742 -0.4094  0.9498 -0.6171
   72MOL   H17323035   2.940   6.308   0.868 -0.3035  0.1153 -0.4136
   72MOL   H17423036   2.862   6.460   0.831  0.6758 -0.0391 -1.8194
   72MOL   H17523037   3.182   6.417   1.073 -0.4965  0.5429 -1.6196
   72MOL   H17623038   3.052   6.307   1.053 -1.1893  0.0264  0.1273
   72MOL   H17723039   3.029   6.443   1.156 -1.9432  0.2134 -0.2167
   72MOL   C17823040   3.056   6.817   1.094 -0.6162  0.6105  0.2538
   72MOL   C17923041   3.124   6.874   1.222  0.2405  0.2758  0.2763
   72MOL   C18023042   3.108   6.755   1.328 -0.6285  0.3139 -0.1499
   72MOL   O18123043   2.994   6.723   1.362  0.6222  0.3660 -0.3840
   72MOL   N18223044   3.216   6.691   1.371 -0.2430  0.2280  0.1391
   72MOL   C18323045   3.354   6.722   1.339 -0.2534  0.4789 -0.1916
   72MOL   C18423046   3.196   6.561   1.432  0.5674  0.1575 -0.9307
   72MOL   H18523047   3.038   6.897   1.021  2.9129 -0.8226 -2.3776
   72MOL   H18623048   2.954   6.790   1.121  0.0045 -3.5646 -1.1848
   72MOL   H18723049   3.223   6.906   1.191  0.3615  0.6189  1.0233
   72MOL   H18823050   3.374   6.829   1.341 -0.9168  0.6119 -0.5548
   72MOL   H18923051   3.425   6.684   1.413  0.2011 -1.1874 -1.4522
   72MOL   H19023052   3.374   6.689   1.237  0.1804 -0.7612  0.2850
   72MOL   H19123053   3.163   6.581   1.534  2.3245  0.1547 -0.3364
   72MOL   H19223054   3.295   6.514   1.425  1.3579  0.8156  3.7412
   72MOL   H19323055   3.127   6.498   1.375 -0.8289 -0.0541  0.9369
   72MOL   C19423056   3.048   6.998   1.276  0.0538  0.2062 -0.3974
   72MOL   C19523057   3.121   7.079   1.386  0.0219 -0.3316 -0.2470
   72MOL   C19623058   3.268   7.120   1.355  0.1554 -0.5874  1.1681
   72MOL   O19723059   3.353   7.052   1.413 -0.2970  0.1786  0.3273
   72MOL   N19823060   3.294   7.230   1.284 -0.0296  0.4727  0.2054
   72MOL   C19923061   3.204   7.310   1.201  0.4247  0.1381 -0.1665
   72MOL   C20023062   3.430   7.291   1.290 -0.1527  0.4109  0.2211
   72MOL   H20123063   3.027   7.069   1.195  0.5126  1.3917  0.5032
   72MOL   H20223064   2.951   6.980   1.322  0.6116 -0.9499  0.3236
   72MOL   H20323065   3.068   7.174   1.376 -1.7075 -1.1559  0.9322
   72MOL   H20423066   3.134   7.252   1.141  0.5728 -0.0168 -0.1907
   72MOL   H20523067   3.158   7.387   1.264  0.7478 -0.7063  1.1205
   72MOL   H20623068   3.259   7.373   1.130 -0.6633  1.2958  0.0028
   72MOL   H20723069   3.439   7.382   1.232 -1.5735  0.4350  0.0364
   72MOL   H20823070   3.502   7.226   1.240  0.0045 -1.1305  2.3994
   72MOL   H20923071   3.467   7.307   1.392  0.2821 -2.6879  0.6241
   72MOL   C21023072   3.104   7.026   1.531 -0.2517  0.4536  0.7104
   72MOL   C21123073   3.128   7.123   1.647  0.0561 -0.2381  0.1715
   72MOL   C21223074   3.155   7.038   1.776 -0.0432 -0.0429  0.4096
   72MOL   O21323075   3.058   6.986   1.826  0.0939  0.0677 -0.1635
   72MOL   N21423076   3.280   7.050   1.841 -0.2238 -0.3847  0.7340
   72MOL   C21523077   3.283   7.009   1.984 -0.6369 -0.1923  1.1266
   72MOL   C21623078   3.412   7.084   1.779  0.2974  0.2053  0.2845
   72MOL   H21723079   3.005   6.980   1.539 -0.1947  0.7820  3.7699
   72MOL   H21823080   3.177   6.946   1.541 -0.3272 -0.0127 -1.9696
   72MOL   H21923081   3.230   7.157   1.630  0.2803 -1.1470 -0.3639
   72MOL   H22023082   3.229   6.915   1.999  0.6819 -1.3842 -1.2574
   72MOL   H22123083   3.381   6.988   2.026  0.1740  0.6784 -0.2949
   72MOL   H22223084   3.230   7.085   2.042 -0.5567  0.4315  0.3878
   72MOL   H22323085   3.494   7.062   1.848 -1.0705 -0.4129  1.7407
   72MOL   H22423086   3.428   7.192   1.772 -0.9093  0.3761  0.0999
   72MOL   H22523087   3.414   7.031   1.684  2.0856 -1.4012  1.1768
   72MOL   C22623088   3.021   7.235   1.660  0.1742  0.4696 -0.1290
   72MOL   C22723089   3.077   7.375   1.705  0.3840  0.2430 -0.5299
   72MOL   C22823090   2.956   7.468   1.740 -0.3798 -0.1425 -0.2406
   72MOL   O22923091   2.883   7.517   1.657 -0.4696 -0.0025 -0.1116
   72MOL   N23023092   2.936   7.493   1.873 -0.0037 -0.2671  0.0301
   72MOL   C23123093   3.007   7.422   1.985 -0.0018  0.4258  0.0311
   72MOL   C23223094   2.829   7.577   1.923 -0.4216 -0.0979 -0.1378
   72MOL   H23323095   2.959   7.236   1.570 -1.0664 -1.8372  0.6588
   72MOL   H23423096   2.953   7.192   1.734  1.2756 -1.2880 -0.0893
   72MOL   H23523097   3.146   7.361   1.788  1.6076  0.3575 -1.5173
   72MOL   H23623098   3.112   7.451   1.994 -0.2820  1.4578  0.0336
   72MOL   H23723099   2.963   7.445   2.082 -0.5992  1.8013 -0.5585
   72MOL   H23823100   2.994   7.314   1.974 -0.6016  0.7436 -2.7168
   72MOL   H23923101   2.738   7.523   1.947  0.3103 -0.7449  1.2466
   72MOL   H24023102   2.802   7.668   1.869  1.9513 -0.2588 -1.6788
   72MOL   H24123103   2.858   7.623   2.018  1.3067 -1.5993  0.1057
   72MOL   C24223104   3.165   7.433   1.598 -0.0598 -0.3126  0.0560
   72MOL   C24323105   3.217   7.577   1.614 -0.0837  0.0262  0.6156
   72MOL   C24423106   3.285   7.620   1.483  0.1768  0.1034 -0.2228
   72MOL   O24523107   3.401   7.585   1.466  0.2251  0.7891  0.4235
   72MOL   N24623108   3.210   7.666   1.378 -0.0636  0.3391 -0.4117
   72MOL   C24723109   3.074   7.716   1.389  0.1369  0.1541 -0.1212
   72MOL   C24823110   3.282   7.692   1.248 -0.1067 -0.4308  0.2649
   72MOL   H24923111   3.254   7.370   1.589 -0.3231 -0.4335 -1.9080
   72MOL   H25023112   3.110   7.433   1.504  1.2792  2.5758 -0.8080
   72MOL   H25123113   3.129   7.639   1.630 -0.8175 -0.7752 -0.2563
   72MOL   H25223114   3.010   7.641   1.436  1.2554 -0.3405  0.6410
   72MOL   H25323115   3.076   7.807   1.450 -2.1189 -0.4696  0.9474
   72MOL   H25423116   3.025   7.737   1.294 -0.8544 -1.0623  0.1160
   72MOL   H25523117   3.222   7.772   1.206 -2.3053 -0.2499  3.5835
   72MOL   H25623118   3.280   7.605   1.182 -1.3971  0.3376 -0.7235
   72MOL   H25723119   3.386   7.723   1.260  0.4555 -2.8704  2.1808
   72MOL   C25823120   3.308   7.593   1.746  1.4300 -0.1228  0.3897
   72MOL   C25923121   3.325   7.729   1.812 -1.3146  0.0286 -0.1258
   72MOL   C26023122   3.197   7.796   1.852  0.0720  0.7309  0.3011
   72MOL   O26123123   3.119   7.831   1.766  0.3795 -0.3962  0.2985
   72MOL   N26223124   3.184   7.837   1.978 -0.3134  0.5825  0.3755
   72MOL   C26323125   3.077   0.080   2.008 -0.7545  0.1479  0.1115
   72MOL   C26423126   3.281   7.820   2.085 -0.1210  0.0586 -1.0888
   72MOL   H26523127   3.281   7.518   1.820 -0.5639 -0.0833 -0.2543
   72MOL   H26623128   3.409   7.562   1.719  0.7665 -0.4263 -1.9109
   72MOL   H26723129   3.376   7.709   1.906 -0.2091  0.0283 -0.7129
   72MOL   H26823130   3.023   0.061   2.101 -2.4823 -0.4365 -0.9768
   72MOL   H26923131   3.112   0.183   2.008  1.1416 -0.4812 -0.2683
   72MOL   H27023132   2.992   0.061   1.942  0.0419  0.9275 -1.1425
   72MOL   H27123133   3.286   7.716   2.117  1.6971  0.3961 -0.2306
   72MOL   H27223134   3.237   0.024   2.166  1.2081  1.3349 -1.2581
   72MOL   H27323135   3.380   0.006   2.066 -0.6222  0.9170 -1.9619
   72MOL   C27423136   3.411   7.831   1.732 -0.1101  0.9855  0.2352
   72MOL   C27523137   3.563   7.806   1.735 -0.2276 -0.9993  0.0104
   72MOL   C27623138   3.622   7.811   1.877 -0.1077 -0.2899  0.3750
   72MOL   O27723139   3.610   0.061   1.941  0.5512 -0.1925 -0.3250
   72MOL   N27823140   3.678   7.701   1.940 -0.0135  0.2138  0.1847
   72MOL   C27923141   3.724   7.588   1.865  0.2993  0.0067 -0.1957
   72MOL   C28023142   3.703   7.699   2.087  1.3439 -0.3475  0.3708
   72MOL   H28123143   3.398   7.839   1.624  1.2818  1.4413  0.0974
   72MOL   H28223144   3.398   0.078   1.773  2.2776  1.0939  0.7705
   72MOL   H28323145   3.579   7.709   1.688  1.9758 -0.5068 -0.3112
   72MOL   H28423146   3.789   7.624   1.784 -1.7519  1.9982 -1.0050
   72MOL   H28523147   3.779   7.504   1.906 -0.6461 -1.0743 -1.1119
   72MOL   H28623148   3.632   7.551   1.821 -0.2967  1.3018 -0.0738
   72MOL   H28723149   3.613   7.722   2.144  1.4698 -1.0198  0.8529
   72MOL   H28823150   3.776   7.778   2.102  1.3201 -0.3289  0.3934
   72MOL   H28923151   3.750   7.603   2.109 -1.0322 -1.3259  1.4398
   72MOL   C29023152   3.627   0.070   1.648 -0.0045  0.0987  0.2580
   72MOL   C29123153   3.687   0.025   1.510  0.3505  0.3290  0.1510
   72MOL   C29223154   3.799   7.774   1.535  0.2038 -0.5610  0.4987
   72MOL   O29323155   3.870   7.787   1.637  0.7098 -1.0103 -0.2238
   72MOL   N29423156   3.812   7.669   1.452 -0.3318  0.3512  0.1589
   72MOL   C29523157   3.901   7.552   1.481  0.0669  0.3659  0.2332
   72MOL   C29623158   3.715   7.633   1.347 -0.1130 -0.3022  0.7907
   72MOL   H29723159   3.559   0.152   1.627  0.1069  0.4867  1.3819
   72MOL   H29823160   3.710   0.109   1.708 -0.1034 -0.3638  0.6969
   72MOL   H29923161   3.609   7.823   1.456  1.7632 -0.4519 -1.1116
   72MOL   H30023162   3.989   7.573   1.542  0.8233 -0.3795 -0.5928
   72MOL   H30123163   3.840   7.478   1.530 -0.6347  0.4274 -0.5322
   72MOL   H30223164   3.939   7.502   1.391  0.0896  0.6870  0.0617
   72MOL   H30323165   3.650   7.712   1.310  0.5771  0.4710  1.1871
   72MOL   H30423166   3.659   7.550   1.389 -2.1911  2.0356  2.7735
   72MOL   H30523167   3.774   7.590   1.266  1.4245  2.2817  0.4574
   72MOL   C30623168   3.729   0.149   1.436 -0.1235 -0.0968 -0.2271
   72MOL   C30723169   3.690   0.159   1.287  0.1355  0.2333 -0.2507
   72MOL   C30823170   3.781   0.073   1.193 -0.3813  0.2398  0.3217
   72MOL   O30923171   3.892   0.046   1.238 -0.3052  0.0026 -0.0338
   72MOL   N31023172   3.740   0.019   1.075  1.1141  0.2263 -0.3838
   72MOL   C31123173   3.618   0.037   0.999  0.3014  0.0683  0.3066
   72MOL   C31223174   3.834   7.785   0.994  0.1032 -0.3203  0.0251
   72MOL   H31323175   3.686   0.240   1.479  1.4748  0.7274 -0.3325
   72MOL   H31423176   3.836   0.155   1.457 -0.7784  0.8635  3.0991
   72MOL   H31523177   3.588   0.122   1.279  0.3732 -0.5948  0.4668
   72MOL   H31623178   3.640   0.045   0.893 -0.1575 -1.8018  0.0634
   72MOL   H31723179   3.552   7.810   1.030  1.2705 -0.1107  2.0090
   72MOL   H31823180   3.567   0.126   1.036 -0.4280  0.5583 -1.8533
   72MOL   H31923181   3.884   7.717   1.063 -1.2381 -1.4312 -0.0873
   72MOL   H32023182   3.903   7.842   0.932 -0.7248 -1.3363 -1.8769
   72MOL   H32123183   3.780   7.723   0.923 -0.4359  2.0733 -1.7094
   72MOL   H32223184   3.678   0.262   1.254 -0.8245  1.1614  2.8264
   73MOL     C123185   6.990   2.538   5.247 -0.7550 -0.4113 -0.0793
   73MOL     C223186   7.045   2.649   5.329 -0.2842 -0.1389 -0.5672
   73MOL     C323187   7.201   2.634   5.304  0.4880  0.6110  0.8157
   73MOL     O423188   7.258   2.536   5.356 -0.4490  0.3185  0.0855
   73MOL     N523189   7.268   2.727   5.238  0.0755  0.0193  0.1869
   73MOL     C623190   7.412   2.711   5.214  0.0568 -0.2273 -0.3115
   73MOL     C723191   7.204   2.829   5.159 -0.3718  0.4918 -0.1443
   73MOL     H823192   7.007   2.441   5.295 -1.4395 -0.1717  0.6572
   73MOL     H923193   7.032   2.549   5.147  0.9843  1.9400  0.8696
   73MOL    H1023194   7.004   2.741   5.287 -2.8593 -0.2933  1.5143
   73MOL    H1123195   7.456   2.616   5.241 -2.2383 -0.7553  1.7951
   73MOL    H1223196   7.419   2.724   5.106  0.9638  5.8026  0.2798
   73MOL    H1323197   7.472   2.796   5.247  0.0822 -0.3666 -0.0029
   73MOL    H1423198   7.167   2.908   5.225 -0.4738 -0.3414  0.7982
   73MOL    H1523199   7.130   2.778   5.098  0.1318 -1.6184  0.9733
   73MOL    H1623200   7.276   2.874   5.090 -0.3182  1.5917  0.6097
   73MOL    H1723201   6.881   2.532   5.239 -0.6413  0.1590 -2.3072
   73MOL    C1823202   7.009   2.623   5.481  0.1244 -0.1563 -0.3207
   73MOL    C1923203   6.998   2.743   5.576 -0.1966  0.2143 -0.1059
   73MOL    C2023204   6.921   2.860   5.513 -0.6397  0.1211 -0.2570
   73MOL    O2123205   6.981   2.950   5.460 -0.3945  0.1155 -0.4699
   73MOL    N2223206   6.786   2.850   5.507 -0.6039 -0.7073  0.8339
   73MOL    C2323207   6.711   2.752   5.586  0.6357  0.5777  0.1700
   73MOL    C2423208   6.704   2.934   5.419 -0.1097 -0.3876 -0.7391
   73MOL    H2523209   6.905   2.591   5.490 -0.1362  0.6976 -0.2161
   73MOL    H2623210   7.072   2.548   5.528 -1.2116 -0.1394  1.5993
   73MOL    H2723211   6.969   2.719   5.679  0.0051  3.4790  0.7868
   73MOL    H2823212   6.754   2.740   5.685 -0.2691 -1.3725  0.3384
   73MOL    H2923213   6.608   2.781   5.607  1.1903  1.6327  1.4735
   73MOL    H3023214   6.699   2.658   5.533 -0.8166  1.2687 -0.7909
   73MOL    H3123215   6.774   2.990   5.358  0.7955 -0.2333  0.4087
   73MOL    H3223216   6.651   3.013   5.474  2.3331  2.3576 -2.2150
   73MOL    H3323217   6.655   2.855   5.363  0.5682 -1.3132 -0.0365
   73MOL    C3423218   7.145   2.792   5.603  0.4382 -0.4637  0.1501
   73MOL    C3523219   7.169   2.881   5.726 -0.0531 -0.2436  0.2574
   73MOL    C3623220   7.309   2.956   5.724 -0.3971 -1.0550 -0.2646
   73MOL    O3723221   7.414   2.892   5.725  0.0473  0.0914 -0.9982
   73MOL    N3823222   7.309   3.089   5.725  0.0482  0.4989 -0.0390
   73MOL    C3923223   7.200   3.166   5.664  0.4285 -0.1297  0.1002
   73MOL    C4023224   7.435   3.158   5.723  0.2117 -0.6558 -0.3454
   73MOL    H4123225   7.212   2.707   5.619 -2.6915 -3.1363 -0.4193
   73MOL    H4223226   7.183   2.837   5.512 -0.1198 -1.6436 -0.6760
   73MOL    H4323227   7.087   2.948   5.748 -3.3138 -3.4695 -1.5240
   73MOL    H4423228   7.229   3.270   5.648  1.1865 -0.2658  0.5770
   73MOL    H4523229   7.174   3.118   5.570  2.8958 -0.4218 -0.4488
   73MOL    H4623230   7.108   3.181   5.722 -0.6114 -0.7522 -1.3509
   73MOL    H4723231   7.460   3.190   5.622  0.8044  0.6122  0.1922
   73MOL    H4823232   7.519   3.105   5.768  1.8101  1.5593 -0.6093
   73MOL    H4923233   7.429   3.250   5.782 -0.8910 -0.5888 -0.5673
   73MOL    C5023234   7.166   2.792   5.854 -0.0707 -0.1747  0.0945
   73MOL    C5123235   7.064   2.824   5.966 -0.0248 -0.2814 -0.3137
   73MOL    C5223236   7.096   2.967   6.024  0.3631 -0.3848  0.9451
   73MOL    O5323237   7.194   2.989   6.097 -0.1806  0.0187  0.5144
   73MOL    N5423238   7.023   3.072   5.979  0.0643  0.7642 -1.0620
   73MOL    C5523239   7.073   3.205   6.001 -0.0673  0.3050 -0.8243
   73MOL    C5623240   6.891   3.063   5.919  0.2487  1.0852  0.1890
   73MOL    H5723241   7.143   2.688   5.831 -0.6192 -0.5498  2.2499
   73MOL    H5823242   7.265   2.792   5.899 -0.3411 -1.1357  0.6985
   73MOL    H5923243   6.960   2.816   5.933 -0.4242  0.0564  0.8516
   73MOL    H6023244   7.175   3.214   5.965 -0.8185  1.0335 -2.8345
   73MOL    H6123245   7.022   3.284   5.945 -0.7354 -0.6621 -1.6067
   73MOL    H6223246   7.076   3.229   6.107  0.7349 -1.1445 -0.5019
   73MOL    H6323247   6.827   2.988   5.967  0.5891 -0.6665 -1.9945
   73MOL    H6423248   6.896   3.037   5.813  0.7575 -2.6460  1.0477
   73MOL    H6523249   6.846   3.162   5.925 -0.7439  0.6396  0.1858
   73MOL    C6623250   7.075   2.728   6.084  0.5206 -0.2800  0.5593
   73MOL    C6723251   6.988   2.748   6.209  0.2869 -0.0385 -0.1989
   73MOL    C6823252   7.042   2.660   6.325 -0.1161  0.6679  1.0397
   73MOL    O6923253   7.021   2.545   6.321  0.3987  0.1753  0.6033
   73MOL    N7023254   7.101   2.722   6.431 -0.2049  0.3591  0.0176
   73MOL    C7123255   7.142   2.861   6.455 -0.0879 -0.0301  0.2301
   73MOL    C7223256   7.162   2.630   6.540  0.1529 -0.0141 -1.2624
   73MOL    H7323257   7.052   2.629   6.045  1.3021 -0.3666  0.3203
   73MOL    H7423258   7.178   2.722   6.117  0.4004 -0.3098  0.9305
   73MOL    H7523259   7.000   2.854   6.230  1.7517  0.0395 -1.3055
   73MOL    H7623260   7.100   2.898   6.549  2.6391 -0.9902  1.9017
   73MOL    H7723261   7.250   2.862   6.468  0.0311  2.6916 -0.8173
   73MOL    H7823262   7.114   2.926   6.373 -1.2257  0.6687  1.1487
   73MOL    H7923263   7.152   2.668   6.641  0.2932 -3.3013  0.0600
   73MOL    H8023264   7.269   2.615   6.521 -0.1948 -3.4307 -0.9231
   73MOL    H8123265   7.115   2.532   6.553 -0.1053  0.2026 -0.5628
   73MOL    C8223266   6.840   2.718   6.180  0.3016 -0.4707  0.8531
   73MOL    C8323267   6.738   2.726   6.295 -1.0043  0.8129 -0.3457
   73MOL    C8423268   6.597   2.664   6.263 -0.3065 -0.1904  0.7087
   73MOL    O8523269   6.515   2.734   6.204 -0.0104 -0.3367  0.5620
   73MOL    N8623270   6.568   2.540   6.299  0.7110  0.0680 -0.5648
   73MOL    C8723271   6.666   2.444   6.343 -0.3748 -0.3675  0.3667
   73MOL    C8823272   6.430   2.480   6.307 -0.0106 -0.8275  0.6440
   73MOL    H8923273   6.798   2.768   6.093  1.3008 -0.5498  0.3137
   73MOL    H9023274   6.848   2.613   6.151 -0.4347 -0.8989  2.1810
   73MOL    H9123275   6.783   2.665   6.374  1.1527  2.4506 -0.2470
   73MOL    H9223276   6.707   2.481   6.437  1.5199 -0.8110 -0.2573
   73MOL    H9323277   6.637   2.339   6.337 -0.9817 -0.0846 -2.3427
   73MOL    H9423278   6.748   2.447   6.271 -0.3148 -1.3015  0.3821
   73MOL    H9523279   6.417   2.414   6.222  1.1122  0.5592 -0.6253
   73MOL    H9623280   6.356   2.560   6.294  1.8072  0.8264  0.2808
   73MOL    H9723281   6.420   2.419   6.397 -0.1059  1.2569  2.0973
   73MOL    C9823282   6.726   2.857   6.370  0.3449 -0.6115  0.6950
   73MOL    C9923283   6.686   2.988   6.298 -0.6509  0.4254  1.0534
   73MOL   C10023284   6.786   3.106   6.314  0.6263 -0.1488 -0.6166
   73MOL   O10123285   6.803   3.183   6.223 -0.0860  0.3934  0.3591
   73MOL   N10223286   6.854   3.131   6.430 -0.2384  0.4243  0.1254
   73MOL   C10323287   6.806   3.086   6.563 -0.3328 -0.4983 -0.4447
   73MOL   C10423288   6.965   3.224   6.429 -0.5178 -0.4505 -0.8181
   73MOL   H10523289   6.670   2.840   6.462  0.5865  0.1242  0.9791
   73MOL   H10623290   6.829   2.869   6.404  0.6864 -0.5908 -0.3437
   73MOL   H10723291   6.708   2.961   6.195 -0.8419 -0.5226  1.2544
   73MOL   H10823292   6.856   3.150   6.636  2.9364 -1.1042 -2.0476
   73MOL   H10923293   6.698   3.093   6.574 -0.4415  0.0830 -1.8614
   73MOL   H11023294   6.832   2.984   6.591  1.7776  0.6302  1.9380
   73MOL   H11123295   6.969   3.284   6.520 -2.8228  3.0872 -2.9486
   73MOL   H11223296   6.960   3.292   6.345  1.2770 -1.4924 -1.7871
   73MOL   H11323297   7.052   3.165   6.402 -1.5148 -1.4730 -1.8783
   73MOL   C11423298   6.542   3.035   6.314  0.1825  0.0196  0.2841
   73MOL   C11523299   6.501   3.161   6.230  0.0681 -0.7973  0.5404
   73MOL   C11623300   6.518   3.287   6.321 -0.1547 -0.3009 -0.1252
   73MOL   O11723301   6.480   3.282   6.434 -0.0676 -0.8491 -0.4361
   73MOL   N11823302   6.583   3.402   6.283  0.8260 -0.0621  0.7650
   73MOL   C11923303   6.602   3.447   6.150  0.0206  0.3399 -0.0150
   73MOL   C12023304   6.637   3.502   6.381  0.8694  0.1903  0.4959
   73MOL   H12123305   6.472   2.953   6.296  0.5682 -0.3067  0.2730
   73MOL   H12223306   6.520   3.056   6.419 -0.6936 -1.8206  0.4793
   73MOL   H12323307   6.573   3.180   6.151  0.9901 -0.6044  1.4098
   73MOL   H12423308   6.708   3.446   6.122 -0.0168 -0.3159 -0.1285
   73MOL   H12523309   6.550   3.386   6.076 -2.2667  1.1361  0.8891
   73MOL   H12623310   6.568   3.551   6.153 -1.2508 -0.1102  1.6843
   73MOL   H12723311   6.672   3.449   6.469 -3.9994 -2.1837  1.1184
   73MOL   H12823312   6.571   3.585   6.406  0.5173  0.3949 -1.0058
   73MOL   H12923313   6.723   3.549   6.332 -0.9313  2.3516 -0.6854
   73MOL   C13023314   6.357   3.159   6.176  0.4506  0.5461 -0.8443
   73MOL   C13123315   6.345   3.054   6.060 -0.0599  0.0669 -0.4633
   73MOL   C13223316   6.413   3.117   5.929  0.3007  0.1791 -0.0742
   73MOL   O13323317   6.368   3.224   5.891 -0.1786 -0.2204  0.2926
   73MOL   N13423318   6.516   3.060   5.866  0.5007  0.0322 -0.0489
   73MOL   C13523319   6.566   2.927   5.898 -0.2599 -0.4398 -0.5385
   73MOL   C13623320   6.576   3.130   5.758 -0.6038 -0.0989 -0.2041
   73MOL   H13723321   6.293   3.136   6.261 -0.3160  0.8675 -1.3255
   73MOL   H13823322   6.316   3.254   6.142 -2.1113 -0.9748 -2.2530
   73MOL   H13923323   6.393   2.958   6.077 -1.3429 -0.7966 -1.6183
   73MOL   H14023324   6.595   2.925   6.003  1.6305 -1.2532 -1.0544
   73MOL   H14123325   6.485   2.854   5.890 -0.7355  0.0961 -0.6809
   73MOL   H14223326   6.647   2.903   5.829 -0.6838  1.8234 -1.8946
   73MOL   H14323327   6.512   3.136   5.670 -0.0712 -1.3225 -0.6930
   73MOL   H14423328   6.673   3.087   5.729 -0.9012 -1.0443  0.1890
   73MOL   H14523329   6.600   3.232   5.787  1.0779 -0.7158  0.6804
   73MOL   C14623330   6.202   3.010   6.027  0.4739 -0.3747 -0.2902
   73MOL   C14723331   6.171   2.855   6.015  0.3137  0.0854 -0.2433
   73MOL   C14823332   6.211   2.805   5.875  0.0459 -0.2775  0.4017
   73MOL   O14923333   6.205   2.879   5.778  0.1024  0.3285  0.0905
   73MOL   N15023334   6.261   2.678   5.864 -0.4361 -0.3654 -0.5855
   73MOL   C15123335   6.311   2.629   5.734  0.5980 -0.2965  0.8438
   73MOL   C15223336   6.268   2.594   5.984 -0.6036 -0.0892  0.3719
   73MOL   H15323337   6.137   3.047   6.106  1.7699  0.2587  0.4923
   73MOL   H15423338   6.164   3.067   5.942 -1.3164  1.2835  1.5765
   73MOL   H15523339   6.234   2.815   6.094 -2.3113 -2.2829  0.7267
   73MOL   H15623340   6.395   2.690   5.700  2.1169 -2.4204  0.6729
   73MOL   H15723341   6.328   2.522   5.723 -0.1589 -0.3354  0.0279
   73MOL   H15823342   6.231   2.642   5.661  0.4319 -0.5421  0.9799
   73MOL   H15923343   6.174   2.584   6.039  0.0614 -1.8419  1.2239
   73MOL   H16023344   6.342   2.627   6.056  1.3341 -1.5463 -0.9040
   73MOL   H16123345   6.302   2.493   5.960  1.1840  0.4775  0.4675
   73MOL   C16223346   6.017   2.829   6.045  0.8364 -0.1811 -0.3683
   73MOL   C16323347   5.971   2.853   6.187 -0.5230  0.1172 -0.9700
   73MOL   C16423348   6.060   2.788   6.300  0.5128 -0.8085  0.1275
   73MOL   O16523349   6.096   2.671   6.274  0.2983 -0.2725  0.4600
   73MOL   N16623350   6.085   2.855   6.417  0.9890 -0.2187  0.1645
   73MOL   C16723351   6.157   2.783   6.523  0.8084 -0.3653 -0.0261
   73MOL   C16823352   6.067   2.998   6.444 -0.3829  0.5749  0.5796
   73MOL   H16923353   5.957   2.895   5.982 -0.3175 -1.7629 -0.9887
   73MOL   H17023354   5.990   2.725   6.028  0.3832 -0.3220  1.0933
   73MOL   H17123355   5.992   2.959   6.206  1.4744 -0.1052 -1.7905
   73MOL   H17223356   6.097   2.695   6.546 -0.6263  1.0829  1.9186
   73MOL   H17323357   6.251   2.740   6.489 -0.8607 -1.1137 -4.0030
   73MOL   H17423358   6.184   2.837   6.613 -1.4282 -1.5191  1.3716
   73MOL   H17523359   6.093   3.035   6.543 -1.6438  5.3524 -0.7245
   73MOL   H17623360   5.973   3.048   6.420  0.5530  1.4103 -1.5094
   73MOL   H17723361   6.142   3.046   6.381  0.7458  1.2040  2.3748
   73MOL   C17823362   5.816   2.833   6.204 -0.5559  0.1759 -0.0480
   73MOL   C17923363   5.765   2.684   6.194 -0.0745  0.2116  0.5292
   73MOL   C18023364   5.748   2.647   6.042 -0.1200  0.1600  0.4544
   73MOL   O18123365   5.686   2.724   5.974 -1.0044  0.5494  0.4583
   73MOL   N18223366   5.807   2.534   5.989  0.1579 -0.1020 -0.0635
   73MOL   C18323367   5.769   2.471   5.866 -0.0412  0.2477  0.3077
   73MOL   C18423368   5.911   2.451   6.058  0.2048 -0.5541 -0.3055
   73MOL   H18523369   5.796   2.879   6.301  2.7326  1.7789 -0.0397
   73MOL   H18623370   5.771   2.896   6.128  0.1471  1.0693  0.2636
   73MOL   H18723371   5.820   2.612   6.255  0.4915  0.5543  0.4325
   73MOL   H18823372   5.821   2.378   5.847  0.1498  0.3205  0.4720
   73MOL   H18923373   5.661   2.452   5.861  0.1413 -1.2529  1.8875
   73MOL   H19023374   5.807   2.546   5.796 -2.8368  0.1876 -1.3563
   73MOL   H19123375   5.858   2.372   6.112 -0.2489  0.1619  0.3099
   73MOL   H19223376   5.969   2.518   6.122 -2.0426  1.0874  0.0759
   73MOL   H19323377   5.985   2.421   5.985 -1.9612 -1.8420 -2.0105
   73MOL   C19423378   5.630   2.672   6.270 -0.4297  0.5121  0.1677
   73MOL   C19523379   5.565   2.534   6.255  0.6351  0.5971 -0.3365
   73MOL   C19623380   5.424   2.539   6.318  0.4656  0.2445  0.5197
   73MOL   O19723381   5.409   2.509   6.435  0.1841  0.2537 -0.2163
   73MOL   N19823382   5.319   2.574   6.239  0.0917 -0.4395  0.4303
   73MOL   C19923383   5.329   2.607   6.093 -1.5034 -0.2226  0.4362
   73MOL   C20023384   5.181   2.546   6.279  0.1660  0.0902 -0.7781
   73MOL   H20123385   5.639   2.701   6.375 -0.9562 -2.0091  0.9466
   73MOL   H20223386   5.577   2.756   6.227  0.0588  0.3961 -0.6817
   73MOL   H20323387   5.563   2.511   6.149  0.8810  0.9248 -0.4111
   73MOL   H20423388   5.366   2.517   6.044 -0.8736  0.0913  0.3326
   73MOL   H20523389   5.236   2.635   6.044 -0.2387  0.6927 -1.5063
   73MOL   H20623390   5.397   2.692   6.088 -0.1778 -1.3483 -1.0824
   73MOL   H20723391   5.106   2.591   6.214 -1.8185 -0.5700  0.9978
   73MOL   H20823392   5.161   2.595   6.374  1.9242 -0.5519 -0.0533
   73MOL   H20923393   5.158   2.439   6.279  0.1043  0.1020 -0.2565
   73MOL   C21023394   5.648   2.421   6.321 -0.0190 -0.0031  0.4455
   73MOL   C21123395   5.583   2.280   6.300 -0.0790 -0.7350  0.0897
   73MOL   C21223396   5.653   2.177   6.386 -0.0948  0.4989  0.1264
   73MOL   O21323397   5.765   2.152   6.347  0.5890  0.2745 -0.6158
   73MOL   N21423398   5.602   2.117   6.493  0.5202  0.0956  0.0573
   73MOL   C21523399   5.480   2.150   6.565 -0.2207 -0.7155  0.0536
   73MOL   C21623400   5.674   2.002   6.554 -0.9217  0.0458 -0.3783
   73MOL   H21723401   5.747   2.422   6.276 -0.5318  0.7765 -0.6879
   73MOL   H21823402   5.649   2.450   6.425 -0.0480 -1.1202  0.7671
   73MOL   H21923403   5.481   2.287   6.339 -0.3560 -0.4628 -0.6734
   73MOL   H22023404   5.418   2.062   6.580  1.2559 -1.8996 -0.7079
   73MOL   H22123405   5.514   2.188   6.662  1.7379 -1.8717 -0.1598
   73MOL   H22223406   5.420   2.231   6.523  0.9073 -0.9456 -2.0573
   73MOL   H22323407   5.610   1.948   6.624  1.8199 -1.5710  1.0230
   73MOL   H22423408   5.765   2.023   6.611  0.6749 -1.9776 -2.0860
   73MOL   H22523409   5.691   1.930   6.474  1.5573  0.2978 -0.1338
   73MOL   C22623410   5.568   2.237   6.149 -1.0157 -0.0811 -0.8464
   73MOL   C22723411   5.473   2.114   6.128 -0.0670 -0.3631  0.2819
   73MOL   C22823412   5.500   2.048   5.987  0.4086  1.5390 -0.2794
   73MOL   O22923413   5.426   2.082   5.894  0.2730  0.2249 -0.0618
   73MOL   N23023414   5.585   1.943   5.981 -0.3358 -0.0669  0.3201
   73MOL   C23123415   5.617   1.887   5.847  0.4300 -0.1249  0.2395
   73MOL   C23223416   5.688   1.900   6.079  0.1043  0.0868  0.2249
   73MOL   H23323417   5.548   2.321   6.083  2.4952 -0.6420 -2.7476
   73MOL   H23423418   5.665   2.205   6.110 -1.1021 -0.5745 -0.6578
   73MOL   H23523419   5.506   2.044   6.204  0.2889  2.0735  2.4500
   73MOL   H23623420   5.651   1.784   5.856 -0.6068 -0.5988 -1.1252
   73MOL   H23723421   5.539   1.867   5.774  1.3091  1.0985 -1.0587
   73MOL   H23823422   5.693   1.946   5.795 -0.5660  0.3610 -0.6736
   73MOL   H23923423   5.738   1.990   6.115 -0.5119 -1.1216  4.3653
   73MOL   H24023424   5.764   1.831   6.042  0.3620  0.7121 -0.4214
   73MOL   H24123425   5.642   1.862   6.170 -1.0155  0.7502 -0.0599
   73MOL   C24223426   5.322   2.145   6.156  0.5120 -0.3204  0.0497
   73MOL   C24323427   5.214   2.041   6.111  0.1363  0.0540 -0.1988
   73MOL   C24423428   5.075   2.119   6.106  0.4016 -0.5380  0.0757
   73MOL   O24523429   5.022   2.148   6.216  0.0312  0.9116 -0.2945
   73MOL   N24623430   5.018   2.147   5.985  0.1747  0.2068  0.1634
   73MOL   C24723431   4.890   2.217   5.969 -0.4871 -0.2036 -0.1155
   73MOL   C24823432   5.078   2.104   5.857 -0.3974  0.2958 -0.1766
   73MOL   H24923433   5.297   2.191   6.251 -0.9600 -1.3688  0.1714
   73MOL   H25023434   5.306   2.232   6.092  1.1847 -0.4750 -0.3351
   73MOL   H25123435   5.246   1.991   6.019  1.0465 -2.5169  1.4537
   73MOL   H25223436   4.835   2.208   5.876  1.0784  2.0933 -1.3258
   73MOL   H25323437   4.828   2.177   6.049  0.2096 -1.3099 -0.1140
   73MOL   H25423438   4.894   2.323   5.995 -0.0143  0.0502 -1.2233
   73MOL   H25523439   5.178   2.143   5.837  0.5612 -1.1355  1.6226
   73MOL   H25623440   5.031   2.151   5.770 -2.0314  1.5064  1.3317
   73MOL   H25723441   5.062   1.997   5.844  0.1138  0.0946  0.8311
   73MOL   C25823442   5.205   1.922   6.218 -0.6201 -0.2735  0.3650
   73MOL   C25923443   5.124   1.798   6.175  0.4484 -0.0082  0.6082
   73MOL   C26023444   5.084   1.730   6.303 -0.2938 -0.2703  0.0417
   73MOL   O26123445   5.158   1.647   6.355  0.4427 -0.2549 -0.7049
   73MOL   N26223446   4.963   1.766   6.355  0.1079  0.5582 -0.3206
   73MOL   C26323447   4.920   1.719   6.490 -0.3187  0.1190  0.7960
   73MOL   C26423448   4.861   1.862   6.295  0.0293  0.2548 -0.1464
   73MOL   H26523449   5.307   1.903   6.252 -0.6175 -0.4494  0.2579
   73MOL   H26623450   5.156   1.972   6.301 -2.2033  1.4252 -1.5368
   73MOL   H26723451   5.034   1.842   6.131  0.0788  0.1719  1.5414
   73MOL   H26823452   4.939   1.612   6.490 -0.3787  0.1056 -0.7621
   73MOL   H26923453   4.986   1.770   6.561  1.9972 -0.4033 -0.9043
   73MOL   H27023454   4.815   1.734   6.512 -0.2497  1.1479  0.4451
   73MOL   H27123455   4.846   1.846   6.189 -0.6344 -1.3249  0.1702
   73MOL   H27223456   4.897   1.964   6.301  0.3593  0.1159  0.2583
   73MOL   H27323457   4.761   1.855   6.340 -0.4287 -0.5609 -1.2743
   73MOL   C27423458   5.216   1.720   6.072  0.2257 -0.3029  0.2064
   73MOL   C27523459   5.157   1.719   5.928  0.1927  0.0458  0.0115
   73MOL   C27623460   5.048   1.615   5.931  0.1442 -0.8247  1.4230
   73MOL   O27723461   5.081   1.507   5.969 -0.2220  0.0485  0.2045
   73MOL   N27823462   4.918   1.657   5.911  0.4814 -0.1128  0.0286
   73MOL   C27923463   4.877   1.788   5.852 -0.1953  0.1706 -0.0183
   73MOL   C28023464   4.807   1.585   5.964 -0.2686 -0.5313 -0.1533
   73MOL   H28123465   5.304   1.785   6.071  1.0200 -1.3528  0.5598
   73MOL   H28223466   5.241   1.619   6.106  1.5257  0.4499  1.6078
   73MOL   H28323467   5.108   1.816   5.919 -1.5407 -0.6760  1.3734
   73MOL   H28423468   4.928   1.813   5.758  3.1785  1.2738  2.0062
   73MOL   H28523469   4.771   1.789   5.829  0.2836 -1.1061 -2.4056
   73MOL   H28623470   4.894   1.867   5.926 -2.2349  1.1556 -0.5638
   73MOL   H28723471   4.834   1.483   5.991  0.0402 -0.2485  0.6444
   73MOL   H28823472   4.736   1.572   5.883 -0.0639 -0.4536 -0.3446
   73MOL   H28923473   4.765   1.637   6.050 -3.4020 -0.7943 -1.4894
   73MOL   C29023474   5.274   1.695   5.824  1.0683 -0.4297  0.5468
   73MOL   C29123475   5.223   1.700   5.674 -0.1803 -0.1163  0.7308
   73MOL   C29223476   5.324   1.601   5.609  0.1507  0.2408  0.3740
   73MOL   O29323477   5.425   1.657   5.567 -0.0755 -1.2235  0.1643
   73MOL   N29423478   5.294   1.465   5.595 -0.1649 -0.1581 -0.2928
   73MOL   C29523479   5.385   1.378   5.531  0.3499  0.0460  0.8123
   73MOL   C29623480   5.163   1.408   5.643  0.1764 -0.0348 -0.0216
   73MOL   H29723481   5.344   1.777   5.839  0.0643  0.6649 -0.5210
   73MOL   H29823482   5.320   1.600   5.849  0.8606 -0.3207  1.3669
   73MOL   H29923483   5.125   1.652   5.666  0.1584 -0.8817  1.0778
   73MOL   H30023484   5.368   1.276   5.566  0.2460 -0.5969 -1.0711
   73MOL   H30123485   5.366   1.376   5.424  2.0340 -0.3218  0.5043
   73MOL   H30223486   5.486   1.402   5.564 -0.0943  1.1725  1.3809
   73MOL   H30323487   5.149   1.303   5.619 -2.6249  0.7412 -1.9503
   73MOL   H30423488   5.077   1.458   5.598  0.0981  0.1411  0.3198
   73MOL   H30523489   5.166   1.424   5.751 -1.0865  2.1669 -0.2784
   73MOL   C30623490   5.205   1.831   5.611 -0.0985  0.0334  0.1220
   73MOL   C30723491   5.180   1.827   5.458  0.2295  0.0806 -0.4659
   73MOL   C30823492   5.045   1.769   5.417  1.3998 -0.2766 -0.2250
   73MOL   O30923493   4.946   1.797   5.489  0.1519  0.3999  0.5048
   73MOL   N31023494   5.040   1.688   5.308  0.0201 -0.0842 -0.2212
   73MOL   C31123495   4.908   1.630   5.277 -0.7148  0.7151 -0.1196
   73MOL   C31223496   5.145   1.665   5.203  0.8452 -0.4148 -0.3987
   73MOL   H31323497   5.123   1.875   5.667  0.1940  1.9900 -0.9795
   73MOL   H31423498   5.299   1.886   5.619  0.3953 -1.0647  2.6202
   73MOL   H31523499   5.183   1.934   5.435 -1.8431 -0.2579 -2.3928
   73MOL   H31623500   4.870   1.578   5.365 -0.9193  1.2830  0.1331
   73MOL   H31723501   4.841   1.703   5.230  0.4286  0.7952 -1.6806
   73MOL   H31823502   4.917   1.559   5.195  1.2542  1.7061 -0.8021
   73MOL   H31923503   5.220   1.601   5.249  1.8478 -0.1896 -1.7086
   73MOL   H32023504   5.188   1.762   5.177 -2.8776  1.6819  0.8897
   73MOL   H32123505   5.110   1.619   5.111  0.9184  0.3544 -0.8176
   73MOL   H32223506   5.264   1.794   5.398 -0.5435 -1.1483 -0.8762
   74MOL     C123507   7.091   3.566   5.419  0.1498 -0.1817  0.1214
   74MOL     C223508   6.966   3.552   5.499  0.6643 -0.1531 -0.2286
   74MOL     C323509   6.843   3.513   5.405 -0.5279  0.2585 -0.0168
   74MOL     O423510   6.807   3.583   5.309  0.5533  0.2682 -0.6784
   74MOL     N523511   6.770   3.401   5.431 -0.5629  0.1194 -0.8476
   74MOL     C623512   6.756   3.353   5.567 -0.1211  0.9685  0.4915
   74MOL     C723513   6.654   3.363   5.352 -0.0916  0.6228  0.2873
   74MOL     H823514   7.189   3.570   5.467  1.1125  1.4762 -1.8816
   74MOL     H923515   7.078   3.654   5.356  0.6195  0.2401  0.6057
   74MOL    H1023516   6.993   3.468   5.563 -2.8058 -1.8689 -0.8993
   74MOL    H1123517   6.652   3.368   5.593  0.1641  0.8259  1.7564
   74MOL    H1223518   6.788   3.248   5.568  1.8216  1.4202 -3.4984
   74MOL    H1323519   6.824   3.406   5.633  1.5572  0.3118 -0.6508
   74MOL    H1423520   6.679   3.340   5.248  1.4914  0.5136  0.6818
   74MOL    H1523521   6.576   3.438   5.346 -1.3292 -0.7364 -1.1648
   74MOL    H1623522   6.609   3.268   5.380  1.0263 -0.1892 -0.6194
   74MOL    H1723523   7.102   3.479   5.355 -0.2887 -0.1220 -0.0362
   74MOL    C1823524   6.919   3.671   5.588  0.1766  0.2952  0.6341
   74MOL    C1923525   7.024   3.730   5.676  0.1690  0.0992 -0.5707
   74MOL    C2023526   7.083   3.629   5.777  0.6585  0.3374 -0.2129
   74MOL    O2123527   7.019   3.535   5.816  0.1416  0.1908 -0.1786
   74MOL    N2223528   7.218   3.635   5.796 -0.5129  0.1984 -0.3651
   74MOL    C2323529   7.304   3.733   5.733  0.4062  0.6297  0.0654
   74MOL    C2423530   7.290   3.531   5.861 -1.1143  0.2640  0.0372
   74MOL    H2523531   6.886   3.752   5.523  0.8813 -0.1948 -0.3463
   74MOL    H2623532   6.838   3.638   5.652 -1.2126 -0.7346 -1.6246
   74MOL    H2723533   7.099   3.775   5.612 -1.7343  1.1778 -2.0749
   74MOL    H2823534   7.403   3.734   5.779  1.3072  0.4455 -1.8213
   74MOL    H2923535   7.316   3.732   5.625  1.4529 -3.3807  0.1196
   74MOL    H3023536   7.266   3.831   5.760  2.4393  2.4903 -3.4281
   74MOL    H3123537   7.356   3.576   5.935  0.3487 -1.7237 -0.0221
   74MOL    H3223538   7.356   3.482   5.789 -1.2643  0.2339 -0.0804
   74MOL    H3323539   7.224   3.462   5.914  1.3506 -1.1941  1.3045
   74MOL    C3423540   6.975   3.856   5.751 -0.1056 -0.1555 -0.0057
   74MOL    C3523541   6.856   3.836   5.848  0.3364  0.4474 -0.2117
   74MOL    C3623542   6.713   3.856   5.783 -0.2406  0.2988  0.3325
   74MOL    O3723543   6.695   3.962   5.710 -0.2905 -0.0884  0.3713
   74MOL    N3823544   6.609   3.772   5.816 -0.0303  0.0693  0.2805
   74MOL    C3923545   6.482   3.786   5.747  0.1432  0.4858 -0.3907
   74MOL    C4023546   6.618   3.652   5.895 -0.0826 -0.0558 -0.7391
   74MOL    H4123547   7.058   3.898   5.808  0.1280 -0.0099 -0.4567
   74MOL    H4223548   6.952   3.938   5.683  0.1759 -0.4277 -0.4337
   74MOL    H4323549   6.869   3.733   5.881  0.5121  1.1945  2.1671
   74MOL    H4423550   6.454   3.892   5.751 -1.3234  0.0466  1.6237
   74MOL    H4523551   6.492   3.748   5.645  2.8939 -1.0344  0.4024
   74MOL    H4623552   6.402   3.735   5.800 -2.5041  3.0998 -1.7256
   74MOL    H4723553   6.669   3.673   5.989 -2.4135 -1.0987  0.8147
   74MOL    H4823554   6.659   3.571   5.834  0.5126  0.3707 -0.9095
   74MOL    H4923555   6.525   3.598   5.913  0.4676 -0.7057  0.2609
   74MOL    C5023556   6.868   3.919   5.975  0.1144 -0.1697 -0.3545
   74MOL    C5123557   6.973   3.885   6.086  0.1208  0.0981 -0.0986
   74MOL    C5223558   6.959   3.732   6.132 -0.1405 -0.3769 -0.1539
   74MOL    O5323559   6.850   3.681   6.138  0.2572 -1.3167  0.0547
   74MOL    N5423560   7.073   3.665   6.170 -0.7904  0.5613  0.5993
   74MOL    C5523561   7.054   3.517   6.190 -0.3954  0.1620 -0.0151
   74MOL    C5623562   7.207   3.712   6.175  0.7692 -0.3486 -0.2259
   74MOL    H5723563   6.872   4.023   5.940  2.5171 -0.4551 -1.0653
   74MOL    H5823564   6.768   3.919   6.018 -0.3125  1.3885 -1.2771
   74MOL    H5923565   7.071   3.892   6.038  0.2009 -0.5953 -0.0531
   74MOL    H6023566   6.983   3.498   6.271  1.1186 -4.2140  0.4731
   74MOL    H6123567   7.011   3.459   6.109 -1.4489  0.3947  0.3683
   74MOL    H6223568   7.147   3.468   6.221 -0.1441 -0.2546 -1.4025
   74MOL    H6323569   7.238   3.687   6.277 -0.9317 -0.5845  0.2440
   74MOL    H6423570   7.211   3.820   6.165  0.0332 -0.3972 -1.0953
   74MOL    H6523571   7.279   3.676   6.101 -1.4680 -0.4928 -2.3813
   74MOL    C6623572   6.967   3.997   6.204 -0.3606  0.6684  0.1142
   74MOL    C6723573   6.873   3.975   6.321  1.0449  0.2067  0.4409
   74MOL    C6823574   6.739   4.052   6.304 -0.2522 -0.0790 -0.2354
   74MOL    O6923575   6.749   4.171   6.310  0.0816 -0.4041  0.2093
   74MOL    N7023576   6.616   3.989   6.297 -0.3087 -0.3087  0.0775
   74MOL    C7123577   6.487   4.065   6.314 -0.4842  0.2734 -0.1153
   74MOL    C7223578   6.597   3.845   6.283 -0.0046 -0.2343  0.0506
   74MOL    H7323579   7.071   4.013   6.233  0.0955 -1.5163 -0.2251
   74MOL    H7423580   6.945   4.095   6.162 -3.5756 -0.0150  0.0873
   74MOL    H7523581   6.862   3.867   6.335 -0.7318  0.4617  1.1425
   74MOL    H7623582   6.495   4.167   6.279  1.4348 -0.0040 -0.5252
   74MOL    H7723583   6.404   4.020   6.260 -0.3648  0.8476 -0.7812
   74MOL    H7823584   6.462   4.075   6.420 -1.6577  2.1824 -0.5570
   74MOL    H7923585   6.660   3.795   6.357 -0.4924  1.0625  1.3608
   74MOL    H8023586   6.618   3.819   6.179  1.7217  0.5942  0.1636
   74MOL    H8123587   6.497   3.817   6.315  0.6693  0.0106  2.5020
   74MOL    C8223588   6.942   4.024   6.459  0.0057 -1.0956  0.5103
   74MOL    C8323589   6.925   3.919   6.581 -0.2683 -0.3195 -0.4289
   74MOL    C8423590   6.993   3.787   6.551  0.3257  0.3754  0.0347
   74MOL    O8523591   6.938   3.698   6.485  0.0683 -0.2799 -0.6069
   74MOL    N8623592   7.124   3.772   6.592 -0.1487  0.1812  0.0994
   74MOL    C8723593   7.201   3.642   6.599 -0.7706 -0.3167  0.6052
   74MOL    C8823594   7.209   3.874   6.650  0.8413 -0.4386 -0.5528
   74MOL    H8923595   7.049   4.043   6.455  0.0404 -1.4112 -0.2289
   74MOL    H9023596   6.895   4.117   6.490 -0.3034 -0.7258 -1.0019
   74MOL    H9123597   6.970   3.965   6.669 -0.6618 -2.2625  0.8099
   74MOL    H9223598   7.156   3.580   6.521  0.6974 -0.7620  0.1094
   74MOL    H9323599   7.308   3.644   6.583 -1.0708  0.1675 -1.4489
   74MOL    H9423600   7.179   3.595   6.696  1.6430  0.2346  1.4530
   74MOL    H9523601   7.304   3.864   6.597  0.5587 -1.0506 -0.9443
   74MOL    H9623602   7.224   3.873   6.758 -0.2104 -0.5431 -0.4080
   74MOL    H9723603   7.184   3.979   6.632  0.2887 -0.6241 -0.8711
   74MOL    C9823604   6.780   3.908   6.623  0.1087 -0.2371  0.0726
   74MOL    C9923605   6.736   3.804   6.735  0.1412 -0.3283  0.2773
   74MOL   C10023606   6.611   3.724   6.703  0.6614 -0.0025  0.6196
   74MOL   O10123607   6.506   3.787   6.676 -0.1898 -0.0572 -0.1958
   74MOL   N10223608   6.603   3.595   6.736 -0.2435 -0.2155  0.2312
   74MOL   C10323609   6.479   3.516   6.732 -0.0990 -0.2476 -0.2017
   74MOL   C10423610   6.720   3.509   6.751  0.1184 -0.0937  0.2306
   74MOL   H10523611   6.736   4.003   6.652 -1.3547 -0.8023 -0.2456
   74MOL   H10623612   6.724   3.873   6.536 -0.1066 -2.2163  0.9845
   74MOL   H10723613   6.822   3.742   6.761  0.4647  0.0212  0.0375
   74MOL   H10823614   6.385   3.571   6.726 -0.4387 -0.8299 -0.1826
   74MOL   H10923615   6.474   3.431   6.664 -2.2294 -1.0104  0.8665
   74MOL   H11023616   6.476   3.484   6.836  1.5801  1.2839  0.3365
   74MOL   H11123617   6.783   3.505   6.663 -1.8605 -3.3091 -1.1305
   74MOL   H11223618   6.698   3.404   6.769 -0.2186 -0.3716 -1.7505
   74MOL   H11323619   6.779   3.550   6.833 -2.2587  0.7653  1.5584
   74MOL   C11423620   6.709   3.881   6.873 -0.3216  0.0598 -0.5373
   74MOL   C11523621   6.828   3.968   6.934 -0.0854 -0.9138  0.0233
   74MOL   C11623622   6.933   3.887   7.010 -0.2984  0.2492  0.4636
   74MOL   O11723623   6.899   3.782   7.069 -0.0702 -0.4582 -0.3076
   74MOL   N11823624   7.065   3.923   7.000  0.0362  0.4752 -0.8839
   74MOL   C11923625   7.169   3.832   7.052  0.7280 -0.0072 -0.3479
   74MOL   C12023626   7.111   4.067   6.964 -0.2996 -0.5696 -0.0407
   74MOL   H12123627   6.622   3.944   6.851  0.4824  2.3943  2.6005
   74MOL   H12223628   6.682   3.803   6.945  0.4474 -0.1816 -0.5127
   74MOL   H12323629   6.878   4.014   6.849  0.3873  1.7369  1.6998
   74MOL   H12423630   7.147   3.732   7.014  2.7149 -1.3408  1.9167
   74MOL   H12523631   7.270   3.861   7.025  1.3610 -2.6526 -0.9569
   74MOL   H12623632   7.146   3.824   7.158 -0.0588  1.3415 -0.4016
   74MOL   H12723633   7.187   4.069   6.885 -0.0203 -0.4958  0.2274
   74MOL   H12823634   7.157   4.115   7.051 -0.0348  1.0475 -1.0511
   74MOL   H12923635   7.028   4.135   6.946 -0.0048  0.0729  0.9468
   74MOL   C13023636   6.763   4.073   7.033  0.1971  0.8111 -0.3056
   74MOL   C13123637   6.686   4.189   6.975 -0.9527 -0.2028  0.0402
   74MOL   C13223638   6.749   4.258   6.849  0.1711  0.2420 -0.4564
   74MOL   O13323639   6.862   4.302   6.867 -0.0306  0.1551  0.9564
   74MOL   N13423640   6.679   4.291   6.739  0.0355  0.7164 -0.1843
   74MOL   C13523641   6.570   4.207   6.687  0.5015  0.0440  0.4891
   74MOL   C13623642   6.718   4.394   6.652 -0.5688 -0.1438 -0.1115
   74MOL   H13723643   6.707   4.019   7.109  1.5291  0.3386  0.3395
   74MOL   H13823644   6.850   4.119   7.080  0.7906  0.0635 -0.6709
   74MOL   H13923645   6.588   4.143   6.966  0.3854 -3.1709  0.1707
   74MOL   H14023646   6.586   4.166   6.588  0.8059  2.4619 -0.5010
   74MOL   H14123647   6.540   4.132   6.761 -2.9374  0.5393 -0.3172
   74MOL   H14223648   6.480   4.268   6.677 -0.4419 -1.6618 -1.5340
   74MOL   H14323649   6.776   4.354   6.569  0.7233  0.8750  0.2870
   74MOL   H14423650   6.769   4.473   6.708 -1.6436 -0.5706  1.5111
   74MOL   H14523651   6.640   4.448   6.598 -0.8066 -0.8759 -0.5010
   74MOL   C14623652   6.665   4.294   7.084 -0.3214  0.5424  0.2660
   74MOL   C14723653   6.590   4.269   7.211 -0.0471  0.2101 -0.1176
   74MOL   C14823654   6.444   4.207   7.197  0.2734 -0.3490  0.7376
   74MOL   O14923655   6.383   4.249   7.100 -0.0050  0.0232 -0.6898
   74MOL   N15023656   6.396   4.115   7.284 -0.1268  1.7840 -0.0707
   74MOL   C15123657   6.481   4.056   7.391 -0.0651 -0.8114 -0.2461
   74MOL   C15223658   6.279   4.032   7.272  0.6302  0.3147 -0.0464
   74MOL   H15323659   6.759   4.345   7.106  0.8566 -2.1462  1.6753
   74MOL   H15423660   6.607   4.364   7.023 -0.1818  0.7656  0.3893
   74MOL   H15523661   6.651   4.202   7.272 -0.6151  0.6040  0.8924
   74MOL   H15623662   6.522   4.142   7.443 -1.7926  0.2985 -0.6773
   74MOL   H15723663   6.424   4.000   7.465  0.6072 -0.3897  0.5922
   74MOL   H15823664   6.549   3.989   7.338 -0.5476 -0.4472 -1.3317
   74MOL   H15923665   6.213   4.070   7.194  2.8675  0.2349 -2.0310
   74MOL   H16023666   6.225   3.994   7.359 -1.6140 -0.3200 -1.6717
   74MOL   H16123667   6.313   3.934   7.238 -0.1161 -0.1974  0.6443
   74MOL   C16223668   6.582   4.387   7.314 -0.3564  0.2440 -0.2900
   74MOL   C16323669   6.492   4.510   7.284 -0.5654 -0.1504 -0.2337
   74MOL   C16423670   6.543   4.591   7.167  0.2830  0.4939  0.5023
   74MOL   O16523671   6.643   4.661   7.181  0.4149 -0.3179  0.4610
   74MOL   N16623672   6.475   4.586   7.044  0.6775  0.4980 -0.2019
   74MOL   C16723673   6.327   4.590   7.042  0.2321  0.4217 -0.7089
   74MOL   C16823674   6.541   4.632   6.923 -0.4307 -0.9324 -0.3361
   74MOL   H16923675   6.561   4.345   7.412  0.2794 -0.4598 -0.4514
   74MOL   H17023676   6.682   4.431   7.313 -0.7124  1.1608  1.6065
   74MOL   H17123677   6.391   4.476   7.263 -0.2226 -2.9574  2.2734
   74MOL   H17223678   6.296   4.668   7.112 -0.1639  1.6847 -2.2728
   74MOL   H17323679   6.288   4.627   6.947  1.0130 -1.4173 -1.7709
   74MOL   H17423680   6.286   4.496   7.080  0.5604  0.8651  0.7649
   74MOL   H17523681   6.538   4.741   6.917  1.2737 -0.7559  1.2836
   74MOL   H17623682   6.486   4.584   6.843  3.1067 -2.1623 -2.1547
   74MOL   H17723683   6.645   4.600   6.926 -0.2010 -0.1676  0.2669
   74MOL   C17823684   6.464   4.599   7.412  0.2947 -0.1268 -0.2995
   74MOL   C17923685   6.392   4.540   7.536  0.3830 -0.5047  0.2006
   74MOL   C18023686   6.260   4.460   7.501 -0.9051  0.7230 -0.5451
   74MOL   O18123687   6.184   4.507   7.412 -0.2451 -0.7014  0.2265
   74MOL   N18223688   6.235   4.342   7.564 -0.1502 -0.0220 -0.1110
   74MOL   C18323689   6.313   4.289   7.681 -0.4575 -0.1154  0.4665
   74MOL   C18423690   6.117   4.265   7.537 -0.4833  0.2729 -0.6293
   74MOL   H18523691   6.561   4.636   7.444  0.1038  0.1015  0.0220
   74MOL   H18623692   6.408   4.683   7.370  0.6699 -0.4056 -1.3956
   74MOL   H18723693   6.462   4.468   7.576  0.7829  0.7839  1.8764
   74MOL   H18823694   6.293   4.360   7.762 -2.7800 -0.4275  0.2172
   74MOL   H18923695   6.271   4.195   7.718 -0.0565 -0.0192  1.1784
   74MOL   H19023696   6.419   4.284   7.658 -0.4665 -1.5834  0.6552
   74MOL   H19123697   6.108   4.256   7.429  1.8057 -0.6202 -0.7758
   74MOL   H19223698   6.017   4.297   7.567 -0.4526  0.5559 -0.8399
   74MOL   H19323699   6.121   4.161   7.570  1.5823  0.0967 -1.3614
   74MOL   C19423700   6.358   4.646   7.643  0.0360 -0.6174  0.6410
   74MOL   C19523701   6.473   4.714   7.728  0.0082 -0.4663 -0.1880
   74MOL   C19623702   6.518   4.624   7.842 -0.5432  0.5242 -0.1993
   74MOL   O19723703   6.435   4.601   0.076 -0.2563  0.0177  0.4195
   74MOL   N19823704   6.644   4.572   7.837 -0.0972  0.1476  0.3511
   74MOL   C19923705   6.679   4.470   0.081  0.5402  0.0411 -0.8008
   74MOL   C20023706   6.745   4.582   7.724  0.2340  0.1825  0.0880
   74MOL   H20123707   6.324   4.725   7.574 -0.4063  0.0936  1.6577
   74MOL   H20223708   6.275   4.615   7.706 -0.1852  0.0102  0.6620
   74MOL   H20323709   6.556   4.731   7.659  2.0209  1.2099  2.5651
   74MOL   H20423710   6.615   4.388   0.048  0.0600  0.3372 -0.6293
   74MOL   H20523711   6.780   4.432   0.093  0.3937  0.0866  0.8144
   74MOL   H20623712   6.646   4.496   0.182  0.7376 -3.2200  0.1672
   74MOL   H20723713   6.722   4.509   7.647  2.5648  2.0895 -2.4933
   74MOL   H20823714   6.848   4.571   7.760  0.4397 -0.0691 -0.5801
   74MOL   H20923715   6.746   4.686   7.693 -2.1769  0.0641 -0.4675
   74MOL   C21023716   6.423   4.852   7.769 -0.0087  0.6945  0.2371
   74MOL   C21123717   6.527   4.937   7.851 -0.1392 -0.2625 -0.1865
   74MOL   C21223718   6.517   4.917   0.151  0.7639  0.8262  1.3187
   74MOL   O21323719   6.403   4.936   0.196  0.2160  0.3167  0.3484
   74MOL   N21423720   6.630   4.876   0.220 -0.5990 -0.6479 -0.3815
   74MOL   C21523721   6.636   4.867   0.366 -0.0088  0.4811 -0.2999
   74MOL   C21623722   6.767   4.881   0.166 -0.5042 -0.5718 -0.0421
   74MOL   H21723723   6.403   4.902   7.675 -0.6018 -0.4463 -0.2575
   74MOL   H21823724   6.335   4.836   7.831  1.5697 -0.3179  2.2937
   74MOL   H21923725   6.623   4.908   7.808 -0.2241 -0.2675 -0.3736
   74MOL   H22023726   6.671   4.957   0.417 -1.6257  2.3601 -2.4306
   74MOL   H22123727   6.533   4.854   0.400  0.8306 -3.2962  1.0631
   74MOL   H22223728   6.696   4.782   0.400 -2.4105 -0.6493  1.2872
   74MOL   H22323729   6.790   4.792   0.109  1.3154  0.4375 -0.9268
   74MOL   H22423730   6.840   4.889   0.246  0.0595 -2.6103 -0.3414
   74MOL   H22523731   6.779   4.965   0.098  0.2994 -2.2135 -1.9772
   74MOL   C22623732   6.520   5.090   7.828 -0.0614 -0.5263 -0.6243
   74MOL   C22723733   6.525   5.145   7.680 -0.3827  0.2064 -0.1846
   74MOL   C22823734   6.626   5.073   7.587  0.5254 -0.1540 -0.2626
   74MOL   O22923735   6.733   5.063   7.645 -0.2971  0.0563  0.8442
   74MOL   N23023736   6.603   5.024   7.465 -0.0653  0.2714 -0.0436
   74MOL   C23123737   6.475   5.033   7.387  0.5316  0.0491  0.2053
   74MOL   C23223738   6.697   4.931   7.400  0.2952 -0.4834 -0.0298
   74MOL   H23323739   6.425   5.117   0.020  0.4569 -0.4484  0.4442
   74MOL   H23423740   6.601   5.134   0.033 -0.2063 -0.6173 -0.3533
   74MOL   H23523741   6.422   5.131   7.647 -0.4811  1.2672 -0.3536
   74MOL   H23623742   6.507   5.037   7.283 -1.1202 -1.4023 -0.3910
   74MOL   H23723743   6.411   4.948   7.412 -0.3430  0.6425  0.0150
   74MOL   H23823744   6.423   5.129   7.392 -1.2212 -0.8906  0.5435
   74MOL   H23923745   6.765   4.884   7.472  1.4859  0.5829 -0.4352
   74MOL   H24023746   6.766   4.980   7.331  1.8045 -3.6965 -0.9470
   74MOL   H24123747   6.645   4.849   7.350 -2.1350  1.3463 -0.5326
   74MOL   C24223748   6.537   5.298   7.673  0.7831  0.5361 -0.3483
   74MOL   C24323749   6.397   5.374   7.658  0.2226  0.7220  0.4449
   74MOL   C24423750   6.287   5.326   7.762 -0.0436 -0.7250  0.5258
   74MOL   O24523751   6.184   5.267   7.726 -0.6641  0.1555  0.1522
   74MOL   N24623752   6.309   5.347   0.039 -0.4135  0.1905 -0.4567
   74MOL   C24723753   6.225   5.299   0.146 -0.2682 -0.5623 -0.5933
   74MOL   C24823754   6.415   5.435   0.095 -0.4449  0.5401  0.3738
   74MOL   H24923755   6.592   5.327   7.762 -0.3242  0.4548  0.3820
   74MOL   H25023756   6.602   5.329   7.592  0.5397 -0.4305 -0.9187
   74MOL   H25123757   6.409   5.480   7.679  0.1212  0.7151  0.5380
   74MOL   H25223758   6.228   5.364   0.234  0.7365  0.5408 -1.4246
   74MOL   H25323759   6.120   5.303   0.118 -0.6382 -0.1807  0.7865
   74MOL   H25423760   6.242   5.199   0.186 -2.3735 -0.8550 -0.3597
   74MOL   H25523761   6.366   5.518   0.146 -0.3668 -1.1889  3.3625
   74MOL   H25623762   6.497   5.478   0.039 -0.9481 -2.9271 -3.2418
   74MOL   H25723763   6.464   5.375   0.172 -1.9521  0.7113  1.5005
   74MOL   C25823764   6.322   5.370   7.520 -0.2154 -0.5747  0.4349
   74MOL   C25923765   6.400   5.419   7.394 -0.2901 -0.3112 -0.1931
   74MOL   C26023766   6.491   5.545   7.418  0.0968  0.3223  0.4187
   74MOL   O26123767   6.449   5.650   7.472  0.1574  0.7591  0.5107
   74MOL   N26223768   6.622   5.549   7.374  0.3059  0.1266 -0.0864
   74MOL   C26323769   6.677   5.448   7.285 -0.8715 -0.2492 -1.1376
   74MOL   C26423770   6.687   5.683   7.390 -0.2302 -0.7020 -1.1248
   74MOL   H26523771   6.282   5.270   7.501 -0.3270 -0.4249 -0.1156
   74MOL   H26623772   6.241   5.443   7.525  0.0223 -0.4036  1.8343
   74MOL   H26723773   6.458   5.334   7.355  0.1769  0.1516 -0.5124
   74MOL   H26823774   6.777   5.474   7.251 -1.0883 -2.0712 -3.3161
   74MOL   H26923775   6.676   5.351   7.333 -3.0177 -0.3603 -1.3317
   74MOL   H27023776   6.613   5.438   7.197 -0.6488  0.7953 -1.4298
   74MOL   H27123777   6.794   5.694   7.370 -0.2471  0.8914 -0.4845
   74MOL   H27223778   6.681   5.700   7.498  0.8457  2.4494 -1.4914
   74MOL   H27323779   6.641   5.756   7.323  0.4785  0.0360 -0.8222
   74MOL   C27423780   6.300   5.454   7.282 -0.6276  0.7188  0.3504
   74MOL   C27523781   6.208   5.333   7.239 -0.2102 -0.2455 -0.1980
   74MOL   C27623782   6.272   5.223   7.152 -0.9241  0.5699 -0.2951
   74MOL   O27723783   6.377   5.242   7.090  0.1933  0.3520 -0.4712
   74MOL   N27823784   6.215   5.104   7.155  0.4743  0.1218 -0.3367
   74MOL   C27923785   6.089   5.062   7.205  0.2527 -0.1225  0.0691
   74MOL   C28023786   6.285   4.989   7.094  0.4630  1.0972  0.3051
   74MOL   H28123787   6.242   5.542   7.309  0.9663  2.0817 -0.5537
   74MOL   H28223788   6.359   5.473   7.192 -0.4640 -2.5782 -0.2994
   74MOL   H28323789   6.169   5.285   7.329 -1.3296  1.5314  0.2969
   74MOL   H28423790   6.030   5.015   7.126  0.4506 -0.3080  0.0303
   74MOL   H28523791   6.104   4.986   7.281 -0.0598  0.6986  0.9674
   74MOL   H28623792   6.027   5.140   7.250 -1.8019 -1.8242  0.2841
   74MOL   H28723793   6.346   5.012   7.006  2.4709 -1.0788  1.0602
   74MOL   H28823794   6.220   4.910   7.057  0.8462  1.1432 -0.4803
   74MOL   H28923795   6.355   4.940   7.161  2.2614 -0.5586 -2.6262
   74MOL   C29023796   6.088   5.393   7.152 -0.5865  0.3115  0.5901
   74MOL   C29123797   5.970   5.471   7.225 -0.3059  0.2106 -0.1638
   74MOL   C29223798   5.915   5.396   7.347  0.1345  0.2264 -0.9219
   74MOL   O29323799   5.860   5.288   7.323 -0.5365  0.0011  0.2351
   74MOL   N29423800   5.922   5.447   7.472  0.2721 -0.5752 -0.5607
   74MOL   C29523801   5.897   5.367   7.595  0.1525 -0.1358  1.0419
   74MOL   C29623802   5.967   5.585   7.501 -0.2735 -0.5256  0.2567
   74MOL   H29723803   6.124   5.449   7.065 -0.3160 -0.2219  0.3535
   74MOL   H29823804   6.044   5.309   7.098 -0.4213 -0.1606  1.1919
   74MOL   H29923805   6.003   5.566   7.267  1.2734  1.0824 -3.2151
   74MOL   H30023806   5.990   5.378   7.650  2.2339 -0.5931 -2.2478
   74MOL   H30123807   5.809   5.397   7.653 -1.6971 -2.1673 -0.6087
   74MOL   H30223808   5.886   5.261   7.575 -1.4092  0.2604 -0.4119
   74MOL   H30323809   5.960   5.614   7.606  1.3939  1.5252 -0.1634
   74MOL   H30423810   5.903   5.656   7.449  0.3947 -1.3557 -1.7508
   74MOL   H30523811   6.070   5.597   7.467 -0.6557  0.1340 -0.6773
   74MOL   C30623812   5.864   5.523   7.130  0.0687  0.2888 -0.3884
   74MOL   C30723813   5.749   5.608   7.188 -0.9961 -0.2565  0.2230
   74MOL   C30823814   5.775   5.750   7.227  0.2729  0.0519  0.0175
   74MOL   O30923815   5.893   5.787   7.217 -0.1686  0.0762  0.1160
   74MOL   N31023816   5.667   5.824   7.276 -0.6466 -0.7783  0.3244
   74MOL   C31123817   5.678   5.966   7.315 -0.0888 -1.0027 -0.1627
   74MOL   C31223818   5.533   5.781   7.270  0.3969 -0.3032 -0.0091
   74MOL   H31323819   5.908   5.564   7.039  1.4384 -2.9637 -1.2642
   74MOL   H31423820   5.824   5.427   7.097 -0.2748 -0.2759  1.6189
   74MOL   H31523821   5.666   5.612   7.118 -0.3638 -0.8735 -0.5632
   74MOL   H31623822   5.779   6.003   7.335 -0.3016 -0.2822 -0.4119
   74MOL   H31723823   5.636   6.032   7.239 -2.5134 -1.6093  0.6082
   74MOL   H31823824   5.627   5.991   7.408 -0.1346 -1.2981 -0.1100
   74MOL   H31923825   5.505   5.790   7.165  1.6968 -1.1837 -0.4419
   74MOL   H32023826   5.467   5.857   7.312 -1.4032 -0.1872 -2.8860
   74MOL   H32123827   5.504   5.685   7.313  2.2625  0.1142  2.2736
   74MOL   H32223828   5.699   5.555   7.270 -0.3448  0.5181  1.1325
   75MOL     C123829   6.844   3.552   7.692  0.7887  0.1089  0.0169
   75MOL     C223830   6.845   3.532   7.543 -0.0777  0.5526  0.2489
   75MOL     C323831   6.988   3.534   7.483 -0.1311  0.4421 -0.0549
   75MOL     O423832   7.078   3.591   7.548 -0.0575  0.4158 -0.5374
   75MOL     N523833   7.016   3.487   7.361  0.5243 -0.9317  0.1658
   75MOL     C623834   7.149   3.496   7.292  0.1631  0.0717  0.2166
   75MOL     C723835   6.918   3.429   7.271 -0.2302 -0.0691  0.2647
   75MOL     H823836   6.757   3.509   7.742  0.7315 -0.6938 -0.7671
   75MOL     H923837   6.848   3.659   7.714  1.3703  0.1104 -0.0837
   75MOL    H1023838   6.808   3.433   7.518 -0.6387  0.7749  0.1981
   75MOL    H1123839   7.129   3.553   7.201  0.6082 -1.3510 -0.8029
   75MOL    H1223840   7.213   3.570   7.341  3.4338 -0.2510 -3.3260
   75MOL    H1323841   7.204   3.402   7.287  1.8760  1.1136 -0.9889
   75MOL    H1423842   6.833   3.379   7.318 -0.3222 -0.1018  0.0638
   75MOL    H1523843   6.960   3.352   7.206 -0.2243  0.7657 -0.7151
   75MOL    H1623844   6.870   3.508   7.214 -0.8553 -0.4585  0.2397
   75MOL    H1723845   6.930   3.502   7.738  0.7721 -0.1589 -0.2427
   75MOL    C1823846   6.739   3.621   7.476 -0.6757  0.5253  0.0359
   75MOL    C1923847   6.600   3.561   7.438  0.7391  0.3141  0.1241
   75MOL    C2023848   6.531   3.630   7.317  0.2818 -0.6930 -0.5185
   75MOL    O2123849   6.497   3.749   7.332 -0.0265  0.4450  0.0904
   75MOL    N2223850   6.505   3.566   7.202 -0.1660 -0.2813  0.3347
   75MOL    C2323851   6.565   3.438   7.156  0.2500  0.8472  0.0106
   75MOL    C2423852   6.420   3.636   7.106  0.4929  1.1341 -0.9198
   75MOL    H2523853   6.722   3.707   7.541  0.2153 -1.0099  2.3564
   75MOL    H2623854   6.777   3.657   7.380 -3.6417  1.1157 -0.9834
   75MOL    H2723855   6.609   3.457   7.408  0.4297  0.8481 -1.9266
   75MOL    H2823856   6.546   3.357   7.226 -2.6724  0.3148 -1.3005
   75MOL    H2923857   6.524   3.403   7.061  0.3281 -1.3779  0.7724
   75MOL    H3023858   6.667   3.470   7.139  0.5403 -0.2023 -0.2339
   75MOL    H3123859   6.356   3.716   7.141 -1.8268 -0.9196 -0.3599
   75MOL    H3223860   6.358   3.571   7.045  1.2908 -0.8643  0.3577
   75MOL    H3323861   6.486   3.682   7.032  1.3936  2.5420  0.7414
   75MOL    C3423862   6.513   3.564   7.567  0.2878  0.1295  0.9934
   75MOL    C3523863   6.363   3.526   7.550 -0.3790 -0.1044  0.3436
   75MOL    C3623864   6.276   3.556   7.679 -0.1084  0.2134  0.6290
   75MOL    O3723865   6.230   3.460   7.748 -0.1890  0.3686 -0.3765
   75MOL    N3823866   6.246   3.684   7.713  0.1237  0.2993  0.3910
   75MOL    C3923867   6.148   3.704   7.815  0.1402 -0.2005 -0.9453
   75MOL    C4023868   6.271   3.806   7.630  0.2677  0.3668  0.5058
   75MOL    H4123869   6.553   3.508   7.652 -0.3188 -1.9584 -0.0698
   75MOL    H4223870   6.518   3.666   7.606  0.9981  0.6232 -0.3671
   75MOL    H4323871   6.312   3.584   7.473 -0.6577 -0.6297  0.1248
   75MOL    H4423872   6.193   3.659   0.051 -0.5877 -0.2597 -0.6062
   75MOL    H4523873   6.114   3.806   7.833 -2.4918 -1.2751  0.4474
   75MOL    H4623874   6.058   3.646   7.795  0.2248 -0.2472 -1.1908
   75MOL    H4723875   6.367   3.838   7.671  1.1405 -1.6242  0.1079
   75MOL    H4823876   6.198   3.884   7.652 -0.8937 -1.0274  1.7208
   75MOL    H4923877   6.296   3.786   7.525  0.0213 -1.9495  0.8579
   75MOL    C5023878   6.358   3.369   7.515 -0.3316 -0.4812 -0.7377
   75MOL    C5123879   6.232   3.307   7.461 -0.0945 -0.0498 -0.0392
   75MOL    C5223880   6.238   3.159   7.490  0.4600  0.1819 -0.3798
   75MOL    O5323881   6.334   3.108   7.423  0.1358  0.4871  0.1910
   75MOL    N5423882   6.171   3.102   7.587 -0.4548  0.0258  0.1677
   75MOL    C5523883   6.057   3.153   7.653  0.5278 -0.3444  0.2426
   75MOL    C5623884   6.194   2.966   7.627  0.3059  0.6952 -0.0629
   75MOL    H5723885   6.437   3.345   7.444 -0.0730 -1.1414 -0.2299
   75MOL    H5823886   6.390   3.319   7.606  0.0199 -0.5366 -0.8921
   75MOL    H5923887   6.159   3.348   7.531  1.9910  2.1001  0.9663
   75MOL    H6023888   6.017   3.095   7.736 -0.3154  0.2879  0.2861
   75MOL    H6123889   6.090   3.240   7.708  1.1297 -0.9156  0.7939
   75MOL    H6223890   5.972   3.179   7.590 -0.9689  1.2487  2.8477
   75MOL    H6323891   6.166   2.948   7.731  0.1985  0.8733 -0.0616
   75MOL    H6423892   6.298   2.939   7.612  0.4637  1.4474 -0.3597
   75MOL    H6523893   6.120   2.912   7.567  1.0543 -0.6877  0.2386
   75MOL    C6623894   6.195   3.349   7.316  0.0063 -0.0580  0.7419
   75MOL    C6723895   6.080   3.263   7.247 -0.4241 -0.0044  0.0295
   75MOL    C6823896   6.104   3.272   7.092  0.3115  0.1517 -0.2843
   75MOL    O6923897   6.133   3.384   7.048 -0.0717  0.8052 -0.3782
   75MOL    N7023898   6.085   3.163   7.010 -0.7206  0.1027 -0.0509
   75MOL    C7123899   6.084   3.166   6.863 -1.0041 -0.0107  0.3013
   75MOL    C7223900   6.073   3.032   7.068 -0.3985  0.5595  0.0265
   75MOL    H7323901   6.167   3.454   7.324  0.8016  0.1723  0.5808
   75MOL    H7423902   6.291   3.337   7.266 -0.0448 -0.6968  0.8031
   75MOL    H7523903   6.104   3.164   7.285  0.7575 -0.9058 -2.9429
   75MOL    H7623904   6.131   3.258   6.828 -0.6697 -1.3051 -2.7211
   75MOL    H7723905   6.126   3.079   6.812 -0.3075  1.3394 -1.4712
   75MOL    H7823906   5.979   3.168   6.832 -0.7332  1.2463 -0.5669
   75MOL    H7923907   5.988   3.016   7.134 -0.8462 -1.4457 -0.9973
   75MOL    H8023908   6.161   3.019   7.130  0.0699 -1.7999 -1.0976
   75MOL    H8123909   6.064   2.956   6.990  0.1901  0.4159  0.0986
   75MOL    C8223910   5.938   3.300   7.285  0.2404  0.1183  0.2765
   75MOL    C8323911   5.897   3.455   7.293 -0.6252 -0.1408  1.3809
   75MOL    C8423912   5.872   3.504   7.435  0.1599  0.0033 -0.0827
   75MOL    O8523913   5.817   3.430   7.515  0.0553  0.7740  0.2684
   75MOL    N8623914   5.894   3.634   7.473  0.3915  0.0695 -0.4856
   75MOL    C8723915   5.802   3.703   7.557  0.3846  0.2931 -0.2695
   75MOL    C8823916   6.003   3.719   7.417  0.5161  0.3202  0.1701
   75MOL    H8923917   5.874   3.249   7.213  2.1767 -3.0097  0.6655
   75MOL    H9023918   5.910   3.246   7.375  1.0154 -1.2483 -0.2960
   75MOL    H9123919   5.965   3.518   7.236 -1.7988  2.7708  3.0538
   75MOL    H9223920   5.850   3.779   7.618  0.8525 -0.8057  0.7391
   75MOL    H9323921   5.721   3.743   7.495  0.4527  0.0442 -0.5205
   75MOL    H9423922   5.750   3.632   7.621 -0.2543 -0.7846 -1.9420
   75MOL    H9523923   6.011   3.816   7.465 -0.4865  0.0347  0.9399
   75MOL    H9623924   5.983   3.727   7.310  0.9370  2.0989  0.2189
   75MOL    H9723925   6.098   3.668   7.431 -0.1392 -0.9785 -0.0325
   75MOL    C9823926   5.774   3.490   7.208  0.7528  0.1526 -0.0818
   75MOL    C9923927   5.792   3.531   7.062 -1.6345 -0.2827 -0.3795
   75MOL   C10023928   5.861   3.670   7.060 -0.2299 -0.7163 -0.1433
   75MOL   O10123929   5.814   3.755   7.132 -0.4663  0.5564 -0.5625
   75MOL   N10223930   5.965   3.696   6.978 -0.1591 -0.0696 -0.0675
   75MOL   C10323931   6.005   3.612   6.865 -0.1938 -0.3196  0.3034
   75MOL   C10423932   6.048   3.815   7.001  0.6581 -0.2517  0.3417
   75MOL   H10523933   5.712   3.400   7.208 -0.3032  0.8789 -0.4132
   75MOL   H10623934   5.708   3.558   7.261  0.1615 -0.1011 -0.4955
   75MOL   H10723935   5.855   3.450   7.025  0.9584  1.5741 -0.1951
   75MOL   H10823936   6.113   3.596   6.866  0.1868  2.0070  1.4184
   75MOL   H10923937   5.954   3.517   6.852  1.1533 -0.7806 -1.8981
   75MOL   H11023938   6.002   3.656   6.765  0.0866  0.4334  0.6168
   75MOL   H11123939   6.101   3.805   7.096  0.5987  1.2088  0.5336
   75MOL   H11223940   5.982   3.901   6.996 -0.6662 -1.2159  1.0773
   75MOL   H11323941   6.131   3.819   6.931  1.2224 -3.4381  0.7091
   75MOL   C11423942   5.661   3.528   6.981 -0.4100  0.1981  0.4758
   75MOL   C11523943   5.666   3.559   6.824  0.0193  0.2680 -0.2618
   75MOL   C11623944   5.523   3.605   6.781 -0.5745  0.5995 -1.2021
   75MOL   O11723945   5.437   3.518   6.757  0.6783  0.2089 -0.1009
   75MOL   N11823946   5.492   3.741   6.769  0.4306 -0.1322  0.2525
   75MOL   C11923947   5.591   3.844   6.798  0.1555 -0.4482  0.3942
   75MOL   C12023948   5.361   3.783   6.723  0.2989 -0.9695 -0.4696
   75MOL   H12123949   5.620   3.429   6.997  2.6314 -0.7017  3.1691
   75MOL   H12223950   5.586   3.587   7.034  0.0227  0.6388  0.5997
   75MOL   H12323951   5.731   3.644   6.803 -0.9574  1.3319  0.9341
   75MOL   H12423952   5.626   3.820   6.898 -1.6927 -4.3024  0.1976
   75MOL   H12523953   5.681   3.838   6.735 -0.0681 -0.1986  0.0491
   75MOL   H12623954   5.553   3.946   6.789  2.7979  0.5395 -0.0853
   75MOL   H12723955   5.305   3.813   6.811  2.4685  0.1019  0.5910
   75MOL   H12823956   5.304   3.715   6.659 -2.4014 -0.0490  0.8974
   75MOL   H12923957   5.374   3.869   6.657 -1.2505 -1.8022 -1.9067
   75MOL   C13023958   5.712   3.439   6.748 -0.3541  0.6862 -0.1271
   75MOL   C13123959   5.731   3.459   6.601 -0.6798 -0.4160  0.1486
   75MOL   C13223960   5.744   3.318   6.550  0.1388  0.6849  0.6125
   75MOL   O13323961   5.844   3.256   6.584  0.2344  0.1580  0.2002
   75MOL   N13423962   5.654   3.264   6.469  0.4123  0.1046  0.6246
   75MOL   C13523963   5.524   3.323   6.440 -0.4145 -1.0892 -0.0190
   75MOL   C13623964   5.684   3.145   6.396 -0.6496  0.2536  0.0460
   75MOL   H13723965   5.805   3.393   6.782 -0.0057 -0.1638 -2.1609
   75MOL   H13823966   5.636   3.364   6.766  0.3282  0.1031  0.3736
   75MOL   H13923967   5.644   3.515   6.566  0.0753  1.6172  1.4164
   75MOL   H14023968   5.521   3.399   6.362  0.5640 -0.8129  0.2178
   75MOL   H14123969   5.444   3.253   6.414  0.6011 -2.2240 -0.1088
   75MOL   H14223970   5.485   3.375   6.527  2.3366 -0.1985  0.7162
   75MOL   H14323971   5.775   3.149   6.336 -0.7460  1.0210 -0.0466
   75MOL   H14423972   5.603   3.106   6.335 -0.6018 -0.2051  0.2685
   75MOL   H14523973   5.692   3.068   6.473  2.0807 -0.6215 -1.0649
   75MOL   C14623974   5.855   3.544   6.558 -0.3844  0.0016 -0.2516
   75MOL   C14723975   5.898   3.548   6.407 -0.8583 -0.0661 -0.2615
   75MOL   C14823976   6.025   3.644   6.383  0.1411 -0.0828 -0.7216
   75MOL   O14923977   5.997   3.766   6.389  0.3287 -0.0399 -0.1982
   75MOL   N15023978   6.150   3.605   6.382  0.2806  0.1365 -0.0928
   75MOL   C15123979   6.260   3.693   6.357  0.4523 -0.0648  0.8101
   75MOL   C15223980   6.192   3.469   6.399 -0.1942 -0.5805  0.7176
   75MOL   H15323981   5.840   3.645   6.597 -0.7903  0.8984 -2.6828
   75MOL   H15423982   5.940   3.488   6.598  1.6222  1.6640 -2.0202
   75MOL   H15523983   5.917   3.445   6.377  0.2846 -0.2442  1.0457
   75MOL   H15623984   6.233   3.776   6.293  1.4762 -0.0861  0.3268
   75MOL   H15723985   6.289   3.736   6.453  1.0646  0.1594  0.5257
   75MOL   H15823986   6.339   3.641   6.302  0.5212  0.7757  0.1179
   75MOL   H15923987   6.116   3.395   6.425 -1.0154 -0.0478 -0.1316
   75MOL   H16023988   6.285   3.457   6.455  0.4147  0.8753  0.0466
   75MOL   H16123989   6.212   3.440   6.296  0.6627 -0.4465  0.8385
   75MOL   C16223990   5.792   3.607   6.316  0.0147  1.1055 -0.0082
   75MOL   C16323991   5.810   3.594   6.159  0.2699  0.3841 -0.3840
   75MOL   C16423992   5.679   3.636   6.083  0.2501  0.7847  0.0045
   75MOL   O16523993   5.592   3.545   6.068  0.0284  0.6623  0.0441
   75MOL   N16623994   5.668   3.766   6.038 -0.4218  0.5276  0.8338
   75MOL   C16723995   5.760   3.870   6.066 -0.6511  0.5333  0.9699
   75MOL   C16823996   5.554   3.798   5.956  0.0943  0.1569 -0.2182
   75MOL   H16923997   5.700   3.556   6.345  0.2011 -0.2772 -1.7748
   75MOL   H17023998   5.760   3.706   6.350 -2.0108  0.5446 -0.2043
   75MOL   H17123999   5.891   3.664   6.136  0.1058  0.1500 -1.7486
   75MOL   H17224000   5.846   3.857   6.000 -1.0671  2.1848  0.0573
   75MOL   H17324001   5.716   3.968   6.048 -0.9479  0.1816 -0.2911
   75MOL   H17424002   5.793   3.867   6.170 -0.9437  2.4056  1.1372
   75MOL   H17524003   5.580   3.793   5.850 -0.3687 -2.6798 -0.2536
   75MOL   H17624004   5.504   3.891   5.983 -1.1679 -0.3554 -0.7494
   75MOL   H17724005   5.475   3.722   5.959 -0.6867  0.9411 -0.4629
   75MOL   C17824006   5.855   3.451   6.114 -0.0201  0.0604  0.6886
   75MOL   C17924007   5.879   3.417   5.963  0.2755  0.1523 -1.0538
   75MOL   C18024008   5.853   3.262   5.938 -0.6616  0.0159  0.3010
   75MOL   O18124009   5.924   3.173   5.998 -0.2506 -0.0621  0.4679
   75MOL   N18224010   5.756   3.224   5.850 -0.5197 -0.1939  0.2987
   75MOL   C18324011   5.702   3.089   5.851  0.0927  0.1933  0.0582
   75MOL   C18424012   5.663   3.320   5.788 -0.0234 -0.5822 -0.3727
   75MOL   H18524013   5.947   3.419   6.161  0.8487  0.3264 -0.7918
   75MOL   H18624014   5.791   3.371   6.153  1.5844 -0.5016  2.1940
   75MOL   H18724015   5.812   3.483   5.908  2.8124  3.0787 -0.7155
   75MOL   H18824016   5.749   3.026   5.927  1.0386 -1.0662 -1.5360
   75MOL   H18924017   5.595   3.074   5.854 -0.0694  0.8438 -1.7286
   75MOL   H19024018   5.728   3.048   5.754  0.2553  0.7155 -0.1237
   75MOL   H19124019   5.610   3.368   5.870 -1.3120 -1.4712 -0.6775
   75MOL   H19224020   5.604   3.273   5.709 -0.7125 -0.9942  0.3878
   75MOL   H19324021   5.733   3.382   5.732  0.5287 -0.8843 -0.0224
   75MOL   C19424022   6.022   3.456   5.924 -0.5349 -0.1633  0.0502
   75MOL   C19524023   6.044   3.515   5.781  0.6927 -0.5737  0.0593
   75MOL   C19624024   6.185   3.483   5.725 -0.1804  0.5196 -0.3636
   75MOL   O19724025   6.277   3.549   5.770 -0.4537  0.2377 -0.1279
   75MOL   N19824026   6.202   3.379   5.639  0.3271 -0.3882 -0.0322
   75MOL   C19924027   6.103   3.279   5.596  0.8279 -0.2752 -0.5960
   75MOL   C20024028   6.334   3.376   5.577 -0.7440  0.3245  0.4128
   75MOL   H20124029   6.062   3.531   5.993  1.5796 -0.9765 -0.2591
   75MOL   H20224030   6.087   3.373   5.950  1.3482  1.9514  2.3796
   75MOL   H20324031   5.969   3.467   5.718 -1.0488  1.5058  0.5040
   75MOL   H20424032   6.010   3.324   5.562 -0.0753 -0.7135  1.2454
   75MOL   H20524033   6.123   3.216   5.509 -1.2919 -2.7512  0.6461
   75MOL   H20624034   6.073   3.199   5.664 -1.9734 -0.8208 -2.4092
   75MOL   H20724035   6.362   3.474   5.537 -4.0756  1.3241  0.3522
   75MOL   H20824036   6.326   3.314   5.487 -0.4405  0.7897  0.0593
   75MOL   H20924037   6.411   3.339   5.644  1.7194  0.5579 -2.2029
   75MOL   C21024038   6.018   3.669   5.783 -0.4706  0.4814  1.0148
   75MOL   C21124039   5.994   3.746   5.646 -0.1613  0.2622  0.2816
   75MOL   C21224040   6.001   3.894   5.681 -0.1747  0.1318 -0.2915
   75MOL   O21324041   5.923   3.939   5.768 -0.5323 -0.4379 -0.2896
   75MOL   N21424042   6.081   3.971   5.606 -0.3624  0.3121 -0.2812
   75MOL   C21524043   6.088   4.114   5.616 -0.2595  0.5052 -0.0048
   75MOL   C21624044   6.195   3.921   5.525 -0.3722 -0.2706  0.2949
   75MOL   H21724045   5.921   3.695   5.827 -1.8923 -0.1843 -1.5882
   75MOL   H21824046   6.088   3.721   5.848 -0.6137 -0.3581  1.8468
   75MOL   H21924047   6.072   3.721   5.574 -1.2533  0.9953 -1.1723
   75MOL   H22024048   6.177   4.135   5.675  0.4398 -1.5814 -0.2777
   75MOL   H22124049   6.096   4.165   5.521  0.9642 -0.2351 -0.3102
   75MOL   H22224050   5.996   4.150   5.663 -1.1894 -1.1677 -0.5103
   75MOL   H22324051   6.250   3.856   5.594 -0.6638 -0.5834  0.2327
   75MOL   H22424052   6.264   4.004   5.508 -2.9917  2.2658  1.6925
   75MOL   H22524053   6.155   3.864   5.441 -0.9282 -0.7861  0.8954
   75MOL   C22624054   5.860   3.695   5.578  0.3193 -0.1214  0.7425
   75MOL   C22724055   5.873   3.622   5.452 -0.7911 -0.0426  0.7023
   75MOL   C22824056   5.911   3.717   5.338 -0.1784 -0.4714  0.2465
   75MOL   O22924057   5.831   3.806   5.305  0.5081  0.5772 -0.1622
   75MOL   N23024058   6.027   3.697   5.264  0.0082  0.4443  0.7346
   75MOL   C23124059   6.067   3.780   5.154 -0.2349  0.1135  0.3182
   75MOL   C23224060   6.130   3.594   5.294  0.7394  0.2721  0.4799
   75MOL   H23324061   5.797   3.641   5.649 -0.3573 -1.7266 -1.0243
   75MOL   H23424062   5.803   3.787   5.562 -2.1555 -1.7055  0.2015
   75MOL   H23524063   5.954   3.555   5.480  1.7306  1.2264 -3.0824
   75MOL   H23624064   6.146   3.844   5.193 -1.5978  2.0217  0.0095
   75MOL   H23724065   6.111   3.716   5.077 -0.8361 -0.7014  0.6506
   75MOL   H23824066   5.989   3.847   5.117 -0.3621 -0.2560 -0.0886
   75MOL   H23924067   6.223   3.617   5.243  0.5434 -1.0866 -0.5024
   75MOL   H24024068   6.103   3.494   5.262  0.0817  1.1476 -1.8160
   75MOL   H24124069   6.165   3.584   5.397 -0.0069 -0.1138  0.6965
   75MOL   C24224070   5.734   3.548   5.430 -0.1450 -0.2564  0.1865
   75MOL   C24324071   5.707   3.472   5.300  0.5525  0.0411  0.3132
   75MOL   C24424072   5.559   3.441   5.290  0.1758 -0.0187  0.4110
   75MOL   O24524073   5.521   3.345   5.361 -0.3615  0.6471  0.2992
   75MOL   N24624074   5.477   3.520   5.212  0.3577  0.7736  0.3299
   75MOL   C24724075   5.528   3.608   5.109 -0.1655  0.1195 -1.0703
   75MOL   C24824076   5.331   3.499   5.230  0.0262  0.1957  0.4446
   75MOL   H24924077   5.710   3.474   5.507  1.3638 -0.5636  0.3713
   75MOL   H25024078   5.662   3.630   5.438  1.2893  1.0431 -0.1250
   75MOL   H25124079   5.735   3.541   5.220 -1.7012 -1.9044 -2.2596
   75MOL   H25224080   5.444   3.636   5.044 -0.1705  1.1949 -0.6182
   75MOL   H25324081   5.563   3.698   5.160  0.2611 -1.0609  0.7241
   75MOL   H25424082   5.591   3.561   5.034  0.5721 -2.2234  0.9672
   75MOL   H25524083   5.306   3.395   5.247  1.6025 -0.3690 -0.6043
   75MOL   H25624084   5.282   3.524   5.136 -1.2910 -0.1164  1.0299
   75MOL   H25724085   5.294   3.564   5.310  0.1479 -1.5490  1.9639
   75MOL   C25824086   5.804   3.348   5.288 -0.1680 -0.2424 -0.2581
   75MOL   C25924087   5.829   3.288   5.141  0.0452  0.0889 -0.1774
   75MOL   C26024088   5.927   3.380   5.070 -0.3851 -0.0436  0.0540
   75MOL   O26124089   5.885   3.488   5.024  0.4640 -0.6355 -0.0772
   75MOL   N26224090   6.054   3.340   5.043  0.0113  0.3372 -0.1926
   75MOL   C26324091   6.145   3.413   4.956  0.4470  0.4715 -1.0639
   75MOL   C26424092   6.112   3.216   5.094 -0.6992 -0.1257 -0.6474
   75MOL   H26524093   5.900   3.375   5.332 -0.5005 -1.6753  1.4020
   75MOL   H26624094   5.772   3.257   5.340 -0.8491  0.9693  1.4774
   75MOL   H26724095   5.869   3.188   5.159 -0.7707 -0.4078 -1.0782
   75MOL   H26824096   6.100   3.459   4.868  0.9478  0.7503 -1.1768
   75MOL   H26924097   6.172   3.510   4.998  1.1952  0.3004 -1.1410
   75MOL   H27024098   6.233   3.362   4.916 -0.3064  0.3473 -2.5819
   75MOL   H27124099   6.220   3.208   5.079 -0.5688 -1.1525  0.7356
   75MOL   H27224100   6.064   3.132   5.043  1.5579 -2.1439  0.4222
   75MOL   H27324101   6.094   3.213   5.202 -3.8220 -0.4658 -1.1319
   75MOL   C27424102   5.709   3.260   5.048 -0.1664 -0.4321 -0.0965
   75MOL   C27524103   5.718   3.136   4.945 -0.2672 -0.7020 -0.0515
   75MOL   C27624104   5.827   3.157   4.834  0.5864  0.0472 -0.2613
   75MOL   O27724105   5.844   3.272   4.797  0.4811  0.3100  0.3482
   75MOL   N27824106   5.908   3.055   4.797  0.1428 -0.1418 -0.6964
   75MOL   C27924107   6.017   3.076   4.694  0.4382  0.1145 -0.0600
   75MOL   C28024108   5.905   2.929   4.865  0.0835 -0.1291  0.3016
   75MOL   H28124109   5.614   3.244   5.098  0.1696  1.2810  1.1048
   75MOL   H28224110   5.689   3.348   4.987 -0.8651  0.4689  1.4011
   75MOL   H28324111   5.750   3.057   5.013  1.0081  1.2568  1.6923
   75MOL   H28424112   6.028   3.177   4.655  0.4057  0.4116  0.6863
   75MOL   H28524113   6.113   3.035   4.726  0.2647  0.4376  0.8859
   75MOL   H28624114   5.977   3.030   4.604 -2.0375  0.0480  1.0174
   75MOL   H28724115   5.927   2.945   4.970  0.8138  2.9802 -0.2653
   75MOL   H28824116   5.991   2.871   4.830  1.7207  1.5587  1.4646
   75MOL   H28924117   5.814   2.871   4.851  0.1565 -0.8380  2.5735
   75MOL   C29024118   5.581   3.095   4.894 -0.4462 -0.2211 -0.3929
   75MOL   C29124119   5.490   3.189   4.808  0.1619 -0.5083 -0.8671
   75MOL   C29224120   5.352   3.121   4.809 -0.3214  0.2994  0.4674
   75MOL   O29324121   5.331   3.027   4.729 -0.0707 -0.0289 -0.0037
   75MOL   N29424122   5.265   3.143   4.905 -0.3151 -0.3699  1.0232
   75MOL   C29524123   5.288   3.241   5.010  0.1893  0.2896 -0.2590
   75MOL   C29624124   5.139   3.073   4.913  0.2671 -0.1356 -0.0690
   75MOL   H29724125   5.601   3.010   4.828  1.1103  0.9801 -1.4847
   75MOL   H29824126   5.521   3.048   4.973 -0.5171 -0.6425 -0.6952
   75MOL   H29924127   5.491   3.290   4.847  1.2765 -1.8306  2.6821
   75MOL   H30024128   5.199   3.251   5.072 -1.0339  3.7419 -2.4242
   75MOL   H30124129   5.361   3.197   5.078  0.4434  0.9604 -0.0874
   75MOL   H30224130   5.315   3.342   4.977  0.5174  0.9862  2.0836
   75MOL   H30324131   5.065   3.147   4.881 -1.1902 -1.9988 -1.0600
   75MOL   H30424132   5.115   3.062   5.019 -0.3184  0.6876 -0.1118
   75MOL   H30524133   5.118   2.982   4.858 -0.5309 -0.2208  0.3697
   75MOL   C30624134   5.534   3.211   4.658  0.5795  0.0397  0.1628
   75MOL   C30724135   5.470   3.337   4.592 -0.5446 -1.0138  0.5605
   75MOL   C30824136   5.508   3.470   4.663 -0.1760 -0.4310  0.0944
   75MOL   O30924137   5.433   3.509   4.756 -0.4166  0.3150  0.4934
   75MOL   N31024138   5.611   3.546   4.619 -0.0368 -0.2810  0.7832
   75MOL   C31124139   5.675   3.652   4.699 -0.1620  0.6701  0.5859
   75MOL   C31224140   5.678   3.516   4.484 -0.0615  0.3612 -0.8537
   75MOL   H31324141   5.642   3.212   4.646  0.7589 -2.2095  1.4003
   75MOL   H31424142   5.511   3.122   4.600  1.3618 -0.0131 -0.0680
   75MOL   H31524143   5.494   3.335   4.486  0.6746 -0.2526  0.8115
   75MOL   H31624144   5.729   3.595   4.774 -2.0142 -2.0639 -0.0937
   75MOL   H31724145   5.748   3.712   4.646  1.8309  0.5892  3.1263
   75MOL   H31824146   5.610   3.712   4.764  0.4085  0.9226  0.9320
   75MOL   H31924147   5.702   3.410   4.472  1.5470  0.6711 -0.5024
   75MOL   H32024148   5.773   3.570   4.480 -0.7637  1.7003  0.2910
   75MOL   H32124149   5.616   3.541   4.399 -1.3242 -1.3269 -0.4536
   75MOL   H32224150   5.362   3.329   4.594 -1.1540  5.1463  0.3695
   76MOL     C124151   4.133   3.812   7.814  0.6645 -0.5275  0.2907
   76MOL     C224152   4.114   3.965   7.813 -0.0870 -0.4685 -0.0171
   76MOL     C324153   3.964   4.006   7.849 -0.4057 -0.3237 -0.0711
   76MOL     O424154   3.872   3.943   7.795  0.7224  0.2020 -0.8806
   76MOL     N524155   3.937   4.114   0.063  0.4904 -0.3742  0.0520
   76MOL     C624156   4.045   4.204   0.125  0.3743  0.7664  0.6009
   76MOL     C724157   3.797   4.152   0.088 -0.2988  0.1211 -0.0845
   76MOL     H824158   4.111   3.770   0.059  1.8977 -0.0532  0.7800
   76MOL     H924159   4.234   3.781   7.786  0.4671  0.2310 -1.3357
   76MOL    H1024160   4.174   4.017   0.034  0.0796 -1.8501  0.8361
   76MOL    H1124161   4.100   4.150   0.202  2.7147 -0.2261 -1.7003
   76MOL    H1224162   4.120   4.246   0.059 -0.2236 -1.1874 -1.4002
   76MOL    H1324163   3.990   4.286   0.171 -0.5221  1.0681 -0.9841
   76MOL    H1424164   3.753   4.078   0.155 -1.7117  0.2566 -0.8594
   76MOL    H1524165   3.740   4.161   7.849  0.8856 -1.0704 -0.9643
   76MOL    H1624166   3.780   4.247   0.137 -2.0076 -1.0302  1.6264
   76MOL    H1724167   4.063   3.757   7.750  0.3957 -0.6540  0.6933
   76MOL    C1824168   4.148   4.010   7.670 -0.3737 -0.6390 -0.3335
   76MOL    C1924169   4.303   4.045   7.666  0.1897  0.5399  0.0492
   76MOL    C2024170   4.336   4.185   7.718 -0.8737  0.0282  0.2629
   76MOL    O2124171   4.297   4.285   7.656  0.5105  0.4167  0.4636
   76MOL    N2224172   4.423   4.202   7.822  0.3183 -0.3830  0.3714
   76MOL    C2324173   4.483   4.103   0.051 -0.0296 -0.7763  0.1198
   76MOL    C2424174   4.450   4.331   0.018 -0.1606 -0.7759  0.4333
   76MOL    H2524175   4.125   3.935   7.595  0.5418 -0.5635 -0.7043
   76MOL    H2624176   4.095   4.103   7.646  0.4147 -0.2148 -0.4552
   76MOL    H2724177   4.357   3.964   7.714 -2.3972 -0.3086  1.5951
   76MOL    H2824178   4.477   4.130   0.157  0.6798 -0.5364  0.0999
   76MOL    H2924179   4.447   4.001   0.041 -0.2577 -0.6031 -0.8260
   76MOL    H3024180   4.590   4.112   0.029  0.2324  0.5938  1.8271
   76MOL    H3124181   4.362   4.366   0.073 -0.5292 -1.0123 -0.0121
   76MOL    H3224182   4.474   4.397   7.788  1.0186  1.2410  2.2965
   76MOL    H3324183   4.536   4.333   0.085 -0.4229  0.6556  0.7662
   76MOL    C3424184   4.356   4.036   7.523 -0.0983  0.1048 -0.0197
   76MOL    C3524185   4.418   3.891   7.488 -0.1004  0.7061  0.0638
   76MOL    C3624186   4.572   3.872   7.510 -0.5123 -0.4832 -1.1468
   76MOL    O3724187   4.646   3.932   7.433 -0.8969  0.7190  0.4195
   76MOL    N3824188   4.619   3.789   7.609 -0.9182  0.0908 -0.3846
   76MOL    C3924189   4.545   3.715   7.713 -0.0393  0.9019 -0.3851
   76MOL    C4024190   4.764   3.771   7.619  0.2819  0.4938 -0.5439
   76MOL    H4124191   4.286   4.078   7.451  0.6096  0.1798 -0.6738
   76MOL    H4224192   4.438   4.108   7.515 -0.0266  0.1627  1.0944
   76MOL    H4324193   4.360   3.815   7.540  1.0011  0.0847  0.4134
   76MOL    H4424194   4.611   3.661   7.782 -1.2724 -1.1319 -0.7522
   76MOL    H4524195   4.485   3.790   7.764 -0.5378 -0.4578  1.0677
   76MOL    H4624196   4.489   3.642   7.655 -0.9332  1.4723 -0.2389
   76MOL    H4724197   4.791   3.674   7.661  0.0369  0.5990 -0.1321
   76MOL    H4824198   4.811   3.854   7.673 -0.0280  0.1255  0.3112
   76MOL    H4924199   4.817   3.776   7.525  1.2292  0.6522 -0.0075
   76MOL    C5024200   4.389   3.859   7.342  0.0875  0.2825  0.0891
   76MOL    C5124201   4.242   3.812   7.310  0.6078 -0.0674 -0.4675
   76MOL    C5224202   4.225   3.673   7.368  0.0912 -0.9752  0.2515
   76MOL    O5324203   4.320   3.591   7.361 -0.1408 -0.4388  0.3771
   76MOL    N5424204   4.103   3.643   7.425 -0.1585  0.0671  0.4731
   76MOL    C5524205   4.088   3.508   7.487  0.3384 -0.7676 -0.0776
   76MOL    C5624206   3.980   3.724   7.421 -0.2187 -0.2833 -0.0870
   76MOL    H5724207   4.420   3.942   7.278  2.0491 -0.6177 -0.1790
   76MOL    H5824208   4.461   3.784   7.310 -1.2676 -1.5585  1.2604
   76MOL    H5924209   4.174   3.883   7.357 -0.2575 -0.7052 -0.7428
   76MOL    H6024210   4.050   3.443   7.409 -0.6597  1.6764 -1.6645
   76MOL    H6124211   4.177   3.464   7.532  0.1912  0.5260  1.5311
   76MOL    H6224212   4.004   3.505   7.558  0.0950  1.3201 -0.2526
   76MOL    H6324213   3.990   3.829   7.450 -2.9035  0.0842 -0.4125
   76MOL    H6424214   3.905   3.690   7.491 -0.6525 -0.8285 -0.8127
   76MOL    H6524215   3.940   3.718   7.320 -0.1457  1.3303 -0.2279
   76MOL    C6624216   4.211   3.807   7.160  0.2941 -0.9640 -0.8529
   76MOL    C6724217   4.179   3.945   7.101  0.5218 -0.0034  0.7825
   76MOL    C6824218   4.051   4.016   7.152 -0.5609  0.0728  0.9242
   76MOL    O6924219   3.954   3.951   7.189 -0.4032 -0.1437 -0.2622
   76MOL    N7024220   4.046   4.151   7.139  0.5882  0.1471 -0.7609
   76MOL    C7124221   4.161   4.241   7.179  0.4178  0.6697 -0.3918
   76MOL    C7224222   3.909   4.211   7.125  0.8001 -0.4717 -0.0757
   76MOL    H7324223   4.287   3.758   7.100  0.8150  1.3217 -2.1113
   76MOL    H7424224   4.116   3.757   7.141 -1.1376  2.1822 -2.3281
   76MOL    H7524225   4.266   4.007   7.124 -0.8244  1.2351  2.6833
   76MOL    H7624226   4.239   4.231   7.103 -0.4148  0.1671 -1.1913
   76MOL    H7724227   4.138   4.348   7.182  0.8538  0.7782 -0.8110
   76MOL    H7824228   4.212   4.198   7.264  1.0483 -2.5634 -2.3263
   76MOL    H7924229   3.859   4.199   7.222  2.2197  1.7650  0.9698
   76MOL    H8024230   3.853   4.151   7.054  0.4849 -0.0989 -0.1402
   76MOL    H8124231   3.917   4.319   7.112 -0.8637 -0.3004  0.2238
   76MOL    C8224232   4.164   3.932   6.942  0.5205 -0.0186  0.6760
   76MOL    C8324233   4.299   3.940   6.861 -0.1093  0.1052 -0.0816
   76MOL    C8424234   4.365   4.079   6.891  0.5759 -0.0371 -0.5665
   76MOL    O8524235   4.327   4.177   6.830  0.0705 -0.2209  0.0630
   76MOL    N8624236   4.471   4.088   6.975  0.8508 -0.6372  0.4551
   76MOL    C8724237   4.556   3.978   7.008 -0.5350  0.3376 -0.1546
   76MOL    C8824238   4.530   4.219   7.024  0.5847 -0.3338 -0.2679
   76MOL    H8924239   4.113   3.840   6.914 -0.6367  0.2905  1.7264
   76MOL    H9024240   4.103   4.019   6.919  0.9189  0.3735  1.0786
   76MOL    H9124241   4.363   3.854   6.881  0.6738  1.0251  1.5088
   76MOL    H9224242   4.611   3.995   7.100 -1.9072  3.9008  0.1018
   76MOL    H9324243   4.497   3.890   7.035 -2.4437  1.2959 -1.0838
   76MOL    H9424244   4.618   3.950   6.922 -4.5679 -0.6840 -2.8971
   76MOL    H9524245   4.553   4.200   7.129 -0.0021 -0.6660 -0.1965
   76MOL    H9624246   4.456   4.299   7.021 -0.0161 -0.8867 -0.1549
   76MOL    H9724247   4.624   4.251   6.980  1.2468 -2.1966 -0.2454
   76MOL    C9824248   4.267   3.926   6.713 -0.0676  0.3090  0.2559
   76MOL    C9924249   4.392   3.929   6.612 -0.0597 -0.7812  0.1362
   76MOL   C10024250   4.345   3.948   6.466 -0.2091 -0.1042  1.2899
   76MOL   O10124251   4.280   3.857   6.417  0.1661 -0.3009  0.4925
   76MOL   N10224252   4.368   4.058   6.395 -0.1961  0.0655  0.7685
   76MOL   C10324253   4.329   4.076   6.247  0.2604 -0.6213 -0.3901
   76MOL   C10424254   4.414   4.186   6.448 -0.0098  0.4273 -0.4206
   76MOL   H10524255   4.213   3.833   6.692  2.7116 -1.1633 -0.7086
   76MOL   H10624256   4.195   4.002   6.683 -0.9447 -0.1619  1.1349
   76MOL   H10724257   4.464   4.006   6.642  0.4884 -0.5098 -1.7922
   76MOL   H10824258   4.284   3.990   6.197 -1.9137  0.2060  0.0748
   76MOL   H10924259   4.252   4.153   6.237  0.9889 -0.0281 -1.4814
   76MOL   H11024260   4.419   4.107   6.195  0.3543  1.1032  0.7385
   76MOL   H11124261   4.378   4.266   6.383 -1.0207 -0.5140 -1.0419
   76MOL   H11224262   4.522   4.186   6.458 -0.0267  0.2824 -0.2525
   76MOL   H11324263   4.369   4.207   6.545  0.7344  0.4338 -0.0705
   76MOL   C11424264   4.481   3.802   6.618  0.3912 -0.4591  0.3963
   76MOL   C11524265   4.610   3.807   6.536  0.2998  0.4212  0.1838
   76MOL   C11624266   4.660   3.653   6.539  0.1921 -0.1377  0.7402
   76MOL   O11724267   4.728   3.611   6.633 -0.6087  0.1599 -0.8853
   76MOL   N11824268   4.635   3.583   6.424 -0.1561 -0.7530  0.3331
   76MOL   C11924269   4.537   3.609   6.317  0.1904 -0.1034 -0.4569
   76MOL   C12024270   4.709   3.457   6.400 -0.9040 -0.3603  0.3286
   76MOL   H12124271   4.514   3.787   6.721  0.5475  3.0207  0.8985
   76MOL   H12224272   4.418   3.717   6.591  1.5542 -0.7861 -1.3040
   76MOL   H12324273   4.587   3.848   6.438 -1.5133 -1.3552 -0.1614
   76MOL   H12424274   4.502   3.712   6.309  3.4810  1.0295 -0.8805
   76MOL   H12524275   4.579   3.591   6.218 -2.9248  0.2556 -1.9159
   76MOL   H12624276   4.448   3.549   6.336  0.5999 -0.5899 -0.0579
   76MOL   H12724277   4.655   3.386   6.339 -1.6856  0.0212  0.5674
   76MOL   H12824278   4.734   3.405   6.492  0.0038  1.0754  0.9217
   76MOL   H12924279   4.803   3.488   6.355 -0.4394  0.5181  1.8600
   76MOL   C13024280   4.708   3.899   6.598 -0.8595 -0.3983 -0.0336
   76MOL   C13124281   4.810   3.973   6.499 -0.9389  0.1770 -0.1295
   76MOL   C13224282   4.864   3.876   6.389 -0.5063  0.7444  0.0076
   76MOL   O13324283   4.943   3.788   6.424 -0.0704  0.0878  0.3554
   76MOL   N13424284   4.815   3.878   6.263  0.2473  0.4968 -0.3096
   76MOL   C13524285   4.834   3.759   6.177  0.2392 -0.4549 -0.0852
   76MOL   C13624286   4.725   3.982   6.211 -0.1855 -0.0354  0.7202
   76MOL   H13724287   4.664   3.972   6.667 -0.3229  0.9168 -1.0583
   76MOL   H13824288   4.769   3.835   6.663  0.1359  1.4464  0.9131
   76MOL   H13924289   4.763   4.060   6.451 -2.8032 -0.7044  0.0435
   76MOL   H14024290   4.875   3.673   6.229  0.4444 -0.4918 -0.3068
   76MOL   H14124291   4.746   3.723   6.123  1.9281 -1.7396 -2.0628
   76MOL   H14224292   4.906   3.788   6.101 -1.4578 -1.8402 -2.2928
   76MOL   H14324293   4.630   3.971   6.263 -1.4340  0.7150 -1.3902
   76MOL   H14424294   4.709   3.972   6.104  0.4865  1.3703  0.4765
   76MOL   H14524295   4.775   4.078   6.225 -0.0673 -0.0763  0.5839
   76MOL   C14624296   4.929   4.042   6.568 -0.0216  0.1868  0.0956
   76MOL   C14724297   4.908   4.181   6.628 -0.0441  0.4242 -0.6484
   76MOL   C14824298   4.893   4.287   6.519  0.2224  0.9921 -0.0990
   76MOL   O14924299   4.967   4.279   6.417  0.4406  0.5488  0.0749
   76MOL   N15024300   4.779   4.362   6.514 -0.5818  0.5726 -0.3840
   76MOL   C15124301   4.688   4.392   6.621  0.4587 -0.2430 -0.9376
   76MOL   C15224302   4.736   4.417   6.384 -0.0730  0.2018  0.6970
   76MOL   H15324303   4.965   3.973   6.645 -1.1349 -1.3410 -0.7164
   76MOL   H15424304   5.014   4.043   6.500  1.0338  0.4013  1.3895
   76MOL   H15524305   4.816   4.178   6.687  0.5295  2.3055  0.3961
   76MOL   H15624306   4.747   4.431   6.703 -1.1658 -0.0557  0.1551
   76MOL   H15724307   4.624   4.478   6.600  0.1058  0.0601  1.3133
   76MOL   H15824308   4.625   4.312   6.658  0.9572 -0.5547 -0.7661
   76MOL   H15924309   4.637   4.464   6.385 -1.1670 -1.9586 -0.9441
   76MOL   H16024310   4.720   4.330   6.319 -1.0145  1.4423 -0.7738
   76MOL   H16124311   4.810   4.481   6.336 -0.1018  0.2457  0.7094
   76MOL   C16224312   5.035   4.216   6.726  0.6612  0.3285  0.6166
   76MOL   C16324313   5.014   4.335   6.815  0.4059  0.0377  0.0337
   76MOL   C16424314   5.153   4.380   6.863  0.3156 -0.2288 -0.7204
   76MOL   O16524315   5.237   4.299   6.896 -0.6829 -0.3347  0.1361
   76MOL   N16624316   5.181   4.512   6.857 -0.5111  0.3096 -0.5123
   76MOL   C16724317   5.313   4.565   6.831 -0.0649 -0.3416  0.0632
   76MOL   C16824318   5.083   4.621   6.877  1.2513  0.8332  0.7416
   76MOL   H16924319   5.069   4.126   6.778 -1.6641 -0.6824  0.4739
   76MOL   H17024320   5.115   4.242   6.657  0.0210  1.5703  0.3299
   76MOL   H17124321   4.977   4.417   6.754 -1.4829 -0.6915  0.1817
   76MOL   H17224322   5.392   4.507   6.878  0.4017  0.3867  0.1954
   76MOL   H17324323   5.333   4.569   6.724  1.5132 -0.7869  0.3230
   76MOL   H17424324   5.334   4.667   6.864  0.0648 -0.4777  0.4024
   76MOL   H17524325   5.076   4.680   6.786 -0.3517 -1.9000 -1.0079
   76MOL   H17624326   5.125   4.689   6.951  1.7165 -0.0092  1.2746
   76MOL   H17724327   4.982   4.607   6.915  1.9822 -0.1005  2.4284
   76MOL   C17824328   4.915   4.320   6.938  0.4536  0.4056  0.3563
   76MOL   C17924329   4.953   4.230   7.059 -0.5561  0.6450 -0.4492
   76MOL   C18024330   4.949   4.081   7.017  0.1080 -0.8323  0.7797
   76MOL   O18124331   4.854   4.043   6.951  0.3653  0.0933 -0.2312
   76MOL   N18224332   5.050   3.995   7.044 -0.4294 -0.4895 -0.4267
   76MOL   C18324333   5.063   3.858   6.983  0.1972  0.4350  0.1606
   76MOL   C18424334   5.165   4.038   7.127  0.1210  0.1750 -0.0359
   76MOL   H18524335   4.888   4.421   6.971 -0.7194  0.7862 -1.7416
   76MOL   H18624336   4.823   4.293   6.887  0.6653 -1.7899  1.0909
   76MOL   H18724337   5.053   4.254   7.095 -0.0501 -1.8578 -0.0899
   76MOL   H18824338   4.982   3.797   7.023 -0.5961  0.0365 -1.9804
   76MOL   H18924339   5.050   3.841   6.876 -0.2475 -0.6736  0.3781
   76MOL   H19024340   5.162   3.812   6.990 -0.1610 -0.7853 -2.3382
   76MOL   H19124341   5.121   4.060   7.224 -0.2404  0.8405 -0.3518
   76MOL   H19224342   5.222   4.118   7.080 -2.0657  1.2259 -0.9657
   76MOL   H19324343   5.237   3.957   7.138  0.5963  0.6418  0.3129
   76MOL   C19424344   4.855   4.257   7.180  0.2683  0.2630  0.0422
   76MOL   C19524345   4.917   4.307   7.307  0.2217  0.3645 -0.7369
   76MOL   C19624346   4.811   4.309   7.422  0.2866  0.0882 -0.4150
   76MOL   O19724347   4.721   4.394   7.411 -0.3540 -0.0100  0.0516
   76MOL   N19824348   4.833   4.236   7.532  0.6198 -0.2435 -0.3135
   76MOL   C19924349   4.755   4.257   7.659 -0.7098 -0.5435  0.0356
   76MOL   C20024350   4.919   4.121   7.540  0.1939  0.1170  0.5324
   76MOL   H20124351   4.772   4.315   7.140  1.0979  0.6128 -1.2301
   76MOL   H20224352   4.813   4.163   7.213  2.6916 -1.3847 -1.3784
   76MOL   H20324353   4.993   4.230   7.319  0.4699  0.9433  1.6000
   76MOL   H20424354   4.712   4.356   7.676 -0.6587 -0.6638  0.8819
   76MOL   H20524355   4.675   4.184   7.667  1.5617 -2.9315  1.4451
   76MOL   H20624356   4.826   4.243   7.740  1.1757  0.0758 -1.4597
   76MOL   H20724357   4.904   4.062   7.450  1.0640 -0.6282  0.8779
   76MOL   H20824358   4.880   4.050   7.613  0.8626  0.4878  1.2529
   76MOL   H20924359   5.024   4.146   7.549 -0.2453  3.2549 -1.9763
   76MOL   C21024360   5.004   4.436   7.294  0.8210  0.2316  0.8546
   76MOL   C21124361   5.126   4.455   7.384 -0.2888  0.3228  0.6854
   76MOL   C21224362   5.236   4.351   7.353  0.1277 -0.5305 -0.4633
   76MOL   O21324363   5.218   4.239   7.396 -0.4153 -0.4073  0.8851
   76MOL   N21424364   5.343   4.389   7.275  0.0841  0.0346  0.0785
   76MOL   C21524365   5.444   4.297   7.241 -0.5973 -0.0528  0.1780
   76MOL   C21624366   5.334   4.502   7.186  0.4322  0.7371 -0.3046
   76MOL   H21724367   5.031   4.443   7.189 -1.4645  3.1287  0.3985
   76MOL   H21824368   4.935   4.518   7.311 -0.3386 -0.9066  1.7594
   76MOL   H21924369   5.170   4.549   7.353 -0.5348 -1.0391 -4.2000
   76MOL   H22024370   5.543   4.342   7.231 -0.4941 -0.4357 -0.5161
   76MOL   H22124371   5.453   4.229   7.326  1.3890  0.8222  0.7096
   76MOL   H22224372   5.422   4.230   7.158  2.5403 -1.1588  0.1775
   76MOL   H22324373   5.244   4.482   7.127  0.3700  0.6821 -0.1915
   76MOL   H22424374   5.416   4.501   7.115  0.4596 -2.4674 -0.3010
   76MOL   H22524375   5.335   4.594   7.245  1.5959 -0.1817  1.1499
   76MOL   C22624376   5.088   4.465   7.532  0.0254 -0.3259 -0.5241
   76MOL   C22724377   5.205   4.540   7.612  0.0232  0.2424 -0.7785
   76MOL   C22824378   5.230   4.468   7.749  0.9971 -0.2699 -0.0422
   76MOL   O22924379   5.138   4.421   7.814 -0.2457 -0.1399  0.4448
   76MOL   N23024380   5.356   4.447   7.791  0.7490 -0.2677  0.3196
   76MOL   C23124381   5.471   4.511   7.733 -0.4891  0.3286  0.2060
   76MOL   C23224382   5.377   4.371   0.065 -0.4126 -0.2516 -0.1071
   76MOL   H23324383   4.989   4.506   7.551  0.9451  1.3596  0.6891
   76MOL   H23424384   5.072   4.359   7.555 -1.0048 -0.1459 -0.3969
   76MOL   H23524385   5.293   4.520   7.551  1.0982 -0.9144  1.0900
   76MOL   H23624386   5.557   4.507   7.801 -0.3089  0.2559 -0.0264
   76MOL   H23724387   5.502   4.443   7.653  0.1489  0.1593  0.5885
   76MOL   H23824388   5.455   4.612   7.696  0.7881  0.5497  0.2310
   76MOL   H23924389   5.384   4.265   0.041  1.7114 -0.3128  0.6605
   76MOL   H24024390   5.312   4.372   0.152  0.7113 -0.1022  0.7530
   76MOL   H24124391   5.478   4.385   0.105  0.5842 -0.7578 -2.3591
   76MOL   C24224392   5.185   4.693   7.635  0.0545 -1.2185  0.0905
   76MOL   C24324393   5.077   4.740   7.736  0.5350 -0.2555 -0.7403
   76MOL   C24424394   4.925   4.740   7.684 -0.1196  0.3405 -0.0771
   76MOL   O24524395   4.919   4.778   7.568 -0.2138  0.6257 -0.3102
   76MOL   N24624396   4.824   4.686   7.754  0.1520  0.3504  0.6141
   76MOL   C24724397   4.689   4.672   7.691  0.0943 -0.2113  0.2709
   76MOL   C24824398   4.841   4.630   0.033 -0.3331  0.2588  0.1770
   76MOL   H24924399   5.279   4.732   7.676  0.2637 -1.0561 -0.5409
   76MOL   H25024400   5.170   4.744   7.540  0.5458  1.0497  1.1814
   76MOL   H25124401   5.086   4.668   7.817  1.6668  0.5990 -0.0999
   76MOL   H25224402   4.645   4.772   7.691  0.8262  0.1196  0.2839
   76MOL   H25324403   4.688   4.622   7.594 -0.9564 -1.9595  1.1571
   76MOL   H25424404   4.630   4.594   7.739  0.4813 -0.6718 -0.0035
   76MOL   H25524405   4.748   4.637   0.089 -0.9590  1.3782 -0.9931
   76MOL   H25624406   4.923   4.683   0.083  0.1265 -0.4887  0.2253
   76MOL   H25724407   4.879   4.528   0.023  1.5865  1.1895 -2.6008
   76MOL   C25824408   5.108   4.879   7.796  0.4899 -0.0198 -0.0314
   76MOL   C25924409   5.242   4.928   0.009  0.1478 -0.9299 -0.8368
   76MOL   C26024410   5.280   4.849   0.135 -0.2668 -0.2071 -0.0865
   76MOL   O26124411   5.201   4.830   0.230  0.1896  0.4648  0.1496
   76MOL   N26224412   5.407   4.798   0.144  0.0413  0.1625  0.3688
   76MOL   C26324413   5.525   4.844   0.074 -0.4145  0.2734  0.1802
   76MOL   C26424414   5.445   4.692   0.238 -0.1990  0.2188 -1.0260
   76MOL   H26524415   5.093   4.941   7.707  2.7030  0.3210 -0.2030
   76MOL   H26624416   5.035   4.912   0.016 -0.2017 -0.2276 -0.6247
   76MOL   H26724417   5.324   4.934   7.791 -0.1887 -0.0796 -1.1591
   76MOL   H26824418   5.608   4.776   0.091 -0.2922  0.0699 -1.1273
   76MOL   H26924419   5.501   4.850   7.821 -1.9014  1.9270  0.5846
   76MOL   H27024420   5.553   4.942   0.113 -0.0039 -0.0590  0.7126
   76MOL   H27124421   5.523   4.723   0.308  1.5171  0.1351 -2.8456
   76MOL   H27224422   5.485   4.603   0.189  0.8495  1.4768 -2.5075
   76MOL   H27324423   5.362   4.662   0.301  2.0439 -1.9897  1.0044
   76MOL   C27424424   5.225   5.081   0.055  0.2814  0.7571 -0.6505
   76MOL   C27524425   5.252   5.193   7.797  0.5454  0.4425 -0.2874
   76MOL   C27624426   5.404   5.185   7.753 -0.1039  0.1494  0.1369
   76MOL   O27724427   5.489   5.189   7.843  0.6672  0.1196 -0.0915
   76MOL   N27824428   5.437   5.151   7.624 -0.2432  0.2370  0.0664
   76MOL   C27924429   5.338   5.115   7.523 -0.2882 -0.5480  0.4973
   76MOL   C28024430   5.570   5.165   7.567 -0.2777 -0.0531 -0.2647
   76MOL   H28124431   5.127   5.096   0.101 -0.2268  0.0795 -1.5063
   76MOL   H28224432   5.303   5.096   0.129  1.5969 -1.9925 -1.4350
   76MOL   H28324433   5.178   5.194   7.717  0.9708 -0.3360 -0.6896
   76MOL   H28424434   5.376   5.064   7.434 -2.0395 -1.4027  0.1985
   76MOL   H28524435   5.255   5.052   7.555 -0.4961  0.0076  1.0407
   76MOL   H28624436   5.296   5.208   7.483  1.4802  0.6365  1.3574
   76MOL   H28724437   5.646   5.199   7.637 -0.9908  1.2984 -0.1383
   76MOL   H28824438   5.582   5.233   7.483 -0.9679  1.5511  0.8961
   76MOL   H28924439   5.604   5.069   7.528  2.4760  0.9497 -0.3868
   76MOL   C29024440   5.236   5.338   0.005 -0.0082  0.5244  0.1462
   76MOL   C29124441   5.237   5.468   7.772  0.3500 -0.1227 -0.1829
   76MOL   C29224442   5.124   5.468   7.669 -0.0692  0.4321 -0.4087
   76MOL   O29324443   5.151   5.420   7.560  0.1892  0.8021  0.6119
   76MOL   N29424444   5.003   5.516   7.695  0.5566 -0.2250  0.3629
   76MOL   C29524445   4.907   5.521   7.593 -0.2276  0.3763  0.0809
   76MOL   C29624446   4.958   5.542   7.832  0.2398  1.0724  0.2523
   76MOL   H29724447   5.157   5.336   0.080 -0.0070 -2.4078  0.1388
   76MOL   H29824448   5.319   5.365   0.071  1.3010 -0.9251 -0.8937
   76MOL   H29924449   5.221   5.554   7.837 -0.7204 -1.0267  0.7644
   76MOL   H30024450   4.853   5.615   7.583  0.1707  0.7897  1.7969
   76MOL   H30124451   4.945   5.505   7.492  1.6364 -0.2241  0.8630
   76MOL   H30224452   4.831   5.445   7.613  0.2029  0.3759  1.7345
   76MOL   H30324453   4.956   5.446   0.031 -1.0792  0.8442 -0.1785
   76MOL   H30424454   4.859   5.589   7.829  0.1911  0.9194 -1.0284
   76MOL   H30524455   5.020   5.606   0.040  1.2937 -0.8582  1.2655
   76MOL   C30624456   5.381   5.512   7.724 -1.1006  0.6836  0.2383
   76MOL   C30724457   5.407   5.657   7.692  0.2470  0.0354 -0.7102
   76MOL   C30824458   5.546   5.692   7.644 -0.2723  0.5606  1.0685
   76MOL   O30924459   5.616   5.600   7.598  0.4548  0.1202  0.1756
   76MOL   N31024460   5.595   5.811   7.673 -0.2376  0.4104 -0.4100
   76MOL   C31124461   5.738   5.839   7.667  0.2853  0.7261 -0.0323
   76MOL   C31224462   5.508   5.920   7.718  1.0453 -0.7028  0.1307
   76MOL   H31324463   5.462   5.469   7.783 -3.0209 -0.2555  2.2520
   76MOL   H31424464   5.390   5.458   7.629 -1.1729  0.1094  0.5576
   76MOL   H31524465   5.344   5.673   7.604  1.5830 -0.9765 -1.8722
   76MOL   H31624466   5.793   5.762   7.721  0.9139  0.0686 -1.5698
   76MOL   H31724467   5.758   5.826   7.561 -0.7878  0.6765 -0.2351
   76MOL   H31824468   5.769   5.940   7.692  1.3375  0.4428 -0.1729
   76MOL   H31924469   5.568   6.011   7.716 -1.5358  1.0603 -0.3357
   76MOL   H32024470   5.482   5.909   7.823  0.9226 -1.1861  0.0469
   76MOL   H32124471   5.427   5.941   7.648  0.8099 -1.4617  0.1719
   76MOL   H32224472   5.375   5.719   7.776 -0.5807 -0.8616 -0.3540
   77MOL     C124473   5.209   0.037   6.726 -0.0981 -0.3938 -0.3582
   77MOL     C224474   5.330   0.118   6.764  0.0210 -0.2450 -0.1496
   77MOL     C324475   5.464   0.035   6.763  0.9206 -0.0889  0.8158
   77MOL     O424476   5.491   7.828   6.863  0.1631 -0.1777 -0.3482
   77MOL     N524477   5.528   0.019   6.652 -0.3292 -0.0917  0.7673
   77MOL     C624478   5.639   7.776   6.647  0.2299  0.9649 -0.1189
   77MOL     C724479   5.506   0.085   6.517 -0.5484 -0.4983  0.2575
   77MOL     H824480   5.121   0.086   6.766  0.7618  1.1452 -0.3192
   77MOL     H924481   5.207   7.789   6.765 -1.9195 -0.9938 -1.9099
   77MOL    H1024482   5.335   0.209   6.704 -0.6358 -0.1718 -0.0977
   77MOL    H1124483   5.630   7.687   6.710 -1.9901 -0.2480 -2.0582
   77MOL    H1224484   5.646   7.736   6.546 -2.0216 -1.8044  0.7419
   77MOL    H1324485   5.732   7.824   6.679  0.5887  0.7967 -0.8930
   77MOL    H1424486   5.576   0.061   6.437  1.0901 -0.1811  1.5765
   77MOL    H1524487   5.508   0.193   6.525  0.9513 -0.2837 -2.5055
   77MOL    H1624488   5.408   0.058   6.477 -0.3026  0.3127 -0.9038
   77MOL    H1724489   5.199   0.026   6.618 -2.4840 -0.1776 -0.1736
   77MOL    C1824490   5.300   0.169   6.907  0.1143 -0.4291  0.0756
   77MOL    C1924491   5.379   0.293   6.964  0.3622  1.2013 -0.5505
   77MOL    C2024492   5.394   0.410   6.869 -0.1409 -0.3279 -0.3683
   77MOL    O2124493   5.494   0.417   6.798  0.9540 -0.2266  0.0764
   77MOL    N2224494   5.290   0.496   6.845 -0.0769 -0.2913 -0.3378
   77MOL    C2324495   5.168   0.500   6.921 -0.4964 -0.9157 -0.3060
   77MOL    C2424496   5.299   0.609   6.748  0.0341  0.5757 -0.4286
   77MOL    H2524497   5.197   0.204   6.913  0.7056  1.2136  1.0169
   77MOL    H2624498   5.303   0.089   6.981  6.4239  0.0881  0.6223
   77MOL    H2724499   5.324   0.333   7.049 -1.6788 -1.1142 -0.7399
   77MOL    H2824500   5.184   0.478   7.026 -0.5375  0.5723  0.0229
   77MOL    H2924501   5.116   0.596   6.913 -0.0995 -0.5629  1.2137
   77MOL    H3024502   5.101   0.421   6.888 -0.5813 -0.9156 -0.1318
   77MOL    H3124503   5.255   0.577   6.653 -0.8236 -4.1435  1.4748
   77MOL    H3224504   5.403   0.638   6.734 -0.3189  1.4788 -1.3120
   77MOL    H3324505   5.242   0.694   6.784 -1.0531 -1.1713  2.0707
   77MOL    C3424506   5.521   0.253   7.033  0.2617 -0.5343  0.7467
   77MOL    C3524507   5.518   0.179   7.163  0.4659 -0.0813  0.1461
   77MOL    C3624508   5.383   0.191   7.245 -0.4972 -0.5649 -0.2247
   77MOL    O3724509   5.350   0.304   7.284  0.2930 -0.2498 -0.0777
   77MOL    N3824510   5.315   0.081   7.286  0.5148 -0.1219 -0.0488
   77MOL    C3924511   5.378   7.804   7.294  0.6723  0.6479 -0.3320
   77MOL    C4024512   5.173   0.083   7.321  0.9139  0.1471  0.9950
   77MOL    H4124513   5.584   0.209   6.956 -0.4660 -1.5814  0.7327
   77MOL    H4224514   5.576   0.346   7.050 -1.6684  0.8264 -0.2486
   77MOL    H4324515   5.503   0.077   7.128 -2.2684  0.3820 -0.1595
   77MOL    H4424516   5.344   7.745   7.378  1.5627  1.3013  0.5097
   77MOL    H4524517   5.357   7.745   7.205  0.6468 -1.3353  0.9657
   77MOL    H4624518   5.487   7.805   7.295  0.6858 -1.3954  1.4423
   77MOL    H4724519   5.138   0.182   7.350  0.5766  0.8205 -1.6281
   77MOL    H4824520   5.154   0.015   7.404  1.4301 -0.2088  0.8274
   77MOL    H4924521   5.120   0.064   7.228  1.4123  2.5919  0.1769
   77MOL    C5024522   5.642   0.202   7.248  0.3596 -0.2767 -0.0360
   77MOL    C5124523   5.773   0.163   7.181  0.1460 -0.0524  0.0153
   77MOL    C5224524   5.802   0.008   7.178 -0.6874  1.5569  0.4276
   77MOL    O5324525   5.790   7.800   7.284  0.3071  0.3820  0.4683
   77MOL    N5424526   5.823   7.793   7.062 -0.1944 -0.8484  0.3206
   77MOL    C5524527   5.821   7.651   7.042  0.2160 -0.6842  0.4333
   77MOL    C5624528   5.858   0.012   6.935  0.5355 -0.1833 -0.7552
   77MOL    H5724529   5.645   0.310   7.261  0.8947 -0.2145 -0.6389
   77MOL    H5824530   5.634   0.163   7.349  1.1516  1.4110  0.7010
   77MOL    H5924531   5.777   0.198   7.078 -0.4631  3.8154  1.2264
   77MOL    H6024532   5.919   7.605   7.049  0.5651 -0.7293 -3.6406
   77MOL    H6124533   5.770   7.597   7.121  0.4770 -0.9191  0.4401
   77MOL    H6224534   5.786   7.610   6.947  1.4126 -1.9707  0.5338
   77MOL    H6324535   5.779   0.076   6.897 -0.4940 -2.0047 -1.7642
   77MOL    H6424536   5.877   7.800   6.850  0.8253 -0.5366 -0.4238
   77MOL    H6524537   5.941   0.080   6.955  0.4278 -0.1237 -0.5109
   77MOL    C6624538   5.888   0.237   7.249 -0.2553  0.1156  0.0993
   77MOL    C6724539   5.926   0.364   7.173  0.5205 -0.2636  0.0994
   77MOL    C6824540   6.024   0.337   7.056  0.5748 -0.2652 -0.6208
   77MOL    O6924541   6.130   0.286   7.081 -0.2078  0.0685 -0.4215
   77MOL    N7024542   5.987   0.356   6.928 -0.2352 -0.1659  0.3256
   77MOL    C7124543   5.859   0.418   6.883 -0.0746 -0.3030 -0.4141
   77MOL    C7224544   6.082   0.333   6.820 -0.7467 -0.4366 -0.7310
   77MOL    H7324545   5.859   0.252   7.353  1.0747  1.2358  0.3299
   77MOL    H7424546   5.975   0.175   7.270 -0.6912 -0.4997  0.0905
   77MOL    H7524547   5.829   0.407   7.145  0.4775 -0.4757 -0.0803
   77MOL    H7624548   5.815   0.493   6.949 -0.8649  0.0088 -1.2880
   77MOL    H7724549   5.872   0.463   6.785 -2.2167 -2.0776 -1.5665
   77MOL    H7824550   5.789   0.336   6.865 -1.5657  1.0248 -0.7759
   77MOL    H7924551   6.125   0.233   6.821  0.9661  0.3099  0.7717
   77MOL    H8024552   6.159   0.410   6.817 -0.3816 -0.7365  0.7961
   77MOL    H8124553   6.025   0.355   6.729 -0.7729 -1.3373 -0.9372
   77MOL    C8224554   5.996   0.476   7.271 -0.2394 -0.2418  0.2180
   77MOL    C8324555   5.997   0.628   7.231 -0.0626  0.1139 -0.7106
   77MOL    C8424556   5.850   0.686   7.246 -0.2970  0.1660 -0.2017
   77MOL    O8524557   5.760   0.652   7.165  0.0449 -0.1927 -0.0999
   77MOL    N8624558   5.814   0.771   7.347  0.8578 -0.2482 -0.3825
   77MOL    C8724559   5.675   0.805   7.364  0.2166  0.1885  0.7637
   77MOL    C8824560   5.896   0.828   7.454 -0.1562 -0.9914  0.1319
   77MOL    H8924561   5.945   0.461   7.366  0.2854 -2.2887  0.2051
   77MOL    H9024562   6.100   0.448   7.291 -0.6352 -1.6979  0.3128
   77MOL    H9124563   6.050   0.673   7.315 -1.3073  1.0916 -0.4414
   77MOL    H9224564   5.655   0.855   7.459 -0.7483 -1.1060  1.2559
   77MOL    H9324565   5.641   0.863   7.278 -0.0882 -2.1755 -0.7491
   77MOL    H9424566   5.614   0.714   7.366  0.2550  0.1042 -1.3528
   77MOL    H9524567   5.897   0.755   7.535 -0.4989  1.8032  2.7357
   77MOL    H9624568   5.864   0.925   7.494 -0.5622 -1.1487  0.1909
   77MOL    H9724569   6.000   0.852   7.433 -0.8639  2.0588 -0.1981
   77MOL    C9824570   6.058   0.659   7.094 -0.2428 -0.2283 -0.2811
   77MOL    C9924571   6.069   0.808   7.045 -0.2195  0.7586 -0.5140
   77MOL   C10024572   6.045   0.806   6.890  0.5467 -0.0287  0.1285
   77MOL   O10124573   6.130   0.750   6.821 -0.6602  0.0589 -0.1545
   77MOL   N10224574   5.922   0.834   6.840  0.3590  0.6996  0.0046
   77MOL   C10324575   5.805   0.877   6.912 -0.3866  0.8894 -0.0133
   77MOL   C10424576   5.887   0.801   6.701 -0.5551 -0.1085  0.4672
   77MOL   H10524577   6.155   0.611   7.078  0.6645  1.5274 -0.1804
   77MOL   H10624578   6.002   0.602   7.020 -0.9653 -2.0025  1.5807
   77MOL   H10724579   5.984   0.858   7.092 -0.6009  0.3171 -0.7309
   77MOL   H10824580   5.832   0.944   6.993  2.5350 -0.8557  0.5490
   77MOL   H10924581   5.739   0.934   6.848 -1.4851  1.0640  1.2606
   77MOL   H11024582   5.737   0.798   6.946 -0.2494  0.9631  0.4355
   77MOL   H11124583   5.793   0.848   6.672  0.4593  0.0586 -2.8173
   77MOL   H11224584   5.903   0.694   6.688 -1.8569 -0.2579  0.0278
   77MOL   H11324585   5.961   0.854   6.642 -0.2322  1.3441  2.1586
   77MOL   C11424586   6.200   0.882   7.074 -0.2640  0.2559  0.0401
   77MOL   C11524587   6.174   1.002   7.170  0.4107  0.3236  0.2846
   77MOL   C11624588   6.065   1.111   7.138 -0.2745  0.1153 -0.5261
   77MOL   O11724589   6.028   1.122   7.023  0.0206  0.2437 -0.3947
   77MOL   N11824590   5.998   1.177   7.237 -0.3816 -0.4354  0.5174
   77MOL   C11924591   6.047   1.210   7.366  0.1698  0.6714 -0.3373
   77MOL   C12024592   5.872   1.246   7.208  0.3242 -0.3954  0.8281
   77MOL   H12124593   6.273   0.815   7.120  1.7783  1.4648 -1.3666
   77MOL   H12224594   6.256   0.915   6.986  1.3426 -1.0125  0.5732
   77MOL   H12324595   6.139   0.961   7.265 -0.9146  0.1252 -0.2776
   77MOL   H12424596   6.116   1.293   7.352 -1.0291  1.7940  0.3923
   77MOL   H12524597   5.965   1.237   7.432 -0.0589 -0.8364  0.0098
   77MOL   H12624598   6.104   1.121   7.394  0.4512  1.4863  1.7311
   77MOL   H12724599   5.877   1.346   7.166 -0.0137 -1.0075 -0.7060
   77MOL   H12824600   5.805   1.264   7.292 -1.9271  5.6209 -2.0085
   77MOL   H12924601   5.811   1.187   7.140 -0.4423 -0.4490  1.5518
   77MOL   C13024602   6.313   1.077   7.177 -0.4748 -0.3950 -0.0312
   77MOL   C13124603   6.430   0.995   7.242 -0.9853 -0.0729  0.7646
   77MOL   C13224604   6.405   0.959   7.391  0.2035  0.0462  0.6597
   77MOL   O13324605   6.387   1.051   7.472  0.1991  0.4100 -0.1347
   77MOL   N13424606   6.389   0.829   7.427  0.1062 -0.9310  1.0808
   77MOL   C13524607   6.341   0.802   7.560  0.2941  0.3707  0.6988
   77MOL   C13624608   6.450   0.708   7.363  0.5057  0.4583 -0.5405
   77MOL   H13724609   6.345   1.100   7.075  0.3309  0.6069  0.4432
   77MOL   H13824610   6.299   1.177   7.217  3.0104  0.6381 -1.2216
   77MOL   H13924611   6.452   0.903   7.188  0.5248  0.7347 -0.0152
   77MOL   H14024612   6.286   0.708   7.560  1.6973 -0.4753  1.6701
   77MOL   H14124613   6.432   0.795   7.620  0.8674 -0.3083 -0.2309
   77MOL   H14224614   6.272   0.873   7.606 -0.1377  1.2386 -1.2416
   77MOL   H14324615   6.446   0.615   7.419  4.2732  0.0494 -0.7985
   77MOL   H14424616   6.555   0.717   7.334  0.3472  0.4515 -1.1369
   77MOL   H14524617   6.404   0.698   7.265 -2.5343 -1.2864  1.0037
   77MOL   C14624618   6.566   1.080   7.229  0.1237 -0.3735  0.0875
   77MOL   C14724619   6.637   1.039   7.097  0.7783  0.3560  0.0088
   77MOL   C14824620   6.709   0.909   7.112 -0.5972  0.2057  0.0510
   77MOL   O14924621   6.815   0.904   7.175  0.7719 -0.2852 -0.6737
   77MOL   N15024622   6.663   0.796   7.058 -0.4317  0.3642  0.2057
   77MOL   C15124623   6.586   0.796   6.933 -0.3214 -0.1034  0.0870
   77MOL   C15224624   6.729   0.667   7.086 -0.7890 -0.4722  0.0693
   77MOL   H15324625   6.565   1.189   7.223  0.6285 -0.4286 -1.0229
   77MOL   H15424626   6.635   1.062   7.311  0.5498  0.3170 -0.1151
   77MOL   H15524627   6.561   1.033   7.019  0.7156  0.3069  0.0739
   77MOL   H15624628   6.619   0.882   6.873 -0.8929  2.2453  3.0318
   77MOL   H15724629   6.587   0.701   6.880  0.2201  0.9632 -1.8785
   77MOL   H15824630   6.481   0.808   6.961 -0.0074 -2.0496  2.2113
   77MOL   H15924631   6.805   0.642   7.012 -0.6145 -0.2007  0.1568
   77MOL   H16024632   6.649   0.593   7.076 -1.5236  0.2951  0.2147
   77MOL   H16124633   6.762   0.651   7.188  1.9656  0.8723 -0.5697
   77MOL   C16224634   6.738   1.143   7.046  0.4620  0.1634  0.7292
   77MOL   C16324635   6.789   1.128   6.897 -0.0304  0.1390  0.5343
   77MOL   C16424636   6.943   1.142   6.895 -0.2916  0.0754  0.9423
   77MOL   O16524637   6.985   1.254   6.919  0.3117  0.1462  0.3875
   77MOL   N16624638   7.021   1.029   6.883  0.8052 -0.2711 -0.6099
   77MOL   C16724639   6.968   0.898   6.843 -0.0882 -0.6438 -0.0571
   77MOL   C16824640   7.163   1.036   6.934  0.3541 -0.2785  0.7087
   77MOL   H16924641   6.704   1.246   7.054 -0.8887 -0.3076  1.0730
   77MOL   H17024642   6.820   1.140   7.119  1.8101 -1.4312 -0.7838
   77MOL   H17124643   6.759   1.027   6.868  1.8561 -0.0242 -0.9154
   77MOL   H17224644   6.920   0.864   6.936  1.9876  0.1069  1.3307
   77MOL   H17324645   6.892   0.891   6.766  0.2014 -0.6404 -0.3400
   77MOL   H17424646   7.053   0.832   6.824  1.3520  0.4287  2.3456
   77MOL   H17524647   7.172   1.067   7.038  0.3896 -0.7914  0.8604
   77MOL   H17624648   7.232   1.089   6.868 -1.2407  0.8204 -0.1192
   77MOL   H17724649   7.210   0.938   6.946 -0.4109 -0.5101  1.9121
   77MOL   C17824650   6.719   1.234   6.809 -0.0580  0.3367  0.9608
   77MOL   C17924651   6.683   1.206   6.657  0.0629 -0.5805 -0.4790
   77MOL   C18024652   6.584   1.090   6.641 -0.1725  0.3776 -0.7992
   77MOL   O18124653   6.633   0.982   6.614 -0.5994 -0.6413 -0.4207
   77MOL   N18224654   6.454   1.101   6.659 -0.0074  0.2622 -0.4904
   77MOL   C18324655   6.390   1.220   6.710  0.6232  0.0585 -0.0045
   77MOL   C18424656   6.357   0.994   6.658  0.0207 -0.5852 -0.2289
   77MOL   H18524657   6.618   1.242   6.850 -1.0457 -1.1618 -1.0695
   77MOL   H18624658   6.758   1.335   6.819  2.1272 -0.2891 -0.8273
   77MOL   H18724659   6.637   1.294   6.612  0.9715  0.8637  1.3311
   77MOL   H18824660   6.404   1.229   6.818  1.3461  2.0462 -0.2319
   77MOL   H18924661   6.423   1.309   6.656 -0.4527  0.0640 -0.6738
   77MOL   H19024662   6.283   1.221   6.688  0.4154 -1.0569  0.8990
   77MOL   H19124663   6.295   1.004   6.747  0.8231 -4.0296  0.7821
   77MOL   H19224664   6.411   0.899   6.650 -1.5528 -1.3455 -2.2764
   77MOL   H19324665   6.295   0.995   6.569 -0.6175 -2.3315  0.1759
   77MOL   C19424666   6.812   1.185   6.572  0.0914 -0.0767 -0.8132
   77MOL   C19524667   6.922   1.296   6.561  0.3662  0.2979  0.3778
   77MOL   C19624668   6.890   1.425   6.483  0.0897  0.1499  0.0424
   77MOL   O19724669   6.875   1.415   6.364  0.3273 -0.3181  0.7638
   77MOL   N19824670   6.896   1.549   6.543 -0.4748 -0.1205 -0.6005
   77MOL   C19924671   6.912   1.672   6.471 -0.4681  0.0151 -0.0364
   77MOL   C20024672   6.898   1.552   6.688  0.4416 -0.5681  0.2344
   77MOL   H20124673   6.856   1.087   6.589  1.3224  0.9261  2.0846
   77MOL   H20224674   6.775   1.171   6.471 -1.8618  0.4784 -0.2161
   77MOL   H20324675   6.952   1.301   6.666  1.8025 -1.5185  0.0829
   77MOL   H20424676   6.910   1.657   6.363  2.4804 -3.2699  0.2759
   77MOL   H20524677   6.828   1.738   6.495  0.7562  2.4465 -2.1594
   77MOL   H20624678   7.009   1.717   6.489 -0.1467 -0.3226 -0.8808
   77MOL   H20724679   6.903   1.656   6.720 -0.6574 -0.4864  0.1615
   77MOL   H20824680   6.992   1.521   6.732  3.2421  1.1900 -4.1812
   77MOL   H20924681   6.815   1.501   6.738  0.3075  0.9519  1.5928
   77MOL   C21024682   7.050   1.224   6.498  0.2022  0.1610 -0.7467
   77MOL   C21124683   7.173   1.310   6.470 -0.7198  0.4177 -0.0466
   77MOL   C21224684   7.266   1.244   6.363 -0.1325  0.1895 -0.4962
   77MOL   O21324685   7.308   1.131   6.383 -0.2899  0.2327  0.0374
   77MOL   N21424686   7.302   1.313   6.255  0.1946  0.2350 -0.1637
   77MOL   C21524687   7.377   1.253   6.142 -0.1517  0.3559 -0.2529
   77MOL   C21624688   7.220   1.423   6.206 -0.8185  0.1348  0.0283
   77MOL   H21724689   7.080   1.145   6.567  0.8084  0.8444 -0.2259
   77MOL   H21824690   7.019   1.160   6.415  0.0129  0.3349 -0.8087
   77MOL   H21924691   7.139   1.412   6.451 -1.5907  0.7466  3.0326
   77MOL   H22024692   7.324   1.221   6.052  1.2924  1.4576 -1.5292
   77MOL   H22124693   7.435   1.338   6.104 -1.4707  1.0123 -0.8409
   77MOL   H22224694   7.447   1.180   6.181 -2.5743 -1.6869  0.4180
   77MOL   H22324695   7.122   1.383   6.183 -1.0546  0.2519  0.8054
   77MOL   H22424696   7.261   1.460   6.112 -0.2924 -1.5515 -0.4327
   77MOL   H22524697   7.214   1.510   6.271  0.2834  0.3623 -0.1623
   77MOL   C22624698   7.264   1.337   6.595  0.3548 -0.0871 -0.5123
   77MOL   C22724699   7.382   1.431   6.564 -0.4451  0.2831 -0.2552
   77MOL   C22824700   7.516   1.409   6.648 -0.1915  0.3161 -0.2646
   77MOL   O22924701   7.519   1.442   6.765  0.3414  0.4289  0.0327
   77MOL   N23024702   7.620   1.341   6.585 -0.2373 -0.0983 -0.3366
   77MOL   C23124703   7.654   1.316   6.445  0.1191 -0.3965  0.2658
   77MOL   C23224704   7.730   1.302   6.670  0.4106 -0.5016 -0.8815
   77MOL   H23324705   7.224   1.377   6.688  2.0989  0.1679  0.1491
   77MOL   H23424706   7.310   1.239   6.607 -2.1217 -1.0148  1.9333
   77MOL   H23524707   7.410   1.421   6.459 -0.3145 -0.5376 -0.1518
   77MOL   H23624708   7.761   1.333   6.428 -0.0662 -0.3957 -0.9420
   77MOL   H23724709   7.643   1.209   6.424 -1.5430 -0.5461  1.7704
   77MOL   H23824710   7.603   1.384   6.377  0.2206  0.7211  1.2983
   77MOL   H23924711   7.701   1.276   6.772 -2.2815  0.3445 -1.3818
   77MOL   H24024712   7.804   1.382   6.667 -0.2043  0.0296 -2.3495
   77MOL   H24124713   7.790   1.219   6.632 -0.9834 -1.4576 -1.0469
   77MOL   C24224714   7.329   1.579   6.596 -0.2154 -0.3683 -0.1782
   77MOL   C24324715   7.432   1.691   6.550  0.1174 -0.3377 -1.2017
   77MOL   C24424716   7.386   1.817   6.619 -0.2493 -0.0619  0.2780
   77MOL   O24524717   7.292   1.878   6.566  0.2855  0.9648 -0.0250
   77MOL   N24624718   7.431   1.867   6.737  0.1394  0.5743  0.1994
   77MOL   C24724719   7.559   1.811   6.800  0.0917  0.4213  0.1333
   77MOL   C24824720   7.348   1.953   6.821 -0.3994 -0.3508  0.0867
   77MOL   H24924721   7.225   1.596   6.567 -1.5219 -1.1741  3.6346
   77MOL   H25024722   7.323   1.581   6.705 -0.5713  0.2302 -0.2053
   77MOL   H25124723   7.532   1.672   6.589 -1.1064 -1.0852  1.7450
   77MOL   H25224724   7.649   1.808   6.740 -0.7373 -0.8201 -1.0886
   77MOL   H25324725   7.585   1.848   6.900 -0.9995  0.2181  0.4980
   77MOL   H25424726   7.544   1.705   6.821 -0.9519  0.0817 -2.2464
   77MOL   H25524727   7.250   1.912   6.845 -1.4412  0.8104 -2.0495
   77MOL   H25624728   7.329   2.038   6.756 -2.6234  0.4119  1.6630
   77MOL   H25724729   7.396   1.982   6.914 -1.1190  1.1859 -0.0094
   77MOL   C25824730   7.432   1.697   6.389  0.1246 -0.3279 -0.1903
   77MOL   C25924731   7.505   1.819   6.327 -0.0717 -0.2171  0.5614
   77MOL   C26024732   7.460   1.830   6.177  0.1169 -0.4261 -0.0267
   77MOL   O26124733   7.464   1.732   6.109 -0.1126  0.6810  0.0831
   77MOL   N26224734   7.408   1.952   6.131 -0.7183 -0.0615  0.5802
   77MOL   C26324735   7.375   1.963   5.990 -0.2723 -0.5950 -0.1142
   77MOL   C26424736   7.397   2.074   6.212 -0.0367  0.4050  0.3185
   77MOL   H26524737   7.465   1.607   6.338 -1.2365 -1.2011  0.4376
   77MOL   H26624738   7.327   1.701   6.358 -0.0539 -0.5383  0.3638
   77MOL   H26724739   7.484   1.908   6.387  0.7093  0.7115 -0.5223
   77MOL   H26824740   7.467   1.950   5.934 -0.5966 -3.3122 -0.0910
   77MOL   H26924741   7.298   1.892   5.959 -1.6244 -0.0970  2.0049
   77MOL   H27024742   7.332   2.061   5.970  1.2775  0.6080  2.2174
   77MOL   H27124743   7.485   2.101   6.269  0.1552 -1.8253  1.0999
   77MOL   H27224744   7.313   2.056   6.280 -1.8578  1.2281 -1.6306
   77MOL   H27324745   7.396   2.160   6.144  1.3693  0.3392  0.2054
   77MOL   C27424746   7.656   1.803   6.341  0.7139 -0.4255  0.4035
   77MOL   C27524747   7.741   1.937   6.362 -0.2669 -0.1018  0.1936
   77MOL   C27624748   0.030   1.903   6.315  0.2246 -0.2486 -0.1845
   77MOL   O27724749   0.095   1.837   6.392  0.3894 -0.3860 -0.4005
   77MOL   N27824750   0.081   1.949   6.201  0.5594  0.0319  0.2298
   77MOL   C27924751   0.225   1.959   6.176 -0.1535 -0.3168  0.1038
   77MOL   C28024752   7.852   2.006   6.099  0.5380 -0.3532 -0.7284
   77MOL   H28124753   7.681   1.728   6.416 -0.1731 -1.3085 -0.1781
   77MOL   H28224754   7.696   1.758   6.250 -0.4031  0.3053 -0.4688
   77MOL   H28324755   7.688   2.011   6.303 -0.6381 -0.7887 -0.3352
   77MOL   H28424756   0.251   2.045   6.116  0.9190 -0.6458  0.0895
   77MOL   H28524757   0.298   1.948   6.256 -0.7378 -1.2963  0.5251
   77MOL   H28624758   0.246   1.872   6.114 -0.6262  0.8669 -1.7489
   77MOL   H28724759   0.030   1.970   6.001  1.6764 -1.2606 -0.0406
   77MOL   H28824760   7.849   2.115   6.098 -3.3624 -0.3595  1.2655
   77MOL   H28924761   7.751   1.965   6.102  0.4491 -0.2448 -1.8119
   77MOL   C29024762   7.741   1.987   6.515 -0.1854  0.1258  0.0631
   77MOL   C29124763   7.771   2.139   6.538  0.3771 -0.7505  0.4064
   77MOL   C29224764   7.657   2.242   6.514 -0.2692 -0.0511 -0.3515
   77MOL   O29324765   7.632   2.277   6.402  0.4165 -0.0677 -0.5338
   77MOL   N29424766   7.586   2.284   6.625 -0.1094 -0.0108 -0.2981
   77MOL   C29524767   7.485   2.387   6.613  0.5556 -0.0508 -0.1254
   77MOL   C29624768   7.575   2.226   6.759  0.5561  0.2129  0.0886
   77MOL   H29724769   7.639   1.977   6.553 -0.2756  1.9817  0.3264
   77MOL   H29824770   7.804   1.920   6.573 -0.7593 -2.1005 -1.8127
   77MOL   H29924771   7.792   2.146   6.644 -0.1888 -2.0237  0.6089
   77MOL   H30024772   7.483   2.445   6.521 -2.6906  1.0462  0.5475
   77MOL   H30124773   7.390   2.343   6.644  0.7930  1.0725  2.3346
   77MOL   H30224774   7.506   2.467   6.685 -1.3990  0.5483 -0.1755
   77MOL   H30324775   7.666   2.244   6.816 -0.5189 -0.3746  2.0357
   77MOL   H30424776   7.567   2.118   6.771 -0.8260  0.1834 -1.0840
   77MOL   H30524777   7.494   2.264   6.822 -0.8133 -0.1596 -1.4131
   77MOL   C30624778   0.051   2.186   6.475  0.3992 -0.6249 -0.1458
   77MOL   C30724779   0.171   2.113   6.534 -0.0625 -0.7775 -0.5194
   77MOL   C30824780   0.271   2.176   6.631 -0.3195  0.1012  0.4589
   77MOL   O30924781   0.242   2.283   6.682 -0.5338  0.1838 -0.0691
   77MOL   N31024782   0.370   2.102   6.676 -0.0657  0.2812 -0.1335
   77MOL   C31124783   0.395   1.964   6.645  0.3078 -0.2186 -0.0458
   77MOL   C31224784   0.477   2.174   6.749  0.2701  0.6212 -0.1518
   77MOL   H31324785   0.038   2.177   6.367  2.3322  0.5314 -0.5024
   77MOL   H31424786   0.071   2.292   6.493  2.2313 -0.8680 -0.6761
   77MOL   H31524787   0.136   2.015   6.567  0.0733 -0.4247  0.6726
   77MOL   H31624788   0.443   1.953   6.548 -1.6860 -1.3348 -0.9345
   77MOL   H31724789   0.443   1.911   6.727  0.3504  1.0739  0.7755
   77MOL   H31824790   0.305   1.903   6.649  0.0995  0.2148  3.6293
   77MOL   H31924791   0.532   2.237   6.680  2.0640  0.9661  1.5502
   77MOL   H32024792   0.551   2.102   6.784  2.4954  2.6551 -0.6251
   77MOL   H32124793   0.455   2.236   6.836 -0.1149 -0.3679  0.4655
   77MOL   H32224794   0.233   2.102   6.445 -0.8113 -1.1341 -1.0004
   78MOL     C124795   1.855   6.193   3.131  0.9032 -0.1168 -0.7268
   78MOL     C224796   1.852   6.048   3.102  0.7632  0.9995  0.8932
   78MOL     C324797   1.976   5.971   3.158 -0.0731  0.3614  0.5565
   78MOL     O424798   2.084   5.996   3.103 -0.1113 -0.1006  0.1124
   78MOL     N524799   1.966   5.878   3.255  0.5010  0.1813 -0.3509
   78MOL     C624800   1.841   5.827   3.296 -0.7512  0.1717  0.6748
   78MOL     C724801   2.081   5.816   3.316  0.2910 -0.7954 -0.1923
   78MOL     H824802   1.956   6.226   3.108  1.1682 -2.3556 -2.9388
   78MOL     H924803   1.836   6.222   3.234 -0.3777 -1.7968 -0.4660
   78MOL    H1024804   1.763   6.016   3.156  0.5138 -0.3828 -0.2812
   78MOL    H1124805   1.769   5.813   3.216  0.4982  1.2381 -0.6498
   78MOL    H1224806   1.861   5.726   3.333 -0.3314  0.2939  0.7808
   78MOL    H1324807   1.795   5.875   3.383 -0.2981  0.1602  0.9235
   78MOL    H1424808   2.063   5.779   3.417  3.3596  1.8024  1.4190
   78MOL    H1524809   2.168   5.881   3.331  0.6003 -1.6502  1.9724
   78MOL    H1624810   2.108   5.737   3.247 -0.5932 -2.5876  1.4558
   78MOL    H1724811   1.785   6.249   3.068  0.4574 -0.5894 -0.6475
   78MOL    C1824812   1.829   6.020   2.945 -0.4278  0.8216  0.5370
   78MOL    C1924813   1.685   6.048   2.881 -0.8294 -0.3304 -1.3369
   78MOL    C2024814   1.573   5.959   2.934  0.3029  0.7624 -0.1838
   78MOL    O2124815   1.598   5.854   2.978 -0.3633  0.1755 -0.3919
   78MOL    N2224816   1.447   6.009   2.961 -0.0471 -0.4640 -0.0480
   78MOL    C2324817   1.391   6.138   2.917  0.5311 -0.4585 -0.2347
   78MOL    C2424818   1.337   5.928   3.012  0.4990 -0.4258  0.3596
   78MOL    H2524819   1.895   6.091   2.894  0.9375 -0.7109  0.1393
   78MOL    H2624820   1.869   5.923   2.917 -1.3951  0.6329 -0.2070
   78MOL    H2724821   1.654   6.149   2.910  0.7386  0.1803 -1.3997
   78MOL    H2824822   1.285   6.155   2.936  0.6288  0.1054 -0.2006
   78MOL    H2924823   1.455   6.219   2.951  1.2060 -0.1150 -2.2980
   78MOL    H3024824   1.393   6.152   2.809  0.9616 -0.3202 -0.2109
   78MOL    H3124825   1.374   5.835   3.056  0.0374 -1.4753 -1.4022
   78MOL    H3224826   1.263   5.889   2.942  1.0657 -2.1086  0.6755
   78MOL    H3324827   1.270   5.972   3.086  0.4816 -0.5581  0.4228
   78MOL    C3424828   1.694   6.054   2.724 -0.0360  0.0731  0.5504
   78MOL    C3524829   1.593   5.981   2.637  0.2127 -0.0662 -0.7668
   78MOL    C3624830   1.621   5.829   2.619 -0.3137  0.2942  0.3734
   78MOL    O3724831   1.740   5.797   2.603  0.4462  0.7152  0.1392
   78MOL    N3824832   1.520   5.736   2.619  0.8468  0.4506  0.7529
   78MOL    C3924833   1.374   5.774   2.637 -0.1725 -0.1656  0.6636
   78MOL    C4024834   1.538   5.604   2.562 -0.2761 -0.8365  0.6362
   78MOL    H4124835   1.708   6.156   2.689  0.3078 -0.3857 -0.6866
   78MOL    H4224836   1.796   6.020   2.703  0.4925  0.2928  2.6192
   78MOL    H4324837   1.492   5.993   2.676 -0.7520 -0.8010 -2.9798
   78MOL    H4424838   1.372   5.810   2.740  1.6647  1.4340  0.1861
   78MOL    H4524839   1.350   5.844   2.557 -0.0701  0.3596  1.0867
   78MOL    H4624840   1.303   5.693   2.627  0.6095 -0.3919 -4.7028
   78MOL    H4724841   1.442   5.552   2.552  0.2477 -1.7904  0.4727
   78MOL    H4824842   1.600   5.540   2.625  0.7548  0.5960  1.1113
   78MOL    H4924843   1.588   5.623   2.468 -1.9977 -0.5858 -0.2576
   78MOL    C5024844   1.595   6.037   2.493  0.4056 -0.2985  0.5782
   78MOL    C5124845   1.536   6.178   2.455 -0.7101  0.2257 -0.4841
   78MOL    C5224846   1.386   6.184   2.495  0.4244 -0.6363  0.2763
   78MOL    O5324847   1.307   6.100   2.452  0.3628  0.9312 -0.5260
   78MOL    N5424848   1.331   6.289   2.567  0.0419  0.0037  0.6967
   78MOL    C5524849   1.195   6.289   2.615 -0.1228 -0.5257  0.1041
   78MOL    C5624850   1.410   6.401   2.611  0.6283  0.4794  0.3702
   78MOL    H5724851   1.700   6.035   2.466  0.5629  2.2395  0.8990
   78MOL    H5824852   1.543   5.966   2.429  0.8624 -0.1591  0.0546
   78MOL    H5924853   1.592   6.248   2.517 -1.2909  0.1622  0.1208
   78MOL    H6024854   1.135   6.203   2.586  1.5531 -1.6361 -0.1325
   78MOL    H6124855   1.187   6.295   2.723  1.4772 -1.5678  0.2877
   78MOL    H6224856   1.143   6.372   2.566 -0.5937 -0.9195 -0.0629
   78MOL    H6324857   1.344   6.482   2.641 -1.7088 -0.8396 -1.0555
   78MOL    H6424858   1.482   6.442   2.540  0.8503  1.5957  1.2353
   78MOL    H6524859   1.474   6.369   2.693  2.9752 -0.8115 -1.8674
   78MOL    C6624860   1.547   6.236   2.311  0.3358  0.4022 -0.7453
   78MOL    C6724861   1.676   6.214   2.228  0.0058  1.0358  0.1797
   78MOL    C6824862   1.798   6.265   2.302 -0.4628 -0.1011  0.6412
   78MOL    O6924863   1.796   6.381   2.352 -0.0279 -0.7293 -0.4410
   78MOL    N7024864   1.909   6.191   2.321  0.2563  0.1904 -0.0636
   78MOL    C7124865   2.028   6.255   2.381  0.4834  0.3313 -0.4043
   78MOL    C7224866   1.938   6.067   2.241 -0.0582  0.1438  0.4905
   78MOL    H7324867   1.470   6.182   2.256 -0.5478  0.1116  0.7411
   78MOL    H7424868   1.539   6.344   2.319 -1.1177  0.2845 -0.3562
   78MOL    H7524869   1.681   6.106   2.215 -1.3877  0.8634  0.9468
   78MOL    H7624870   2.090   6.301   2.305  0.0968  0.8736 -0.3928
   78MOL    H7724871   2.008   6.339   2.448  0.6348  0.6399 -0.7420
   78MOL    H7824872   2.090   6.182   2.433  0.5246  1.1399  0.7126
   78MOL    H7924873   2.041   6.030   2.244 -0.3224 -0.5944  0.6983
   78MOL    H8024874   1.903   6.086   2.140  0.4696  0.1338  0.3028
   78MOL    H8124875   1.886   5.978   2.278 -0.3129 -0.4728 -1.3429
   78MOL    C8224876   1.649   6.282   2.087  0.0778 -0.4072  0.1631
   78MOL    C8324877   1.764   6.282   1.981  0.2511 -0.3622 -0.4517
   78MOL    C8424878   1.857   6.400   1.994  0.1157 -0.5148 -0.1167
   78MOL    O8524879   1.802   6.509   2.020  0.3061 -0.1489  0.6968
   78MOL    N8624880   1.991   6.385   2.000 -0.6405 -0.6970  0.0435
   78MOL    C8724881   2.064   6.286   1.928 -0.1271  0.2868  0.1227
   78MOL    C8824882   2.085   6.487   2.055  0.9699 -0.2890 -0.2094
   78MOL    H8924883   1.574   6.229   2.028 -0.3409  0.8090 -0.4283
   78MOL    H9024884   1.601   6.378   2.104  0.8380  0.1195 -0.6078
   78MOL    H9124885   1.812   6.184   1.978  0.5148 -0.2662  0.4310
   78MOL    H9224886   2.104   6.227   2.010 -1.6915  0.2500  0.8778
   78MOL    H9324887   2.005   6.215   1.870  0.0263  0.8865 -0.7732
   78MOL    H9424888   2.153   6.321   1.876  0.3071  0.2727  0.8499
   78MOL    H9524889   2.044   6.558   2.126  0.2989  1.7363 -2.5668
   78MOL    H9624890   2.128   6.561   1.987 -1.1921 -0.7638 -2.1700
   78MOL    H9724891   2.170   6.436   2.101  1.6205 -0.1936 -1.2701
   78MOL    C9824892   1.697   6.292   1.841  0.3997  0.0839  0.4913
   78MOL    C9924893   1.670   6.160   1.762  0.1542  0.1298 -0.4799
   78MOL   C10024894   1.631   6.205   1.614 -0.1643  0.3935 -0.3652
   78MOL   O10124895   1.518   6.248   1.590 -0.0053  0.0978 -0.1543
   78MOL   N10224896   1.725   6.183   1.514 -0.5994 -0.7309  0.4341
   78MOL   C10324897   1.694   6.205   1.369 -0.2696  0.0740 -0.4746
   78MOL   C10424898   1.861   6.140   1.538  0.1043 -0.3295 -0.0033
   78MOL   H10524899   1.612   6.360   1.829  1.5217  1.5193  0.4956
   78MOL   H10624900   1.775   6.331   1.775  0.8328 -1.3187  0.1531
   78MOL   H10724901   1.762   6.100   1.765 -0.6749 -1.1539 -0.3966
   78MOL   H10824902   1.657   6.116   1.318 -2.1841 -0.0041  0.9951
   78MOL   H10924903   1.622   6.284   1.348 -1.0335 -0.5051 -0.0531
   78MOL   H11024904   1.785   6.238   1.318 -1.1110  1.1892 -1.2786
   78MOL   H11124905   1.920   6.146   1.447  1.6287  1.4359  1.0808
   78MOL   H11224906   1.863   6.035   1.569 -0.8777 -0.5281 -0.5763
   78MOL   H11324907   1.908   6.207   1.610  0.2770 -1.9363  1.4003
   78MOL   C11424908   1.577   6.054   1.836  0.0757 -0.1819  0.1761
   78MOL   C11524909   1.553   5.922   1.744 -0.4390 -0.0596 -0.5970
   78MOL   C11624910   1.414   5.859   1.777 -1.1267 -0.1797  0.6133
   78MOL   O11724911   1.390   5.838   1.897 -0.2963  0.0243 -0.2223
   78MOL   N11824912   1.321   5.833   1.685 -0.1721  0.0678  0.4055
   78MOL   C11924913   1.319   5.898   1.554 -0.7000 -0.6137 -0.1117
   78MOL   C12024914   1.206   5.751   1.718 -0.0955  0.0453 -0.1701
   78MOL   H12124915   1.625   6.021   1.929 -1.2886 -2.7763  0.0243
   78MOL   H12224916   1.481   6.101   1.857  0.2549  1.4008 -2.3861
   78MOL   H12324917   1.536   5.959   1.643  1.2611 -0.6157 -1.1023
   78MOL   H12424918   1.396   5.856   1.489 -0.2013  0.3626 -0.1661
   78MOL   H12524919   1.224   5.884   1.501  0.2802 -2.5383 -1.4514
   78MOL   H12624920   1.324   6.006   1.563  2.8789 -0.7636  0.2719
   78MOL   H12724921   1.201   5.673   1.643  0.9720  0.4262 -0.6457
   78MOL   H12824922   1.110   5.801   1.706 -0.5853 -0.6595  0.7379
   78MOL   H12924923   1.206   5.707   1.818  1.5384  0.6680  0.1137
   78MOL   C13024924   1.673   5.816   1.734 -0.1257  0.0410  0.5532
   78MOL   C13124925   1.693   5.704   1.847  0.4604  0.2422  0.1248
   78MOL   C13224926   1.703   5.759   1.989  0.4482  0.3418 -0.4022
   78MOL   O13324927   1.795   5.840   2.011 -0.0635 -0.0867  0.5657
   78MOL   N13424928   1.630   5.701   2.086  0.6947  0.2693 -0.2461
   78MOL   C13524929   1.559   5.571   2.084 -0.4293 -0.3070  0.1035
   78MOL   C13624930   1.604   5.776   2.208 -0.0985  0.0573 -0.1527
   78MOL   H13724931   1.655   5.764   1.641 -1.3565 -0.4840  1.0811
   78MOL   H13824932   1.767   5.867   1.714 -1.2949  1.5954 -1.0813
   78MOL   H13924933   1.601   5.645   1.845 -0.3004  1.4069  0.2161
   78MOL   H14024934   1.627   5.512   2.022  1.5574  0.8413  1.1379
   78MOL   H14124935   1.581   5.526   2.181  3.1119 -0.1199 -0.5273
   78MOL   H14224936   1.454   5.579   2.058 -0.3066  2.2613  0.3181
   78MOL   H14324937   1.547   5.867   2.188 -1.6335 -0.5328  1.4773
   78MOL   H14424938   1.695   5.804   2.262 -0.2264 -0.1008  0.1426
   78MOL   H14524939   1.529   5.725   2.268  0.3100 -0.4453 -0.0637
   78MOL   C14624940   1.799   5.592   1.794 -0.1681  0.1027 -0.8339
   78MOL   C14724941   1.946   5.626   1.825  0.8136 -0.2870 -0.8190
   78MOL   C14824942   2.007   5.733   1.730 -0.8005 -0.2949 -0.8171
   78MOL   O14924943   2.007   5.706   1.614  0.3777 -0.7057 -0.0178
   78MOL   N15024944   2.082   5.836   1.771 -0.4193  0.4285 -0.4921
   78MOL   C15124945   2.104   5.863   1.916 -0.0101  0.4104 -0.5220
   78MOL   C15224946   2.147   5.940   1.689  0.5590  0.6927 -0.1508
   78MOL   H15324947   1.774   5.497   1.841 -1.1040 -0.2975 -2.0959
   78MOL   H15424948   1.792   5.582   1.685 -0.7005  1.8239 -0.9736
   78MOL   H15524949   1.947   5.657   1.930  1.9621  1.7935 -1.4300
   78MOL   H15624950   2.023   5.929   1.948  0.6123 -0.3261  2.7792
   78MOL   H15724951   2.114   5.775   1.980 -0.0754  0.5557 -0.3102
   78MOL   H15824952   2.199   5.915   1.923  1.4071 -1.9758 -1.5468
   78MOL   H15924953   2.081   6.026   1.701  0.9104  0.8300  0.8202
   78MOL   H16024954   2.152   5.922   1.581  0.2736 -1.7142  0.2159
   78MOL   H16124955   2.249   5.958   1.722  0.3149  0.0442  0.9665
   78MOL   C16224956   2.024   5.492   1.816 -0.5126 -0.2764  0.1355
   78MOL   C16324957   2.172   5.496   1.858 -0.2985 -0.2775 -0.1778
   78MOL   C16424958   2.244   5.381   1.780 -0.2906 -0.9933 -0.3005
   78MOL   O16524959   2.221   5.266   1.816  0.2380 -0.2642 -0.2780
   78MOL   N16624960   2.320   5.405   1.671  0.3030 -0.5077 -0.4148
   78MOL   C16724961   2.375   5.542   1.640 -0.4053  0.2209  0.3124
   78MOL   C16824962   2.349   5.294   1.577 -0.1800 -0.6235  0.3955
   78MOL   H16924963   1.981   5.411   1.875  0.4562 -1.7913 -1.1742
   78MOL   H17024964   2.011   5.464   1.711 -1.4920 -0.0714  0.1937
   78MOL   H17124965   2.211   5.593   1.825  1.2540  0.3522  3.2472
   78MOL   H17224966   2.446   5.572   1.716 -0.9109 -1.0898  1.3190
   78MOL   H17324967   2.428   5.552   1.545 -2.6361 -2.0208 -1.2313
   78MOL   H17424968   2.301   5.622   1.630  1.1459  1.5934 -0.5204
   78MOL   H17524969   2.398   5.213   1.630 -0.0184 -0.5279  0.3903
   78MOL   H17624970   2.421   5.326   1.502  0.3067 -3.2480 -0.2860
   78MOL   H17724971   2.256   5.257   1.533 -1.8525  1.2104  2.2627
   78MOL   C17824972   2.197   5.476   2.010 -0.1532  0.5380  0.1221
   78MOL   C17924973   2.324   5.520   2.085  0.4693 -0.0520 -0.8669
   78MOL   C18024974   2.348   5.670   2.093 -0.2213  0.2154  0.0207
   78MOL   O18124975   2.403   5.727   1.999 -0.3835 -0.1723 -0.0062
   78MOL   N18224976   2.294   5.737   2.196  0.1601  0.0184  0.0830
   78MOL   C18324977   2.347   5.880   2.214  0.5351  0.1327  0.0482
   78MOL   C18424978   2.198   5.687   2.297 -0.0365 -0.5165 -0.3087
   78MOL   H18524979   2.113   5.529   2.055 -0.8679 -1.1641  0.8102
   78MOL   H18624980   2.182   5.374   2.043 -0.4555  0.5528  0.0356
   78MOL   H18724981   2.325   5.472   2.183 -0.0141 -0.0067 -0.8387
   78MOL   H18824982   2.455   5.885   2.205  0.5478 -0.8647 -0.4255
   78MOL   H18924983   2.292   5.943   2.144  2.0872  0.2412 -1.0970
   78MOL   H19024984   2.325   5.897   2.319 -2.2675 -0.5904 -0.3601
   78MOL   H19124985   2.101   5.734   2.307 -0.0224 -0.3445 -0.9582
   78MOL   H19224986   2.237   5.690   2.399  0.3232  2.6887 -0.4741
   78MOL   H19324987   2.170   5.582   2.297  1.1073 -0.8388  0.7227
   78MOL   C19424988   2.449   5.446   2.024  0.1887 -0.1813 -0.6343
   78MOL   C19524989   2.593   5.478   2.082 -0.0689 -0.7450  0.6484
   78MOL   C19624990   2.692   5.397   1.996 -0.3873 -0.5737 -0.1957
   78MOL   O19724991   2.717   5.282   2.043 -0.0476  1.2215 -0.2433
   78MOL   N19824992   2.758   5.442   1.889  0.0923  0.4642 -0.3277
   78MOL   C19924993   2.843   5.351   1.802 -0.6488 -0.0945  0.2713
   78MOL   C20024994   2.741   5.580   1.845 -1.2002  0.4099  0.1023
   78MOL   H20124995   2.420   5.341   2.020 -1.6888  0.3525 -1.2389
   78MOL   H20224996   2.457   5.483   1.922 -0.5698  0.1200 -0.5836
   78MOL   H20324997   2.600   5.584   2.059  0.3861 -0.5955  1.4924
   78MOL   H20424998   2.803   5.250   1.787 -1.9396  0.1873  1.7109
   78MOL   H20524999   2.852   5.394   1.702 -0.1315  0.7738  0.6899
   78MOL   H20625000   2.939   5.338   1.852 -0.6144  1.5990  0.6609
   78MOL   H20725001   2.797   5.619   1.760 -0.6524  0.3731  0.4433
   78MOL   H20825002   2.758   5.647   1.929 -1.2245 -1.3229  1.5055
   78MOL   H20925003   2.637   5.590   1.816 -0.8596  1.2945 -0.8719
   78MOL   C21025004   2.608   5.438   2.236 -0.1291 -0.2032  0.7606
   78MOL   C21125005   2.744   5.499   2.287  0.0949 -0.2549  0.0674
   78MOL   C21225006   2.783   5.427   2.418 -0.5981  0.6044 -0.1763
   78MOL   O21325007   2.699   5.415   2.500 -0.4276  0.8945 -0.4109
   78MOL   N21425008   2.907   5.375   2.443 -0.3704 -0.2320  0.5617
   78MOL   C21525009   2.938   5.320   2.574  0.3130  0.5017  0.1027
   78MOL   C21625010   3.019   5.363   2.347 -0.0533 -0.0478 -0.2582
   78MOL   H21725011   2.526   5.484   2.291 -2.5849 -3.4571 -0.0640
   78MOL   H21825012   2.600   5.330   2.248 -1.4401 -0.0433  1.4029
   78MOL   H21925013   2.815   5.476   2.207  0.5890 -2.4907  1.1265
   78MOL   H22025014   2.946   5.395   2.653  1.1732 -2.5068  2.9627
   78MOL   H22125015   2.861   5.248   2.601  0.4112  0.6574  0.7871
   78MOL   H22225016   3.030   5.263   2.566 -1.7329 -2.6935 -1.8816
   78MOL   H22325017   3.112   5.330   2.393 -0.8006 -1.2822  0.3712
   78MOL   H22425018   3.044   5.460   2.303  0.3816 -0.1830 -0.3097
   78MOL   H22525019   2.998   5.289   2.269  0.2098 -0.9106  0.4879
   78MOL   C22625020   2.725   5.648   2.320  0.7643  0.0587 -0.3589
   78MOL   C22725021   2.856   5.734   2.302  0.1496  0.0757  0.2697
   78MOL   C22825022   2.839   5.876   2.363  0.4181 -0.1234  0.3841
   78MOL   O22925023   2.792   5.972   2.295 -0.4093  0.9476 -0.0500
   78MOL   N23025024   2.868   5.892   2.497  1.1583  0.0090  0.7861
   78MOL   C23125025   2.935   5.792   2.581  0.0612 -0.1345  0.0748
   78MOL   C23225026   2.837   6.023   2.553  0.3459  0.4898 -0.4198
   78MOL   H23325027   2.644   5.686   2.257  0.3313 -2.5986 -1.5099
   78MOL   H23425028   2.698   5.674   2.422 -1.0100  1.9204 -1.2505
   78MOL   H23525029   2.932   5.681   2.357  1.8510  0.4407 -1.6745
   78MOL   H23625030   2.932   5.824   2.685 -1.8548 -1.4252  0.4489
   78MOL   H23725031   2.891   5.692   2.583  0.2963 -0.2925 -1.6637
   78MOL   H23825032   3.042   5.779   2.569  0.4085  0.5671  2.1977
   78MOL   H23925033   2.808   6.106   2.489  0.9546 -0.2980 -1.7387
   78MOL   H24025034   2.931   6.063   2.589  0.6075 -0.8138  0.3758
   78MOL   H24125035   2.762   6.007   2.630  0.2228 -1.7359 -0.9510
   78MOL   C24225036   2.884   5.741   2.151 -0.5238 -0.0110  0.9471
   78MOL   C24325037   3.025   5.798   2.117  0.6272  0.4811  0.7812
   78MOL   C24425038   3.039   5.809   1.966  0.6970 -0.4134  0.4017
   78MOL   O24525039   3.037   5.703   1.907 -0.4232 -0.3875 -0.4243
   78MOL   N24625040   3.057   5.926   1.899 -0.5415  0.1725 -0.0313
   78MOL   C24725041   3.076   5.938   1.756 -0.2843  0.5844  0.6497
   78MOL   C24825042   3.062   6.060   1.962  0.0752  0.0643  0.3648
   78MOL   H24925043   2.877   5.647   2.096  0.5731 -0.0359  0.8433
   78MOL   H25025044   2.813   5.815   2.112 -0.5669 -0.6945 -0.2987
   78MOL   H25125045   3.040   5.888   2.177  1.6780  0.5963  0.3569
   78MOL   H25225046   3.018   6.018   1.708  0.2754  0.5769 -0.0448
   78MOL   H25325047   3.181   5.966   1.747 -0.6373  1.5216 -0.9232
   78MOL   H25425048   3.059   5.842   1.708 -1.2794  1.3725 -0.6245
   78MOL   H25525049   2.967   6.091   2.006  0.0748 -0.0699  0.4617
   78MOL   H25625050   3.110   6.125   1.889 -0.1169 -1.9267 -1.6056
   78MOL   H25725051   3.132   6.053   2.045 -0.1247 -0.6255  0.4819
   78MOL   C25825052   3.133   5.703   2.177  0.4375 -0.2980  0.2686
   78MOL   C25925053   3.279   5.751   2.175 -0.5037  0.6771  0.3100
   78MOL   C26025054   3.377   5.631   2.199  0.8045  0.2338  0.3977
   78MOL   O26125055   3.389   5.600   2.313 -0.5449 -0.1059  0.3112
   78MOL   N26225056   3.438   5.561   2.100 -0.6255 -0.1460  0.6660
   78MOL   C26325057   3.423   5.597   1.959  0.0006  0.5899  0.2496
   78MOL   C26425058   3.517   5.456   2.130 -0.1456 -0.0376  0.4444
   78MOL   H26525059   3.114   5.677   2.281  2.7596  0.3528  0.8735
   78MOL   H26625060   3.123   5.602   2.136  0.2117  0.2552 -1.0568
   78MOL   H26725061   3.284   5.787   2.072 -0.8080 -1.0030 -0.3058
   78MOL   H26825062   3.340   5.547   1.908  0.2465 -0.6942  1.0707
   78MOL   H26925063   3.420   5.705   1.945 -1.1940  0.4335 -0.7671
   78MOL   H27025064   3.509   5.578   1.895  0.3418  1.2729  0.5009
   78MOL   H27125065   3.572   5.415   2.045  0.4898 -0.6842  1.1631
   78MOL   H27225066   3.467   5.375   2.183  1.2002 -1.1880 -0.0130
   78MOL   H27325067   3.591   5.500   2.197 -0.1576  1.4933 -0.5153
   78MOL   C27425068   3.313   5.869   2.266  0.9074 -0.3776 -0.0946
   78MOL   C27525069   3.455   5.929   2.232 -0.2159  0.3666  0.5733
   78MOL   C27625070   3.551   5.916   2.355  0.1414  0.0396  0.3559
   78MOL   O27725071   3.499   5.956   2.457 -0.0795  0.2314  0.1026
   78MOL   N27825072   3.676   5.861   2.356  0.5372  0.3792 -0.0130
   78MOL   C27925073   3.742   5.803   2.238  0.4412 -0.9140 -0.3312
   78MOL   C28025074   3.758   5.841   2.475  0.3226  0.7511  0.1953
   78MOL   H28125075   3.234   5.941   2.246 -0.5403 -1.1136  2.7339
   78MOL   H28225076   3.300   5.847   2.372  0.1329  3.1708  0.6236
   78MOL   H28325077   3.494   5.878   2.145  3.4708 -1.2697  3.0658
   78MOL   H28425078   3.722   5.696   2.241  0.0876 -0.8143  0.8520
   78MOL   H28525079   3.703   5.844   2.144 -1.6872  2.1229  1.7830
   78MOL   H28625080   3.848   5.826   2.246 -0.3328  2.1782  2.0910
   78MOL   H28725081   3.823   5.928   2.471 -0.7930  1.5965 -0.0066
   78MOL   H28825082   3.807   5.744   2.471 -2.4924 -0.7100 -0.6690
   78MOL   H28925083   3.719   5.840   2.577 -0.5655  4.3257 -0.0267
   78MOL   C29025084   3.436   6.075   2.198  0.4870  0.9690  0.4538
   78MOL   C29125085   3.555   6.147   2.136 -0.3747  0.6423  0.9399
   78MOL   C29225086   3.530   6.293   2.156  0.1000  0.1519  0.6401
   78MOL   O29325087   3.469   6.348   2.062  0.0447 -0.1581 -0.4914
   78MOL   N29425088   3.592   6.365   2.254  0.3215  0.2312  0.1659
   78MOL   C29525089   3.672   6.302   2.363  0.7500 -0.5428 -0.4768
   78MOL   C29625090   3.587   6.507   2.257  0.7532 -0.1571  0.8038
   78MOL   H29725091   3.350   6.082   2.131  1.0657  0.8374 -0.3025
   78MOL   H29825092   3.401   6.123   2.290 -1.9013  0.2161 -0.0212
   78MOL   H29925093   3.641   6.134   2.202  1.1015  1.9601 -0.6731
   78MOL   H30025094   3.757   6.246   2.324  2.1432  0.6913  0.7664
   78MOL   H30125095   3.713   6.370   2.436 -2.6192  2.3998 -1.1767
   78MOL   H30225096   3.607   6.244   2.429 -0.6102  0.3874 -0.9944
   78MOL   H30325097   3.491   6.530   2.210 -0.2453 -1.8490  1.9441
   78MOL   H30425098   3.661   6.570   2.208 -0.4740  1.8863  1.5291
   78MOL   H30525099   3.584   6.547   2.358  1.2683  0.2106  0.6761
   78MOL   C30625100   3.601   6.105   1.997 -0.1445 -0.0402 -0.7762
   78MOL   C30725101   3.495   6.068   1.895 -0.8126  0.8048  0.3404
   78MOL   C30825102   3.558   6.040   1.760  0.3317 -1.2735 -0.6766
   78MOL   O30925103   3.631   5.943   1.741  0.1209 -0.4488 -0.3002
   78MOL   N31025104   3.538   6.126   1.655 -0.1889  0.7165 -0.0290
   78MOL   C31125105   3.630   6.109   1.537  0.6451  0.8206 -0.7640
   78MOL   C31225106   3.427   6.220   1.629  0.4447  0.4814  0.1415
   78MOL   H31325107   3.665   6.182   1.954  1.8463 -1.0709  0.3054
   78MOL   H31425108   3.665   6.017   2.000  0.1624  0.1093 -2.4001
   78MOL   H31525109   3.448   5.973   1.922 -0.2552  0.7344  1.0703
   78MOL   H31625110   3.633   6.200   1.476 -1.5683  0.3234 -1.6463
   78MOL   H31725111   3.733   6.107   1.575  0.0512  0.9289  0.9035
   78MOL   H31825112   3.610   6.022   1.476 -1.9456  0.2517  0.8170
   78MOL   H31925113   3.360   6.161   1.567 -0.2149 -1.3423  2.5503
   78MOL   H32025114   3.466   6.307   1.576 -0.9267  0.8897 -0.2180
   78MOL   H32125115   3.376   6.229   1.725  1.6829 -0.4570  0.9025
   78MOL   H32225116   3.419   6.146   1.893 -0.2461  1.3327 -1.0226
   79MOL     C125117   2.444   3.332   3.270 -0.0477 -0.3664 -0.0187
   79MOL     C225118   2.336   3.396   3.180  0.7894 -0.0899  0.7243
   79MOL     C325119   2.275   3.276   3.101  1.0498  0.1560  0.1029
   79MOL     O425120   2.330   3.232   2.999 -0.0821 -0.1271 -0.0429
   79MOL     N525121   2.157   3.220   3.140  0.5700 -0.0649  0.0579
   79MOL     C625122   2.091   3.118   3.062 -0.0294 -0.2303  0.3112
   79MOL     C725123   2.095   3.257   3.266 -0.6674  0.7490  0.2021
   79MOL     H825124   2.396   3.285   3.355  1.9137 -1.6799  0.4029
   79MOL     H925125   2.503   3.413   3.313  2.4882 -1.7076 -0.8702
   79MOL    H1025126   2.257   3.434   3.245  0.5760  0.3406  0.2211
   79MOL    H1125127   2.133   3.022   3.092  0.6009  0.0006  0.1525
   79MOL    H1225128   1.984   3.122   3.085  0.4265  1.4076  2.3006
   79MOL    H1325129   2.109   3.140   2.957  0.2186  1.6159  0.7190
   79MOL    H1425130   2.022   3.182   3.297 -1.9905  1.5849 -0.8426
   79MOL    H1525131   2.047   3.354   3.276 -0.1173  1.1127 -0.5723
   79MOL    H1625132   2.179   3.243   3.334 -1.8988 -1.2043  1.3584
   79MOL    H1725133   2.502   3.251   3.226  1.3816  0.6576 -0.0587
   79MOL    C1825134   2.393   3.507   3.082 -0.3500 -0.4321 -0.6002
   79MOL    C1925135   2.287   3.566   2.981  1.1352  1.0118 -0.0954
   79MOL    C2025136   2.349   3.660   2.881  0.5490 -0.3948  0.1953
   79MOL    O2125137   2.335   3.778   2.910  0.7424 -0.5809 -0.1792
   79MOL    N2225138   2.403   3.626   2.766  0.2659  0.3996  0.1912
   79MOL    C2325139   2.421   3.717   2.649  0.1824 -0.0125 -0.4307
   79MOL    C2425140   2.452   3.493   2.738  0.7698 -0.5190  0.1934
   79MOL    H2525141   2.430   3.596   3.133 -2.0506  0.1726 -0.3789
   79MOL    H2625142   2.482   3.474   3.029 -0.8861  2.4732 -3.4529
   79MOL    H2725143   2.249   3.489   2.915 -1.5420  0.6535  1.7883
   79MOL    H2825144   2.344   3.698   2.574  2.0174 -1.4827 -1.9710
   79MOL    H2925145   2.417   3.822   2.676  0.4896  0.3165 -1.6377
   79MOL    H3025146   2.509   3.693   2.591 -0.1866 -2.5233 -0.0324
   79MOL    H3125147   2.526   3.509   2.659 -0.6307 -1.2029 -1.2650
   79MOL    H3225148   2.371   3.447   2.683 -2.2121  1.6020  2.6303
   79MOL    H3325149   2.487   3.424   2.815  0.5876  0.6064  1.3109
   79MOL    C3425150   2.162   3.621   3.060 -0.2982 -0.3722  0.0640
   79MOL    C3525151   2.045   3.642   2.953  0.1900 -0.5238 -0.4240
   79MOL    C3625152   1.939   3.721   3.031 -0.6964  0.1853  0.3841
   79MOL    O3725153   1.890   3.674   3.132 -1.0562  0.1626 -1.1393
   79MOL    N3825154   1.888   3.836   2.983 -0.2879 -0.3112 -0.6057
   79MOL    C3925155   1.945   3.913   2.871  1.0264  0.5869  0.1463
   79MOL    C4025156   1.760   3.881   3.016  0.2353 -0.0163  0.0561
   79MOL    H4125157   2.131   3.549   3.136  0.3058  0.8205  1.4660
   79MOL    H4225158   2.192   3.715   3.105 -4.6767  1.2407 -0.1605
   79MOL    H4325159   2.091   3.693   2.868  2.2055 -0.6662  0.5286
   79MOL    H4425160   2.052   3.921   2.890  1.2569 -2.5775  0.4646
   79MOL    H4525161   1.935   3.855   2.780  2.8642  0.2895  0.1038
   79MOL    H4625162   1.906   4.011   2.842 -0.7245 -0.3278 -0.6308
   79MOL    H4725163   1.693   3.893   2.931 -2.3647 -1.3202  1.8408
   79MOL    H4825164   1.776   3.980   3.059 -0.2614 -0.9855  2.5284
   79MOL    H4925165   1.701   3.824   3.088  2.7851  1.8555  3.7851
   79MOL    C5025166   1.979   3.503   2.909 -0.1993 -0.7034  0.2481
   79MOL    C5125167   1.904   3.479   2.773 -1.0359 -0.7703  0.0686
   79MOL    C5225168   1.997   3.515   2.652  0.2689  0.6291  0.0290
   79MOL    O5325169   1.997   3.632   2.617  0.1702  0.1029  0.1431
   79MOL    N5425170   2.074   3.421   2.583  0.2833 -0.2229 -0.0150
   79MOL    C5525171   2.107   3.287   2.640 -0.6026  0.0077  0.1502
   79MOL    C5625172   2.144   3.458   2.465 -0.9644 -0.0462 -0.2823
   79MOL    H5725173   2.058   3.428   2.920  0.7876  0.1597 -0.9337
   79MOL    H5825174   1.910   3.466   2.986 -2.7557  1.8578 -0.7300
   79MOL    H5925175   1.875   3.374   2.767  0.5921 -1.1826 -0.9114
   79MOL    H6025176   2.012   3.236   2.656 -0.9022  0.0120 -1.4962
   79MOL    H6125177   2.168   3.227   2.572 -1.4430 -2.6788  1.6874
   79MOL    H6225178   2.148   3.305   2.739 -0.0125  3.3208 -0.6557
   79MOL    H6325179   2.144   3.560   2.427 -0.4647  0.3451  0.7591
   79MOL    H6425180   2.094   3.405   2.384 -0.8151 -2.5339  1.1970
   79MOL    H6525181   2.244   3.414   2.470 -0.6327  0.6005 -1.1558
   79MOL    C6625182   1.773   3.556   2.763 -0.3785  0.1329 -0.0011
   79MOL    C6725183   1.652   3.502   2.848 -0.4120  0.3239  0.3825
   79MOL    C6825184   1.617   3.367   2.796 -0.3830 -0.0468 -0.3299
   79MOL    O6925185   1.582   3.350   2.681  0.3090 -0.0997 -0.2392
   79MOL    N7025186   1.634   3.257   2.873  0.3175  0.4108 -0.7684
   79MOL    C7125187   1.607   3.124   2.809  0.1092  0.1451  0.0470
   79MOL    C7225188   1.642   3.257   3.024 -0.4719 -0.7334 -0.5876
   79MOL    H7325189   1.793   3.661   2.788  1.3202  0.0565 -0.9858
   79MOL    H7425190   1.733   3.553   2.662 -0.6224 -2.2173  0.1532
   79MOL    H7525191   1.685   3.506   2.951 -2.7702 -2.1795  1.2853
   79MOL    H7625192   1.678   3.112   2.727  2.0389  0.4963  1.6155
   79MOL    H7725193   1.621   3.039   2.876  1.3172 -1.7928 -2.5948
   79MOL    H7825194   1.504   3.107   2.777 -0.1698 -0.7295  1.3581
   79MOL    H7925195   1.625   3.165   3.081  1.5395 -1.6579 -1.4216
   79MOL    H8025196   1.579   3.340   3.056  1.9823  0.7849  0.4837
   79MOL    H8125197   1.745   3.280   3.050 -1.1553  2.3876 -0.4983
   79MOL    C8225198   1.536   3.606   2.821 -0.4528 -0.3721 -0.0760
   79MOL    C8325199   1.422   3.585   2.916  0.5146  0.5404  0.3955
   79MOL    C8425200   1.291   3.636   2.845 -0.4097 -0.0544 -0.9917
   79MOL    O8525201   1.269   3.759   2.841 -1.1094 -0.2225 -0.2299
   79MOL    N8625202   1.202   3.551   2.791  0.0327 -0.2304  0.1024
   79MOL    C8725203   1.223   3.411   2.761 -0.1724 -0.4766  0.1735
   79MOL    C8825204   1.062   3.576   2.783  0.6761  0.4846 -0.4314
   79MOL    H8925205   1.580   3.704   2.841  0.4142 -1.0321  1.3380
   79MOL    H9025206   1.503   3.600   2.718  1.5153  0.1830 -0.7560
   79MOL    H9125207   1.420   3.477   2.930  0.5030  0.5472  0.4444
   79MOL    H9225208   1.324   3.395   2.723 -1.2303 -0.7761 -2.6487
   79MOL    H9325209   1.204   3.354   2.852 -0.4023 -2.3987 -1.0629
   79MOL    H9425210   1.164   3.368   2.680 -0.7674 -2.6508  1.7246
   79MOL    H9525211   1.039   3.637   2.696 -1.3219  0.6379  0.1677
   79MOL    H9625212   1.026   3.631   2.870 -1.1388 -0.8356 -0.3091
   79MOL    H9725213   1.005   3.483   2.773 -1.5860  1.3929  3.3283
   79MOL    C9825214   1.441   3.649   3.060  0.2359  0.4553 -0.1693
   79MOL    C9925215   1.387   3.561   3.180  0.2384 -0.3963  0.0981
   79MOL   C10025216   1.236   3.522   3.161  0.1692  0.5358  0.4460
   79MOL   O10125217   1.216   3.408   3.124 -0.2975 -0.2637 -0.1252
   79MOL   N10225218   1.131   3.605   3.179 -0.4224  0.4059 -0.3043
   79MOL   C10325219   1.143   3.743   3.211 -0.1580  0.6740 -0.1205
   79MOL   C10425220   0.987   3.565   3.171  0.2394 -0.8483 -0.0397
   79MOL   H10525221   1.549   3.647   3.074  0.4364 -2.2627 -1.5937
   79MOL   H10625222   1.425   3.756   3.065 -1.6386  0.0914  2.4062
   79MOL   H10725223   1.448   3.471   3.172  0.3248 -0.1312 -2.6344
   79MOL   H10825224   1.155   3.743   3.320 -0.9369 -0.1318 -0.0325
   79MOL   H10925225   1.228   3.792   3.164 -0.5064  2.0924  0.7097
   79MOL   H11025226   1.053   3.800   3.191 -0.3503 -0.1497 -1.6252
   79MOL   H11125227   0.955   3.596   3.072  2.1487 -0.3587 -0.5190
   79MOL   H11225228   0.919   3.617   3.239  0.4961 -0.2713 -0.2258
   79MOL   H11325229   0.971   3.457   3.177 -0.1021 -0.6861  2.4403
   79MOL   C11425230   1.408   3.612   3.327  0.2907  0.2425 -0.3692
   79MOL   C11525231   1.549   3.598   3.392  0.4195 -0.2177  0.3678
   79MOL   C11625232   1.585   3.450   3.425  0.0774  0.0295  0.2588
   79MOL   O11725233   1.504   3.392   3.499 -0.2569  0.7905 -0.0465
   79MOL   N11825234   1.693   3.388   3.365 -0.0290 -0.1710 -0.1787
   79MOL   C11925235   1.706   3.242   3.382  0.0890 -0.4221  0.0104
   79MOL   C12025236   1.816   3.446   3.328  0.8114  0.4596  0.0471
   79MOL   H12125237   1.402   3.721   3.318 -1.8428  0.3158  1.5143
   79MOL   H12225238   1.331   3.575   3.395 -0.4698 -0.4718 -1.6037
   79MOL   H12325239   1.614   3.616   3.306 -0.1705  1.1376  0.1865
   79MOL   H12425240   1.801   3.201   3.349 -1.3074 -2.5389 -1.4896
   79MOL   H12525241   1.688   3.221   3.488  0.1766 -2.4117 -0.3523
   79MOL   H12625242   1.635   3.188   3.320 -1.4696  0.1580  1.2566
   79MOL   H12725243   1.822   3.554   3.334  0.7752  0.5305 -1.1227
   79MOL   H12825244   1.839   3.428   3.223  0.3938  2.1655 -0.3547
   79MOL   H12925245   1.892   3.412   3.398 -0.6853  0.6806  1.8288
   79MOL   C13025246   1.581   3.691   3.507 -0.2039  0.4567  0.2881
   79MOL   C13125247   1.731   3.714   3.539  0.1353 -0.2065 -0.1497
   79MOL   C13225248   1.735   3.770   3.679  0.0524  0.1464 -0.4050
   79MOL   O13325249   1.697   3.882   3.701 -0.0286  0.1814 -0.3350
   79MOL   N13425250   1.787   3.691   3.772 -0.0891 -0.0596  0.7415
   79MOL   C13525251   1.838   3.748   3.894  0.1019 -0.0336  0.2569
   79MOL   C13625252   1.785   3.543   3.765  1.0157 -0.1641 -0.2870
   79MOL   H13725253   1.533   3.788   3.496 -3.0993 -0.9209  0.2437
   79MOL   H13825254   1.528   3.658   3.597  0.2451 -0.2412  0.3027
   79MOL   H13925255   1.793   3.624   3.547  2.3460  1.2134 -1.0544
   79MOL   H14025256   1.913   3.687   3.944 -0.6347 -1.7363 -0.6670
   79MOL   H14125257   1.878   3.849   3.887 -0.7128  0.3370  0.8707
   79MOL   H14225258   1.750   3.748   3.958 -0.6698 -0.5705 -0.7788
   79MOL   H14325259   1.782   3.501   3.865 -1.2177 -1.7887 -1.0063
   79MOL   H14425260   1.874   3.505   3.714 -0.8428 -2.5348 -1.8532
   79MOL   H14525261   1.705   3.493   3.711  0.4351  1.4303 -0.9478
   79MOL   C14625262   1.786   3.813   3.438  0.3522 -0.4242 -0.4845
   79MOL   C14725263   1.928   3.854   3.461 -0.0846  0.6868 -0.4881
   79MOL   C14825264   1.962   3.980   3.375  0.1687 -0.4980  0.1697
   79MOL   O14925265   1.987   3.954   3.258  0.6577 -0.0839 -0.2052
   79MOL   N15025266   1.972   4.101   3.427 -0.1733  0.3096 -0.2072
   79MOL   C15125267   2.034   4.206   3.353 -0.0334  0.1268 -0.6194
   79MOL   C15225268   1.937   4.132   3.565 -0.3693  0.5336  0.0340
   79MOL   H15325269   1.783   3.794   3.330  2.0304  0.3862 -0.6988
   79MOL   H15425270   1.720   3.899   3.445 -1.3872 -1.6852 -0.7884
   79MOL   H15525271   1.942   3.898   3.559  2.2568  0.8286 -0.8765
   79MOL   H15625272   2.004   4.191   3.249 -3.0395  1.2797  0.0115
   79MOL   H15725273   1.998   4.302   3.389 -0.1617  0.1676 -0.8546
   79MOL   H15825274   2.142   4.209   3.342 -0.2982  1.6833 -3.2238
   79MOL   H15925275   2.026   4.125   3.628 -0.2969  0.7990 -0.0356
   79MOL   H16025276   1.852   4.075   3.601 -0.4401  0.9513  0.5445
   79MOL   H16125277   1.900   4.233   3.582  0.0140  0.9547 -1.5209
   79MOL   C16225278   2.039   3.743   3.456 -0.3317 -0.9489  0.1008
   79MOL   C16325279   2.169   3.782   3.536 -0.7906  0.2645 -0.2232
   79MOL   C16425280   2.295   3.748   3.451 -0.0260 -0.0696 -0.4173
   79MOL   O16525281   2.308   3.634   3.408 -0.0478  0.1999  0.0621
   79MOL   N16625282   2.396   3.831   3.417  0.2884 -0.3737  0.5599
   79MOL   C16725283   2.524   3.786   3.350  0.2068  0.2043  0.1892
   79MOL   C16825284   2.387   3.975   3.427  0.0840  0.1641 -0.4169
   79MOL   H16925285   1.996   3.646   3.479 -1.6037 -0.3012  0.4713
   79MOL   H17025286   2.053   3.715   3.351 -0.1536 -1.7551  0.3335
   79MOL   H17125287   2.173   3.889   3.559  1.1486 -0.0643  1.0835
   79MOL   H17225288   2.607   3.835   3.400  1.2964  0.0020 -1.3845
   79MOL   H17325289   2.541   3.679   3.361 -0.1896 -0.3310 -3.7036
   79MOL   H17425290   2.534   3.819   3.247  2.1324 -0.2061  0.2356
   79MOL   H17525291   2.390   3.988   3.536 -3.3857 -0.5799 -0.1635
   79MOL   H17625292   2.292   4.017   3.393  0.3240  1.2193  0.2068
   79MOL   H17725293   2.465   4.022   3.368 -0.1858 -0.1753 -1.0472
   79MOL   C17825294   2.159   3.720   3.675  0.2808  0.0745 -0.4548
   79MOL   C17925295   2.272   3.749   3.776  0.3086 -0.1021 -0.5336
   79MOL   C18025296   2.272   3.633   3.878 -0.5331  0.6808 -0.1819
   79MOL   O18125297   2.196   3.637   3.974  0.2944 -0.1383  0.0594
   79MOL   N18225298   2.364   3.540   3.864  0.0446 -0.1213  0.0635
   79MOL   C18325299   2.405   3.458   3.982 -0.7324  0.0522  0.3315
   79MOL   C18425300   2.438   3.503   3.740 -0.3762  0.6147  0.3833
   79MOL   H18525301   2.061   3.729   3.723 -1.7281  0.4027 -4.4431
   79MOL   H18625302   2.160   3.613   3.657 -0.4438 -0.1259  0.6305
   79MOL   H18725303   2.369   3.752   3.727  0.5549 -0.7495 -0.0972
   79MOL   H18825304   2.470   3.504   4.056  0.9044 -3.8942  1.4916
   79MOL   H18925305   2.330   3.418   4.050  0.4496  1.1385  2.3199
   79MOL   H19025306   2.466   3.376   3.944  0.4026  1.4348 -0.9257
   79MOL   H19125307   2.541   3.479   3.767 -1.0852 -0.9625  1.7695
   79MOL   H19225308   2.443   3.578   3.661 -1.1737  1.3752  1.0491
   79MOL   H19325309   2.387   3.415   3.702 -0.3916 -0.1817  2.2202
   79MOL   C19425310   2.260   3.887   3.847 -0.1919 -0.1588 -0.1702
   79MOL   C19525311   2.371   3.936   3.940 -0.0442 -0.1250 -0.0327
   79MOL   C19625312   2.512   3.927   3.876 -0.9127 -0.1515 -0.2465
   79MOL   O19725313   2.566   3.821   3.848 -0.4650  0.6488  0.2566
   79MOL   N19825314   2.586   4.045   3.865 -0.5019 -0.3417  0.8358
   79MOL   C19925315   2.554   4.179   3.906 -0.0941 -0.7955  0.4573
   79MOL   C20025316   2.727   4.036   3.829  0.0403  0.1969  0.1430
   79MOL   H20125317   2.248   3.954   3.762 -1.9035  0.7043  0.7398
   79MOL   H20225318   2.158   3.897   3.884 -0.0056  1.3334 -0.0089
   79MOL   H20325319   2.346   4.042   3.947 -1.2148 -0.4670  1.2064
   79MOL   H20425320   2.468   4.219   3.853 -1.6612  0.1126  3.5385
   79MOL   H20525321   2.547   4.181   4.015  1.3412  0.5347  0.5541
   79MOL   H20625322   2.631   4.242   3.862 -1.7749  1.3845  0.5264
   79MOL   H20725323   2.778   4.065   3.921  2.4938 -0.3216 -1.0104
   79MOL   H20825324   2.753   4.101   3.745  0.7430 -2.6655 -1.9472
   79MOL   H20925325   2.760   3.937   3.797  1.5018  0.9244 -0.6843
   79MOL   C21025326   2.365   3.889   4.088 -0.4757 -0.4826  0.2671
   79MOL   C21125327   2.229   3.919   4.155 -0.7393 -0.4490 -0.5235
   79MOL   C21225328   2.205   4.066   4.193  0.0586  0.0312  0.7318
   79MOL   O21325329   2.296   4.114   4.253  0.3577 -0.2301  0.1688
   79MOL   N21425330   2.092   4.133   4.146  0.7359  0.1117 -0.3130
   79MOL   C21525331   1.981   4.068   4.080 -0.0571 -0.0502 -0.0631
   79MOL   C21625332   2.074   4.280   4.157 -0.4134  0.4539 -0.2002
   79MOL   H21725333   2.378   3.781   4.080  0.1164 -0.2760 -1.9049
   79MOL   H21825334   2.444   3.926   4.153 -0.8330 -1.8092  1.4795
   79MOL   H21925335   2.155   3.880   4.085 -2.0924 -0.1524  0.7119
   79MOL   H22025336   2.008   4.044   3.978  2.0760  0.5239  0.3304
   79MOL   H22125337   1.946   3.977   4.128 -2.7786 -0.0242 -1.8527
   79MOL   H22225338   1.888   4.125   4.081  0.6052  1.1825 -3.4042
   79MOL   H22325339   2.012   4.294   4.246 -1.0770 -1.5746 -0.3141
   79MOL   H22425340   2.012   4.316   4.075 -1.9676  0.5555  0.9807
   79MOL   H22525341   2.164   4.340   4.172 -0.2545  0.1322  0.1474
   79MOL   C22625342   2.224   3.832   4.282  0.0764  0.0518 -0.5335
   79MOL   C22725343   2.083   3.818   4.335  0.0282  0.2095  0.0632
   79MOL   C22825344   2.089   3.788   4.487 -0.2386  0.3519  0.0459
   79MOL   O22925345   2.148   3.686   4.525 -0.5514  0.4939 -0.0786
   79MOL   N23025346   2.036   3.872   4.577  0.8147 -0.0551 -0.2993
   79MOL   C23125347   1.978   4.007   4.551  0.2976  0.2654 -0.1948
   79MOL   C23225348   2.034   3.836   4.718 -0.3898  0.9786  0.3348
   79MOL   H23325349   2.258   3.731   4.260 -0.0241  0.4788 -2.7435
   79MOL   H23425350   2.292   3.875   4.356  0.5441 -0.9944 -0.3598
   79MOL   H23525351   2.025   3.910   4.335 -0.2242  0.0522 -0.5832
   79MOL   H23625352   1.970   4.069   4.641  2.1212  3.5368 -2.1694
   79MOL   H23725353   2.039   4.062   4.479  3.3484 -0.3196  1.8122
   79MOL   H23825354   1.881   3.991   4.505 -0.6342 -1.3436  2.2108
   79MOL   H23925355   1.981   3.901   4.787 -2.8253  0.6916 -1.2022
   79MOL   H24025356   2.139   3.844   4.748 -1.1092  0.8073  3.0642
   79MOL   H24125357   2.001   3.733   4.728 -1.7131  1.0974 -2.3769
   79MOL   C24225358   2.003   3.710   4.262  0.3452 -0.1566  0.2505
   79MOL   C24325359   1.855   3.677   4.311  0.0018  0.5859  0.0223
   79MOL   C24425360   1.809   3.537   4.264 -0.2755  0.4227 -0.0441
   79MOL   O24525361   1.795   3.522   4.144 -0.2176 -0.4324 -0.5663
   79MOL   N24625362   1.804   3.438   4.359  0.5080 -0.2073 -0.1351
   79MOL   C24725363   1.760   3.305   4.314 -0.1911 -0.0470  0.0048
   79MOL   C24825364   1.843   3.451   4.501 -0.1466  0.4440  0.6933
   79MOL   H24925365   1.999   3.731   4.155  1.6355 -0.6553  0.1034
   79MOL   H25025366   2.063   3.620   4.253 -2.6594 -2.1363 -0.8100
   79MOL   H25125367   1.865   3.674   4.419  2.4612 -0.5867 -0.1976
   79MOL   H25225368   1.795   3.262   4.221  0.6184 -0.6538  0.5782
   79MOL   H25325369   1.781   3.222   4.382  0.5754 -2.1099 -2.6570
   79MOL   H25425370   1.652   3.291   4.311 -0.0244 -1.0774 -1.2288
   79MOL   H25525371   1.858   3.351   4.542  1.2076  0.7909  1.0590
   79MOL   H25625372   1.762   3.493   4.562  0.0846  0.6767  0.8388
   79MOL   H25725373   1.941   3.496   4.515  0.4975 -1.2765  1.8496
   79MOL   C25825374   1.747   3.785   4.269  0.1714  0.4381  0.1452
   79MOL   C25925375   1.601   3.749   4.287  0.1837 -0.2750  0.2110
   79MOL   C26025376   1.521   3.849   4.212  0.3680 -0.8406 -0.1002
   79MOL   O26125377   1.516   3.960   4.268 -0.9661 -0.0137 -0.1005
   79MOL   N26225378   1.462   3.818   4.089  0.2418  0.3653  0.0415
   79MOL   C26325379   1.486   3.694   4.005  0.0421  0.7776 -0.3354
   79MOL   C26425380   1.367   3.914   4.037 -0.3860 -0.2518  0.3071
   79MOL   H26525381   1.775   3.883   4.310  0.6063  0.3491  0.0614
   79MOL   H26625382   1.765   3.791   4.161 -1.4089 -0.3937 -0.1805
   79MOL   H26725383   1.581   3.649   4.248 -1.7871  0.5615 -0.9488
   79MOL   H26825384   1.485   3.725   3.901 -0.3494  0.5790 -0.3879
   79MOL   H26925385   1.583   3.649   4.025  0.4610  1.3568 -1.0139
   79MOL   H27025386   1.401   3.626   4.008 -0.1773  1.1037  1.9064
   79MOL   H27125387   1.293   3.940   4.112  0.2640 -1.7533  1.5064
   79MOL   H27225388   1.319   3.860   3.955 -0.2577 -0.3254  0.2787
   79MOL   H27325389   1.416   4.007   4.010 -1.9322  0.0032 -1.7793
   79MOL   C27425390   1.561   3.750   4.442 -0.2486 -0.0849 -0.0424
   79MOL   C27525391   1.420   3.696   4.489  0.7600  0.5023 -0.0095
   79MOL   C27625392   1.324   3.820   4.507  0.2199 -0.6162  0.2355
   79MOL   O27725393   1.353   3.894   4.603  1.2676  0.3762  0.0319
   79MOL   N27825394   1.218   3.844   4.433 -0.4187  0.2233  0.3603
   79MOL   C27925395   1.157   3.747   4.340  0.4969  0.2169 -0.1800
   79MOL   C28025396   1.154   3.972   4.436 -0.0327 -0.5327  0.0594
   79MOL   H28125397   1.625   3.692   4.509 -1.4933 -0.8816  0.4795
   79MOL   H28225398   1.586   3.847   4.484 -0.1609 -0.3534  0.5289
   79MOL   H28325399   1.376   3.640   4.406  4.5959 -0.8172 -1.2448
   79MOL   H28425400   1.230   3.710   4.268 -0.9460  0.4338 -1.7978
   79MOL   H28525401   1.113   3.666   4.398 -1.1044  2.1886  1.4414
   79MOL   H28625402   1.083   3.799   4.278 -0.0730 -1.8880 -1.3129
   79MOL   H28725403   1.059   3.961   4.487 -0.2307  0.2526 -0.1314
   79MOL   H28825404   1.115   4.002   4.338 -2.5760  0.5476  1.3692
   79MOL   H28925405   1.202   4.059   4.480 -0.9276 -0.2438  0.4583
   79MOL   C29025406   1.415   3.598   4.610  0.2377 -0.1203  0.2054
   79MOL   C29125407   1.316   3.480   4.586  0.7180 -0.4657  0.5391
   79MOL   C29225408   1.278   3.409   4.721  0.4036 -0.0009 -0.3694
   79MOL   O29325409   1.367   3.347   4.773  0.0502 -0.0058  0.1834
   79MOL   N29425410   1.149   3.391   4.758  0.2483 -0.5659 -0.3432
   79MOL   C29525411   1.032   3.453   4.696 -0.0845  0.2101 -0.2775
   79MOL   C29625412   1.124   3.310   4.884 -0.3549 -0.0484 -0.6084
   79MOL   H29725413   1.511   3.552   4.632 -0.8803 -3.4926 -1.6991
   79MOL   H29825414   1.396   3.652   4.703  1.5473  1.6150 -0.5107
   79MOL   H29925415   1.230   3.519   4.532  1.2977  1.6397  1.1011
   79MOL   H30025416   1.043   3.558   4.668  1.0742  0.6470  1.6693
   79MOL   H30125417   0.996   3.397   4.610  2.6015 -0.9698 -0.6813
   79MOL   H30225418   0.947   3.457   4.764  0.4251  0.6498  0.3403
   79MOL   H30325419   1.033   3.252   4.868  0.0362 -0.0983 -2.8588
   79MOL   H30425420   1.112   3.365   4.978  0.5532 -0.8940  0.0078
   79MOL   H30525421   1.199   3.238   4.916  0.3674  1.7365  1.8330
   79MOL   C30625422   1.387   3.377   4.495  0.5588  0.8711  0.6759
   79MOL   C30725423   1.291   3.294   4.406  0.7604  0.2141 -0.4282
   79MOL   C30825424   1.233   3.362   4.290  0.5476 -0.0546  0.2310
   79MOL   O30925425   1.294   3.461   4.246 -0.2805  0.0344  0.2768
   79MOL   N31025426   1.114   3.321   4.233 -0.5550 -0.2864 -0.4780
   79MOL   C31125427   1.062   3.183   4.249  0.0394 -0.2248 -0.4323
   79MOL   C31225428   1.040   3.402   4.141 -0.6297 -0.0755  0.0957
   79MOL   H31325429   1.459   3.430   4.433  2.4380 -0.9224  1.2830
   79MOL   H31425430   1.460   3.314   4.546 -0.3240 -1.4581 -0.8431
   79MOL   H31525431   1.354   3.212   4.370  0.6009 -0.2538  0.3416
   79MOL   H31625432   0.983   3.164   4.176 -1.2379 -0.9567  1.1062
   79MOL   H31725433   1.138   3.115   4.209 -0.4425 -0.5419 -0.8164
   79MOL   H31825434   1.020   3.167   4.348 -0.3579 -0.0882 -0.5783
   79MOL   H31925435   0.999   3.352   4.053  0.3693 -0.2538 -0.2751
   79MOL   H32025436   1.105   3.477   4.097  1.5957 -0.4741  2.5732
   79MOL   H32125437   0.971   3.448   4.212  0.4569 -0.0245  1.1270
   79MOL   H32225438   1.211   3.236   4.452  0.1088  0.3116 -1.4308
   80MOL     C125439   1.954   1.723   3.012  0.1328 -0.3581 -0.2513
   80MOL     C225440   1.992   1.738   3.160 -0.4852 -0.4790  0.2111
   80MOL     C325441   2.147   1.717   3.177 -0.4522 -0.6039 -0.0456
   80MOL     O425442   2.210   1.646   3.101  1.2435  0.4234  0.0961
   80MOL     N525443   2.216   1.789   3.272 -0.2716 -0.3260 -0.3105
   80MOL     C625444   2.151   1.874   3.379  0.7877  0.2331 -0.4578
   80MOL     C725445   2.362   1.805   3.285 -0.3062  0.3184  0.5008
   80MOL     H825446   1.847   1.738   2.995  0.3789 -1.3697 -3.1095
   80MOL     H925447   1.986   1.630   2.964  1.8084  0.1098 -0.0728
   80MOL    H1025448   1.972   1.843   3.184 -3.8986 -1.3881  1.5554
   80MOL    H1125449   2.214   1.944   3.434 -0.4689  1.2482 -0.2994
   80MOL    H1225450   2.069   1.938   3.347  1.0629  0.0313 -1.5662
   80MOL    H1325451   2.106   1.808   3.454  0.5174 -0.1432 -0.9517
   80MOL    H1425452   2.385   1.789   3.391 -0.5908 -0.1548  0.4941
   80MOL    H1525453   2.410   1.896   3.249 -0.0931  0.9250  2.2587
   80MOL    H1625454   2.405   1.716   3.238  1.0745  0.9213  0.5993
   80MOL    H1725455   2.012   1.790   2.948  2.6364 -1.7758  0.4712
   80MOL    C1825456   1.925   1.641   3.248 -0.0292  0.4148  0.0078
   80MOL    C1925457   1.767   1.642   3.273 -0.1853 -0.9427  0.2819
   80MOL    C2025458   1.743   1.778   3.358  0.6248  0.4046  0.6792
   80MOL    O2125459   1.799   1.786   3.470  0.1279 -0.1024  0.7045
   80MOL    N2225460   1.655   1.871   3.316  0.1618 -0.8189 -0.5072
   80MOL    C2325461   1.606   1.977   3.406  0.0426  0.3007 -0.4026
   80MOL    C2425462   1.595   1.871   3.180 -0.0926 -0.2222  0.4986
   80MOL    H2525463   1.951   1.541   3.214  0.8368  0.5982  0.1043
   80MOL    H2625464   1.966   1.645   3.349 -0.3767  1.3445  0.1193
   80MOL    H2725465   1.717   1.651   3.176 -0.2840 -1.2705  0.3026
   80MOL    H2825466   1.653   2.071   3.380  0.1098 -0.0314 -1.4934
   80MOL    H2925467   1.500   1.986   3.384 -0.3289 -0.6114  0.8833
   80MOL    H3025468   1.620   1.946   3.510 -1.5542 -0.5277 -0.4229
   80MOL    H3125469   1.680   1.892   3.116 -1.1907  0.8228 -0.6488
   80MOL    H3225470   1.523   1.949   3.156 -1.3437 -1.2017  1.0125
   80MOL    H3325471   1.538   1.786   3.143 -0.6681 -0.2350  1.3877
   80MOL    C3425472   1.729   1.508   3.347 -0.1337  0.5603  0.1426
   80MOL    C3525473   1.583   1.506   3.388 -0.1108  0.2108 -0.5067
   80MOL    C3625474   1.552   1.418   3.515  0.3346 -0.1232 -0.2793
   80MOL    O3725475   1.492   1.311   3.500  0.5052 -0.4548  0.0306
   80MOL    N3825476   1.582   1.462   3.639 -0.7180 -0.2746 -0.7739
   80MOL    C3925477   1.633   1.595   3.666 -0.2182 -0.7760  0.5160
   80MOL    C4025478   1.525   1.391   3.752  0.0023  0.2000 -0.7283
   80MOL    H4125479   1.760   1.427   3.282  2.2441  2.2637 -0.9037
   80MOL    H4225480   1.796   1.486   3.431 -0.8267 -1.1139  0.2817
   80MOL    H4325481   1.561   1.608   3.422  1.0572 -0.6442  3.0077
   80MOL    H4425482   1.709   1.618   3.592 -0.8238 -0.1961  0.0740
   80MOL    H4525483   1.554   1.669   3.656 -0.9547 -1.6817 -0.4542
   80MOL    H4625484   1.682   1.602   3.764  0.0008  3.3331  0.1627
   80MOL    H4725485   1.554   1.286   3.746 -2.0026 -0.3309 -1.6686
   80MOL    H4825486   1.417   1.408   3.750  0.0695  0.5761 -1.3149
   80MOL    H4925487   1.557   1.434   3.846 -2.7853 -0.6494  0.6625
   80MOL    C5025488   1.487   1.474   3.269  0.0261 -0.7787  0.5090
   80MOL    C5125489   1.337   1.504   3.292  0.0486  0.6162  0.2848
   80MOL    C5225490   1.252   1.451   3.177 -0.2368 -0.4538  0.1294
   80MOL    O5325491   1.252   1.526   3.079  0.2525  0.2748  0.0285
   80MOL    N5425492   1.178   1.340   3.180  0.4456  0.1977  0.0934
   80MOL    C5525493   1.180   1.234   3.282 -0.1011 -0.0340 -0.2971
   80MOL    C5625494   1.106   1.290   3.064  0.1993 -0.2527 -0.2786
   80MOL    H5725495   1.514   1.533   3.182  0.5784 -0.4090  0.9262
   80MOL    H5825496   1.506   1.369   3.244  3.2893  0.3515 -2.0887
   80MOL    H5925497   1.317   1.440   3.378 -0.2417  0.7898  0.3488
   80MOL    H6025498   1.086   1.181   3.281 -0.5500  0.7738 -0.9302
   80MOL    H6125499   1.266   1.170   3.263 -0.2197 -0.9305  2.0140
   80MOL    H6225500   1.203   1.273   3.382 -1.9845  0.8799 -0.1955
   80MOL    H6325501   1.160   1.208   3.019  0.5830 -1.0115  1.5068
   80MOL    H6425502   1.071   1.359   2.987 -1.4308  0.3151  0.9333
   80MOL    H6525503   1.009   1.258   3.102  1.2063 -0.9742  1.7867
   80MOL    C6625504   1.310   1.651   3.332  0.1252 -1.3132  0.1821
   80MOL    C6725505   1.169   1.709   3.321 -0.5119 -0.5576  0.1146
   80MOL    C6825506   1.165   1.814   3.204  0.1447 -0.5302  0.6003
   80MOL    O6925507   1.255   1.895   3.201  0.1579 -0.7283  0.1721
   80MOL    N7025508   1.070   1.812   3.103  0.0966  0.2744 -0.1835
   80MOL    C7125509   0.948   1.734   3.119  0.4837  0.1995  0.4361
   80MOL    C7225510   1.072   1.913   3.001  0.9178 -0.2340 -0.0891
   80MOL    H7325511   1.331   1.646   3.439  0.4216 -0.7620  0.1501
   80MOL    H7425512   1.388   1.713   3.288 -0.4612 -1.3103 -0.8597
   80MOL    H7525513   1.093   1.634   3.295 -0.9559 -0.1174  0.1383
   80MOL    H7625514   0.894   1.731   3.214 -0.1554  2.1321  0.1559
   80MOL    H7725515   0.881   1.750   3.035 -0.2109  1.3771  1.1890
   80MOL    H7825516   0.982   1.635   3.089 -0.6260  0.9760 -3.7553
   80MOL    H7925517   0.978   1.968   3.008  0.8435 -0.4564  0.6924
   80MOL    H8025518   1.066   1.876   2.899 -0.2811  2.2655 -0.9835
   80MOL    H8125519   1.151   1.989   3.002  0.2375  0.4679  1.6113
   80MOL    C8225520   1.112   1.771   3.457  0.6957 -0.0351 -0.5964
   80MOL    C8325521   1.071   1.668   3.571 -0.2408 -0.2214 -0.5443
   80MOL    C8425522   0.977   1.552   3.523  0.3339 -0.0265 -0.6914
   80MOL    O8525523   0.888   1.580   3.449 -0.0159 -0.0796 -0.3497
   80MOL    N8625524   0.988   1.427   3.578  0.3023 -0.2914  0.8408
   80MOL    C8725525   0.898   1.319   3.547  0.4163  0.6505 -0.5843
   80MOL    C8825526   1.104   1.384   3.667  0.0348  0.6235  0.4003
   80MOL    H8925527   1.191   1.835   3.495  1.0063 -0.5825 -0.3055
   80MOL    H9025528   1.023   1.830   3.434  0.7438 -0.3027 -1.4755
   80MOL    H9125529   1.161   1.618   3.608 -1.6950 -1.8514  0.8618
   80MOL    H9225530   0.828   1.345   3.468 -0.8797 -2.4692 -0.5498
   80MOL    H9325531   0.961   1.236   3.514  0.1993  0.5031 -0.6295
   80MOL    H9425532   0.846   1.274   3.632 -1.0933  0.4257 -1.6156
   80MOL    H9525533   1.111   1.276   3.679  1.6577  0.7530  0.8185
   80MOL    H9625534   1.100   1.433   3.764 -2.1605 -1.0341  1.1737
   80MOL    H9725535   1.195   1.398   3.608 -1.7668  1.2247 -2.3248
   80MOL    C9825536   0.998   1.736   3.688 -1.1226  0.4515  0.3509
   80MOL    C9925537   1.076   1.850   3.757  0.1834 -0.9307 -0.3670
   80MOL   C10025538   1.181   1.784   3.848 -0.6121 -0.1078  0.2264
   80MOL   O10125539   1.131   1.732   3.950  0.0962  0.2477  0.2095
   80MOL   N10225540   1.313   1.784   3.822  0.7155  0.0091  0.2049
   80MOL   C10325541   1.397   1.737   3.928 -0.2441 -0.0343 -0.0871
   80MOL   C10425542   1.375   1.874   3.726 -0.9909 -0.5083 -0.3469
   80MOL   H10525543   0.910   1.781   3.641 -0.6902  0.1219 -0.7859
   80MOL   H10625544   0.961   1.667   3.763  0.8870 -0.6188  0.3703
   80MOL   H10725545   1.122   1.922   3.689 -0.6120  0.2033  0.2861
   80MOL   H10825546   1.362   1.642   3.967 -0.7755 -0.0077 -0.4932
   80MOL   H10925547   1.505   1.733   3.910  0.0489 -1.0794  1.7725
   80MOL   H11025548   1.371   1.812   4.003 -1.4952  1.2885 -1.8128
   80MOL   H11125549   1.483   1.882   3.738 -0.7394 -0.8367 -2.1781
   80MOL   H11225550   1.344   1.977   3.743 -0.1805 -0.3029 -0.0827
   80MOL   H11325551   1.364   1.863   3.618 -1.2039  0.4745 -0.4285
   80MOL   C11425552   0.971   1.940   3.844  0.6782  0.0236 -0.3260
   80MOL   C11525553   1.048   2.050   3.927  0.7110 -0.1723 -0.4051
   80MOL   C11625554   1.062   2.016   4.076 -0.0851  0.3454  0.0511
   80MOL   O11725555   0.958   1.984   4.136  0.1486 -0.4733 -0.0339
   80MOL   N11825556   1.189   2.002   4.136  0.4837  0.1045 -1.1197
   80MOL   C11925557   1.206   1.951   4.271  0.2545  0.3176 -0.3734
   80MOL   C12025558   1.312   2.074   4.083  0.2158 -0.3601 -0.0188
   80MOL   H12125559   0.897   1.993   3.784 -1.2933 -1.9864  0.2412
   80MOL   H12225560   0.912   1.878   3.912  1.1043 -0.2447 -0.1981
   80MOL   H12325561   1.153   2.054   3.899  1.4115 -2.3962  1.6785
   80MOL   H12425562   1.112   1.924   4.320  0.3870  1.8110  0.7243
   80MOL   H12525563   1.253   1.855   4.248  2.0204  0.9859  0.3900
   80MOL   H12625564   1.271   2.001   4.342  0.2442  0.0549 -0.1762
   80MOL   H12725565   1.294   2.178   4.055 -1.7662  0.1174  2.9035
   80MOL   H12825566   1.337   2.018   3.992 -0.1595  0.5618 -0.7036
   80MOL   H12925567   1.407   2.067   4.137  0.5454  1.2920 -0.3523
   80MOL   C13025568   1.013   2.203   3.911 -0.3332  0.3623  0.0815
   80MOL   C13125569   1.002   2.264   3.773 -0.7414 -0.5552  0.0927
   80MOL   C13225570   1.134   2.262   3.689  0.0067  0.7414  0.1064
   80MOL   O13325571   1.242   2.252   3.747 -0.5645  0.4717 -0.0946
   80MOL   N13425572   1.129   2.251   3.554  0.0968 -0.4747  0.1028
   80MOL   C13525573   1.010   2.270   3.475 -0.2693 -0.2220 -0.8194
   80MOL   C13625574   1.255   2.255   3.472  0.4712 -0.4427  0.2312
   80MOL   H13725575   0.917   2.214   3.961 -0.6092 -1.9666  0.1023
   80MOL   H13825576   1.081   2.267   3.967 -1.4266 -0.9269  2.9535
   80MOL   H13925577   0.928   2.198   3.728 -1.8937  0.3812  0.5907
   80MOL   H14025578   0.917   2.266   3.531  0.8379  3.1666  1.4138
   80MOL   H14125579   1.015   2.365   3.420 -1.2838 -0.0071 -0.5458
   80MOL   H14225580   1.021   2.188   3.404 -0.9847  0.2188 -1.4472
   80MOL   H14325581   1.289   2.358   3.461  0.3356 -0.5506 -1.2243
   80MOL   H14425582   1.245   2.213   3.372  1.0390 -0.5923  0.2391
   80MOL   H14525583   1.335   2.202   3.524  2.8622  3.0490  0.2553
   80MOL   C14625584   0.947   2.412   3.769  0.1917 -0.9814  0.3134
   80MOL   C14725585   0.808   2.430   3.829 -0.0474  0.4407 -0.1125
   80MOL   C14825586   0.695   2.342   3.759 -0.0960  0.3240  0.3089
   80MOL   O14925587   0.675   2.334   3.635  0.0214 -0.3413 -0.2151
   80MOL   N15025588   0.614   2.274   3.844 -0.3619  0.0697 -0.2925
   80MOL   C15125589   0.630   2.262   3.997  0.0520 -0.3581 -0.0122
   80MOL   C15225590   0.503   2.194   3.788  0.0694  0.5583 -0.0726
   80MOL   H15325591   1.023   2.482   3.804 -0.8364  0.8702 -1.0894
   80MOL   H15425592   0.935   2.435   3.663  3.3651  3.0583  0.6941
   80MOL   H15525593   0.829   2.409   3.934  1.3144  4.4489  0.5115
   80MOL   H15625594   0.541   2.216   4.040 -0.4361  2.2884  1.9671
   80MOL   H15725595   0.714   2.196   4.022  0.9652  0.2288 -1.4740
   80MOL   H15825596   0.641   2.350   4.061 -1.3892  0.2788 -0.6481
   80MOL   H15925597   0.427   2.163   3.859 -0.7920  0.9681 -0.7980
   80MOL   H16025598   0.547   2.108   3.738 -0.0540  0.4816 -0.0484
   80MOL   H16125599   0.449   2.242   3.706  0.0850  0.9856  0.1663
   80MOL   C16225600   0.754   2.575   3.845 -0.4954 -0.0526 -0.1836
   80MOL   C16325601   0.738   2.656   3.713 -0.1620 -0.8428 -0.2105
   80MOL   C16425602   0.874   2.705   3.654  0.2647 -0.0470  0.1749
   80MOL   O16525603   0.945   2.772   3.730 -0.1142  0.2121  0.0952
   80MOL   N16625604   0.903   2.684   3.520 -0.1620  0.3618 -0.1557
   80MOL   C16725605   0.822   2.615   3.420  0.1751  0.7534 -0.4805
   80MOL   C16825606   1.013   2.756   3.462 -0.1716 -0.7072 -1.0210
   80MOL   H16925607   0.657   2.579   3.895 -0.1330 -1.2995  0.6360
   80MOL   H17025608   0.827   2.630   3.905 -1.0822 -0.2632  0.7359
   80MOL   H17125609   0.700   2.580   3.645 -1.5393 -1.8747  1.6725
   80MOL   H17225610   0.718   2.639   3.439  0.3127 -0.6596  2.2941
   80MOL   H17325611   0.853   2.639   3.318  0.4820  1.2626 -0.2668
   80MOL   H17425612   0.843   2.510   3.439  0.6074  1.0094  0.4935
   80MOL   H17525613   0.988   2.862   3.452 -1.5349 -0.9338 -0.0587
   80MOL   H17625614   1.040   2.717   3.364  0.8400 -0.2022 -0.9533
   80MOL   H17725615   1.096   2.757   3.532 -1.3228  0.1531  0.3496
   80MOL   C17825616   0.624   2.759   3.721 -0.2329 -0.9411  0.0438
   80MOL   C17925617   0.653   2.901   3.782  0.2475 -0.2947  0.3020
   80MOL   C18025618   0.695   2.895   3.927 -0.6005 -0.4647 -0.4038
   80MOL   O18125619   0.629   2.813   3.991 -0.5642 -0.0052  0.0915
   80MOL   N18225620   0.812   2.944   3.968  0.5401  0.1220  0.1544
   80MOL   C18325621   0.895   3.034   3.887 -0.5043  0.2743  0.4030
   80MOL   C18425622   0.872   2.897   4.094  0.2118  0.0103 -0.0444
   80MOL   H18525623   0.586   2.761   3.619 -3.3456 -0.2231  1.1306
   80MOL   H18625624   0.542   2.711   3.774 -0.7215  0.0147  0.1760
   80MOL   H18725625   0.740   2.941   3.730  0.2959 -0.8875 -0.0729
   80MOL   H18825626   0.946   3.106   3.951  0.9686 -0.1883 -0.2317
   80MOL   H18925627   0.970   2.973   3.839 -3.1079 -2.2639 -0.5860
   80MOL   H19025628   0.837   3.090   3.814 -3.9650  0.4986  3.1788
   80MOL   H19125629   0.828   2.803   4.128  1.2817 -0.2972  0.5308
   80MOL   H19225630   0.862   2.967   4.177  1.5390  0.7515 -0.5048
   80MOL   H19325631   0.977   2.879   4.069 -0.2266 -1.1495 -1.0843
   80MOL   C19425632   0.528   2.993   3.764  0.4916 -0.7197  0.6489
   80MOL   C19525633   0.499   3.037   3.619  0.1851  0.8228  0.1696
   80MOL   C19625634   0.623   3.126   3.575 -0.0361  0.0359  0.3208
   80MOL   O19725635   0.629   3.239   3.617 -0.1495 -0.1896  0.0601
   80MOL   N19825636   0.716   3.078   3.495  0.4065 -0.0651  0.6140
   80MOL   C19925637   0.699   2.956   3.421 -0.1577 -0.3180  0.3259
   80MOL   C20025638   0.836   3.158   3.466 -0.9453 -0.5670 -0.1498
   80MOL   H20125639   0.440   2.949   3.811  1.0577  0.8449  3.2076
   80MOL   H20225640   0.565   3.079   3.818 -0.4125 -0.6323  1.1335
   80MOL   H20325641   0.490   2.946   3.560  0.3772  0.6580  0.3888
   80MOL   H20425642   0.690   2.876   3.494  1.7267  0.2146  1.1758
   80MOL   H20525643   0.606   2.965   3.366  1.0061  0.7147 -1.5470
   80MOL   H20625644   0.784   2.928   3.359 -1.4201 -1.5079 -0.9049
   80MOL   H20725645   0.909   3.119   3.395 -0.3475 -2.3122  1.3722
   80MOL   H20825646   0.874   3.177   3.567 -2.1647  0.2710  0.1697
   80MOL   H20925647   0.816   3.262   3.440  0.9387 -0.3332 -0.7378
   80MOL   C21025648   0.368   3.113   3.604  0.4794  0.7369  0.4104
   80MOL   C21125649   0.237   3.032   3.568 -0.2741  0.5061  0.1981
   80MOL   C21225650   0.188   2.964   3.700 -0.0888  0.9798 -0.2742
   80MOL   O21325651   0.242   2.852   3.726 -0.5275 -0.7836  0.1907
   80MOL   N21425652   0.092   3.020   3.777 -0.2673  0.3468  0.0143
   80MOL   C21525653   0.032   2.935   3.876 -0.4873  0.6739  0.0285
   80MOL   C21625654   0.035   3.160   3.759  0.6947  0.4319  0.3575
   80MOL   H21725655   0.339   3.162   3.697  1.7285  0.9778  0.6924
   80MOL   H21825656   0.374   3.183   3.521  0.0030  0.1479 -0.1230
   80MOL   H21925657   0.156   3.099   3.538 -0.8841 -0.3752 -0.1514
   80MOL   H22025658   7.839   2.846   3.834  0.1139  0.0004  0.7545
   80MOL   H22125659   0.105   2.891   3.945 -0.6555  1.2145  0.5573
   80MOL   H22225660   7.803   2.987   3.924 -0.9745 -0.2657  0.2220
   80MOL   H22325661   7.851   3.202   3.853  0.2369 -0.9449  0.8082
   80MOL   H22425662   7.799   3.159   3.697  1.5098  1.8977 -0.8660
   80MOL   H22525663   0.109   3.227   3.717  0.5801 -1.0737 -2.3045
   80MOL   C22625664   0.249   2.940   3.443 -0.6992 -0.4792  0.0310
   80MOL   C22725665   0.131   2.901   3.350  0.2359 -0.1362  0.1634
   80MOL   C22825666   0.024   2.820   3.426 -0.3620  0.9063 -0.5305
   80MOL   O22925667   0.063   2.728   3.496 -0.3264 -0.1636  0.8135
   80MOL   N23025668   7.743   2.841   3.408  0.2942  0.1152 -0.3140
   80MOL   C23125669   7.686   2.950   3.330 -0.1463 -0.7069  0.1374
   80MOL   C23225670   7.644   2.746   3.442 -0.1937 -0.4369  0.2326
   80MOL   H23325671   0.319   2.989   3.375 -1.0864  1.5269  1.0280
   80MOL   H23425672   0.308   2.849   3.459  3.9444  2.4275  0.4582
   80MOL   H23525673   0.088   2.998   3.325  2.5246  1.0605  0.7529
   80MOL   H23625674   7.577   2.949   3.332 -0.1997  0.5744 -1.3653
   80MOL   H23725675   7.722   3.050   3.353  1.6974 -0.2009 -4.3846
   80MOL   H23825676   7.699   2.931   3.224  0.1521  0.7713 -0.0963
   80MOL   H23925677   7.590   2.716   3.352  1.3031 -0.9124 -0.5264
   80MOL   H24025678   7.577   2.778   3.522 -0.7314  2.0621 -1.1758
   80MOL   H24125679   7.686   2.649   3.469  0.4379 -1.1766 -3.2040
   80MOL   C24225680   0.171   2.824   3.217  0.5560 -0.0141 -0.0844
   80MOL   C24325681   0.245   2.897   3.099 -0.7576  0.1063 -0.2598
   80MOL   C24425682   0.211   2.820   2.962 -0.4672 -0.2457 -0.6257
   80MOL   O24525683   0.239   2.702   2.949 -0.1748  0.2714 -0.0114
   80MOL   N24625684   0.144   2.893   2.869  0.1886  0.2401 -0.1865
   80MOL   C24725685   0.129   3.034   2.861 -0.5046  0.0334  0.0328
   80MOL   C24825686   0.097   2.830   2.741 -0.9531 -0.0469 -0.5350
   80MOL   H24925687   0.238   2.742   3.244  0.9612 -0.1198 -1.3445
   80MOL   H25025688   0.083   2.775   3.176  0.1207 -1.0614  2.0358
   80MOL   H25125689   0.222   3.004   3.102 -2.2203 -0.2262  1.0948
   80MOL   H25225690   0.081   3.076   2.949 -0.2469 -0.0626  0.2201
   80MOL   H25325691   0.227   3.079   2.844 -1.5120  1.5947 -1.8681
   80MOL   H25425692   0.058   3.067   2.785  2.2060  3.8314 -1.0049
   80MOL   H25525693   0.171   2.756   2.710 -0.0629 -0.1906  1.8214
   80MOL   H25625694   0.085   2.895   2.654  0.1654  0.0572 -0.6181
   80MOL   H25725695   0.003   2.775   2.754 -1.3647  0.5476 -0.9412
   80MOL   C25825696   0.404   2.882   3.120 -0.3519 -0.2129 -0.6336
   80MOL   C25925697   0.490   2.950   3.013  0.7568 -0.2521 -0.3164
   80MOL   C26025698   0.631   2.903   3.039  0.5830  0.6436 -0.3962
   80MOL   O26125699   0.707   2.953   3.124 -0.0599 -0.6279 -0.0595
   80MOL   N26225700   0.676   2.795   2.966 -0.0346 -0.7091  0.3568
   80MOL   C26325701   0.598   2.720   2.869  0.1430  0.0890 -0.0012
   80MOL   C26425702   0.805   2.740   3.008  0.4917  0.0489  0.5115
   80MOL   H26525703   0.436   2.930   3.212 -2.5529 -0.6905  0.4253
   80MOL   H26625704   0.421   2.774   3.124 -3.9744 -0.8975 -1.7281
   80MOL   H26725705   0.466   2.919   2.911 -2.4537 -0.2586  0.4063
   80MOL   H26825706   0.503   2.677   2.902 -0.4612 -1.0130 -2.9638
   80MOL   H26925707   0.574   2.789   2.788  1.4135  0.2752 -0.2303
   80MOL   H27025708   0.652   2.641   2.817  1.2176 -1.0851  2.8154
   80MOL   H27125709   0.819   2.716   3.113  0.6370  3.1365  1.2358
   80MOL   H27225710   0.889   2.804   2.980  1.5308 -1.3348  0.3683
   80MOL   H27325711   0.820   2.645   2.956  2.0635 -0.3499  1.6373
   80MOL   C27425712   0.467   3.100   3.024 -0.0982  0.1792  0.0893
   80MOL   C27525713   0.568   3.197   2.954  0.2241 -0.4348  0.0651
   80MOL   C27625714   0.530   3.340   2.988  0.1180 -0.0282  0.3219
   80MOL   O27725715   0.467   3.401   2.902  0.0402 -0.0394 -0.5005
   80MOL   N27825716   0.589   3.399   3.091 -0.5109 -0.0567  0.8647
   80MOL   C27925717   0.598   3.544   3.100 -0.0712 -0.0490  0.4894
   80MOL   C28025718   0.618   3.330   3.218 -0.2484 -0.2630  0.4675
   80MOL   H28125719   0.369   3.135   2.989 -0.9501 -0.4906  1.7199
   80MOL   H28225720   0.466   3.121   3.131 -0.4144 -1.0001  0.3283
   80MOL   H28325721   0.666   3.182   3.001  0.3012 -0.9977 -0.2737
   80MOL   H28425722   0.553   3.586   3.189  1.0032 -0.1566  1.0904
   80MOL   H28525723   0.703   3.573   3.106 -0.8268  2.4778  2.0156
   80MOL   H28625724   0.566   3.592   3.007  0.1268 -0.6436  0.1045
   80MOL   H28725725   0.676   3.387   3.290 -0.7178 -1.5006  1.8414
   80MOL   H28825726   0.673   3.237   3.205 -2.3554 -1.4051 -0.4396
   80MOL   H28925727   0.526   3.307   3.271 -0.9482 -3.5009 -2.0117
   80MOL   C29025728   0.581   3.174   2.802 -0.5205  0.3574  0.1994
   80MOL   C29125729   0.717   3.231   2.737  0.5624  0.4355 -0.3439
   80MOL   C29225730   0.694   3.235   2.586 -0.1504  0.1791 -0.1039
   80MOL   O29325731   0.640   3.134   2.533 -0.0816 -0.2824 -0.0328
   80MOL   N29425732   0.717   3.344   2.512 -0.1614 -0.3111  0.1404
   80MOL   C29525733   0.802   3.455   2.548  0.0019 -0.5435 -0.3134
   80MOL   C29625734   0.669   3.357   2.376  0.4951  0.3506  0.1607
   80MOL   H29725735   0.573   3.071   2.770  1.1852 -0.1112  1.2351
   80MOL   H29825736   0.503   3.228   2.748 -0.7048 -0.5869 -0.4846
   80MOL   H29925737   0.739   3.333   2.768  3.1674 -0.5769  1.3181
   80MOL   H30025738   0.801   3.506   2.644 -0.5200  1.8274 -1.5507
   80MOL   H30125739   0.902   3.435   2.510 -0.5729 -1.6389 -1.2730
   80MOL   H30225740   0.766   3.538   2.488 -0.7533 -0.3931  0.3440
   80MOL   H30325741   0.706   3.446   2.324  2.1376 -1.4184 -1.7748
   80MOL   H30425742   0.562   3.377   2.371  0.5051  0.6812  1.1548
   80MOL   H30525743   0.693   3.270   2.315 -1.3524 -0.7855  1.0242
   80MOL   C30625744   0.837   3.139   2.763 -0.3276  0.1329  0.1483
   80MOL   C30725745   0.906   3.173   2.895  0.3285  0.8354  0.1481
   80MOL   C30825746   1.052   3.118   2.904 -0.1322 -0.5713  0.0432
   80MOL   O30925747   1.117   3.088   2.798 -0.4444 -0.1410  0.2264
   80MOL   N31025748   1.117   3.114   3.021  0.7286 -0.2191  0.2373
   80MOL   C31125749   1.246   3.037   3.034 -0.4186  1.2807 -0.1849
   80MOL   C31225750   1.035   3.120   3.145  0.4935 -0.0641 -0.0553
   80MOL   H31325751   0.811   3.035   2.747  1.1619 -0.0585 -1.2749
   80MOL   H31425752   0.900   3.155   2.675  0.1849 -0.8082  0.3376
   80MOL   H31525753   0.902   3.281   2.907  1.8003  0.8627  0.4907
   80MOL   H31625754   1.318   3.097   2.978  0.9961  0.1342  0.3787
   80MOL   H31725755   1.276   3.026   3.139 -3.6113  2.7137  0.9362
   80MOL   H31825756   1.221   2.944   2.984 -0.8902  1.9027 -1.1161
   80MOL   H31925757   0.983   3.216   3.145 -0.3298 -0.4984 -0.3133
   80MOL   H32025758   1.101   3.133   3.230  1.8980 -1.6496 -0.8875
   80MOL   H32125759   0.967   3.039   3.170 -3.0435  2.3435 -1.3485
   80MOL   H32225760   0.851   3.135   2.980 -1.7753  0.8331 -1.1719
   81MOL     C125761   1.244   5.288   6.508 -0.3676 -0.3531  0.2934
   81MOL     C225762   1.126   5.262   6.600 -0.2141  0.5199  0.4719
   81MOL     C325763   1.177   5.276   6.744  0.4720 -0.2918 -0.5707
   81MOL     O425764   1.241   5.183   6.792  0.3821  0.1800  0.0848
   81MOL     N525765   1.153   5.382   6.821 -0.0586  0.6790 -0.1748
   81MOL     C625766   1.188   5.385   6.967 -0.1832 -0.0514  0.4842
   81MOL     C725767   1.109   5.513   6.773  0.3094  0.6045 -0.6113
   81MOL     H825768   1.331   5.226   6.528  1.8174  2.4815 -0.0517
   81MOL     H925769   1.277   5.392   6.520  1.8946 -0.7705 -1.7554
   81MOL    H1025770   1.050   5.337   6.577 -0.1194 -0.1447 -2.1702
   81MOL    H1125771   1.258   5.310   7.004  1.0248  0.9583  0.3125
   81MOL    H1225772   1.238   5.476   7.001 -0.1192  0.4230 -0.8480
   81MOL    H1325773   1.086   5.380   7.004 -0.4469 -2.7015 -0.5476
   81MOL    H1425774   1.000   5.514   6.764  0.3724 -0.1209 -1.6088
   81MOL    H1525775   1.153   5.549   6.681  1.9300  0.4145  0.0823
   81MOL    H1625776   1.132   5.589   6.847  0.2192 -0.4505  0.5116
   81MOL    H1725777   1.217   5.274   6.403 -2.1905 -0.4220  0.7521
   81MOL    C1825778   1.065   5.116   6.578 -0.5195  0.1119 -0.1000
   81MOL    C1925779   0.934   5.074   6.653  0.0321  0.0074  0.1719
   81MOL    C2025780   0.811   5.155   6.606 -0.1166 -0.6063  0.1724
   81MOL    O2125781   0.761   5.222   6.697  0.4938 -0.3118  0.3390
   81MOL    N2225782   0.760   5.160   6.481 -0.3231 -0.5375  0.1702
   81MOL    C2325783   0.797   5.056   6.377  0.3337 -0.0515  0.3289
   81MOL    C2425784   0.634   5.238   6.462  0.1867  0.3479  0.3835
   81MOL    H2525785   1.058   5.092   6.471 -0.4545 -1.2802  0.2020
   81MOL    H2625786   1.144   5.043   6.598 -1.3394 -0.3538  1.5368
   81MOL    H2725787   0.922   4.971   6.618  2.3683 -0.1460 -0.2426
   81MOL    H2825788   0.741   5.079   6.287 -0.9028 -1.3118  0.7545
   81MOL    H2925789   0.901   5.072   6.349  1.0318 -1.6891  1.8709
   81MOL    H3025790   0.784   4.953   6.411 -2.0092  0.2356  0.3528
   81MOL    H3125791   0.640   5.285   6.364  0.6359 -0.7029 -0.1026
   81MOL    H3225792   0.645   5.319   6.534 -1.2043  0.4720  0.4763
   81MOL    H3325793   0.540   5.185   6.479 -1.6867  2.7274 -2.0104
   81MOL    C3425794   0.947   5.047   6.812  0.1522  0.1106  0.1612
   81MOL    C3525795   1.035   4.931   6.855 -0.1682  1.0910 -0.3229
   81MOL    C3625796   0.959   4.796   6.820  0.0683  0.1267  0.1170
   81MOL    O3725797   0.855   4.769   6.883  0.5923  0.7117  0.0298
   81MOL    N3825798   1.015   4.703   6.735  0.5935 -0.2871 -0.2622
   81MOL    C3925799   1.123   4.716   6.634 -0.6621  0.1363 -0.3671
   81MOL    C4025800   0.958   4.569   6.732  0.0272  0.7678 -0.1056
   81MOL    H4125801   0.975   5.143   6.855 -1.5862  0.3386  0.8000
   81MOL    H4225802   0.850   5.026   6.856 -1.2085  1.2360 -2.1647
   81MOL    H4325803   1.132   4.941   6.805  0.7336 -1.0047  0.9514
   81MOL    H4425804   1.221   4.691   6.673 -0.1191  0.9904 -1.1686
   81MOL    H4525805   1.122   4.655   6.543  0.8641 -2.3729  1.2287
   81MOL    H4625806   1.126   4.820   6.604 -0.5576  0.0186 -0.7687
   81MOL    H4725807   0.891   4.558   6.648 -0.2226 -0.6120  0.2492
   81MOL    H4825808   0.902   4.539   6.821  0.7828  1.5438  0.6452
   81MOL    H4925809   1.029   4.487   6.719 -0.9002 -0.7544  3.6305
   81MOL    C5025810   1.080   4.937   7.006 -0.3689  0.5897 -1.1219
   81MOL    C5125811   1.231   4.931   7.049 -0.5301  0.3958  0.2520
   81MOL    C5225812   1.307   4.823   6.982  0.3752 -0.3933 -0.5024
   81MOL    O5325813   1.253   4.714   6.968 -0.0873  0.1025 -0.5602
   81MOL    N5425814   1.433   4.837   6.941  0.5450 -0.2874  0.2399
   81MOL    C5525815   1.521   4.720   6.915  0.2116  0.1202  0.1598
   81MOL    C5625816   1.498   4.970   6.935 -0.3342  0.1326  0.1570
   81MOL    H5725817   1.035   5.028   7.046 -0.8950  0.7793 -2.1375
   81MOL    H5825818   1.037   4.858   7.068  0.6678  0.3318 -0.7200
   81MOL    H5925819   1.278   5.028   7.032  1.0860 -0.2671  0.8440
   81MOL    H6025820   1.488   4.654   6.835  0.7132 -0.0534  0.0907
   81MOL    H6125821   1.626   4.736   6.891  0.4479 -3.3005 -1.3520
   81MOL    H6225822   1.528   4.665   7.009 -1.7222 -0.2556  0.1039
   81MOL    H6325823   1.604   4.965   6.907 -0.7303 -0.5072 -1.2730
   81MOL    H6425824   1.500   5.007   7.038  1.1722  1.1076 -0.2054
   81MOL    H6525825   1.449   5.037   6.865  0.1229 -0.5174 -0.7973
   81MOL    C6625826   1.257   4.893   7.196 -0.6842 -0.2737  0.0557
   81MOL    C6725827   1.214   5.001   7.298 -0.0419 -0.4540 -0.0981
   81MOL    C6825828   1.325   5.115   7.305 -0.0757  0.4480  0.0324
   81MOL    O6925829   1.444   5.089   7.295  0.2730  0.1060  0.1866
   81MOL    N7025830   1.283   5.245   7.297  0.5281 -0.2826 -0.6335
   81MOL    C7125831   1.154   5.300   7.338 -0.1604 -0.3441  0.3924
   81MOL    C7225832   1.385   5.347   7.260 -0.2343  0.0902 -0.8096
   81MOL    H7325833   1.210   4.799   7.225 -1.9703  0.6132  0.8856
   81MOL    H7425834   1.364   4.875   7.207 -0.3098  1.0144 -1.2611
   81MOL    H7525835   1.119   5.042   7.264  1.3374  1.9488 -1.1850
   81MOL    H7625836   1.096   5.333   7.251  0.0205 -1.6816 -0.2536
   81MOL    H7725837   1.092   5.219   7.376  0.5068 -1.3933 -0.7319
   81MOL    H7825838   1.160   5.371   7.420 -1.4610 -0.5964  0.7233
   81MOL    H7925839   1.450   5.356   7.347 -1.9836 -0.3559  0.5531
   81MOL    H8025840   1.339   5.446   7.253 -2.3391 -0.6039  2.5140
   81MOL    H8125841   1.445   5.317   7.174 -0.6106  1.8615 -1.7184
   81MOL    C8225842   1.185   4.932   7.438  0.2972  0.2305  0.4523
   81MOL    C8325843   1.045   4.869   7.447 -0.2608 -0.4826 -0.3044
   81MOL    C8425844   0.940   4.979   7.445  0.0030 -0.4101 -0.0976
   81MOL    O8525845   0.951   5.083   7.504 -0.0144 -0.2507 -0.2621
   81MOL    N8625846   0.827   4.957   7.365 -0.4109 -0.3317 -0.3427
   81MOL    C8725847   0.735   5.070   7.343  0.7351  0.4060 -0.0571
   81MOL    C8825848   0.802   4.843   7.284  0.2582 -0.4643  0.3754
   81MOL    H8925849   1.259   4.857   7.467  1.4287  0.4886 -1.6655
   81MOL    H9025850   1.201   5.012   7.511 -1.5621  1.1490 -0.1152
   81MOL    H9125851   1.037   4.812   7.355 -2.3162 -0.7754  0.0451
   81MOL    H9225852   0.637   5.057   7.389  1.0715  1.8675  1.0833
   81MOL    H9325853   0.774   5.167   7.373  2.0616 -1.1923  3.7831
   81MOL    H9425854   0.717   5.068   7.236  0.5639 -0.5201 -0.0238
   81MOL    H9525855   0.708   4.854   7.231 -0.5897  0.0937  1.9727
   81MOL    H9625856   0.789   4.754   7.347  1.1614 -0.1201  1.0646
   81MOL    H9725857   0.869   4.824   7.200 -0.5646 -1.3784 -0.0850
   81MOL    C9825858   1.024   4.780   7.574  0.1686  0.8268 -0.1555
   81MOL    C9925859   1.102   4.646   7.570 -1.0060  0.1998  0.3968
   81MOL   C10025860   1.058   4.566   7.445 -0.3647  1.0416  0.1197
   81MOL   O10125861   0.941   4.539   7.435  0.1725  0.3251  0.8517
   81MOL   N10225862   1.151   4.528   7.352 -0.5952 -0.1559 -0.0868
   81MOL   C10325863   1.112   4.461   7.233  0.4144  0.0606 -0.2390
   81MOL   C10425864   1.296   4.563   7.352  0.0190  0.9531  0.4331
   81MOL   H10525865   1.035   4.841   7.664  1.6216  0.4755 -0.0873
   81MOL   H10625866   0.918   4.753   7.577  1.0826 -2.9888 -0.6124
   81MOL   H10725867   1.207   4.673   7.580 -1.1013  0.5946  0.3327
   81MOL   H10825868   1.124   4.353   7.233 -1.6153 -0.1979  0.5537
   81MOL   H10925869   1.008   4.482   7.205 -0.0433  1.8017  2.5564
   81MOL   H11025870   1.169   4.496   7.148 -0.4904  0.0922 -0.8391
   81MOL   H11125871   1.301   4.671   7.365  0.7529  1.1238 -1.1521
   81MOL   H11225872   1.353   4.534   7.263 -0.4333  1.1237  0.0874
   81MOL   H11325873   1.344   4.516   7.438 -0.0531  0.8930  0.4406
   81MOL   C11425874   1.065   4.575   7.702  0.8792 -0.0962 -0.1435
   81MOL   C11525875   1.131   4.437   7.722  0.3861  0.3104  0.3945
   81MOL   C11625876   1.057   4.346   7.822  0.4116 -0.2774  0.2465
   81MOL   O11725877   1.095   4.355   0.083  0.3465 -0.0322 -0.3647
   81MOL   N11825878   0.937   4.284   7.784 -0.1048 -1.0565  0.5077
   81MOL   C11925879   0.845   4.220   0.021 -0.0825 -0.2082  0.2835
   81MOL   C12025880   0.889   4.269   7.646 -0.0130 -0.4082  0.0165
   81MOL   H12125881   1.088   4.641   7.785  0.8674 -0.5392  0.2114
   81MOL   H12225882   0.957   4.563   7.707  0.4211  2.9772 -1.6330
   81MOL   H12325883   1.126   4.385   7.626  4.3364 -0.7792  0.6812
   81MOL   H12425884   0.885   4.216   0.122 -0.1862 -0.6963  0.3058
   81MOL   H12525885   0.756   4.281   0.011 -0.6069 -0.8104  1.2781
   81MOL   H12625886   0.824   4.117   7.845 -2.7418  0.1585  0.8061
   81MOL   H12725887   0.795   4.213   7.638  0.1202 -0.7314  0.6747
   81MOL   H12825888   0.955   4.210   7.583 -0.1546 -0.9820  0.3956
   81MOL   H12925889   0.872   4.362   7.593  0.4558 -0.7099 -0.6622
   81MOL   C13025890   1.291   4.441   7.746 -0.9943  0.5749  0.0175
   81MOL   C13125891   1.369   4.308   7.729  0.6417 -0.4064 -0.2429
   81MOL   C13225892   1.524   4.336   7.757  0.8772 -0.2948  0.3006
   81MOL   O13325893   1.586   4.392   7.669 -0.3041 -0.0269 -0.0134
   81MOL   N13425894   1.575   4.331   0.027  0.0309  0.3621 -0.3450
   81MOL   C13525895   1.527   4.229   0.124 -0.0256  0.1157  0.0309
   81MOL   C13625896   1.713   4.361   0.043 -0.2953 -0.2417  0.3688
   81MOL   H13725897   1.337   4.515   7.679 -0.4646 -1.0926 -1.5022
   81MOL   H13825898   1.305   4.481   7.846 -1.1630 -0.8918  0.6380
   81MOL   H13925899   1.335   4.239   7.806  1.5964 -1.8498 -1.0851
   81MOL   H14025900   1.529   4.129   0.079  3.6179 -0.2305  0.8403
   81MOL   H14125901   1.583   4.240   0.216  0.2901 -1.1888  0.0129
   81MOL   H14225902   1.424   4.232   0.159  0.4644  1.0316  1.4069
   81MOL   H14325903   1.735   4.372   0.150 -2.4018 -1.3561  0.9280
   81MOL   H14425904   1.734   4.462   0.007  0.5691  0.0068  1.5141
   81MOL   H14525905   1.778   4.290   7.845  0.1715  0.6556 -0.3015
   81MOL   C14625906   1.347   4.239   7.588  1.0299 -0.3982  0.5234
   81MOL   C14725907   1.265   4.108   7.602  0.0022  0.6412  0.5651
   81MOL   C14825908   1.350   3.999   7.680  0.8107  0.6115 -0.1084
   81MOL   O14925909   1.473   4.003   7.669  0.9037 -0.4229 -0.0049
   81MOL   N15025910   1.282   3.905   7.760 -0.1588 -0.1341 -0.2413
   81MOL   C15125911   1.137   3.913   7.796  0.1249  0.5991 -0.0870
   81MOL   C15225912   1.365   3.820   7.841 -0.0840 -0.0020  0.6960
   81MOL   H15325913   1.285   4.301   7.522  1.3063  0.5098  1.1050
   81MOL   H15425914   1.446   4.220   7.546  1.8030  1.0213  1.6488
   81MOL   H15525915   1.187   4.138   7.672  1.0503 -0.6550  2.3072
   81MOL   H15625916   1.098   3.826   7.849 -3.3302  2.3592  0.3927
   81MOL   H15725917   1.114   4.000   0.004 -0.7590  1.0135 -0.9841
   81MOL   H15825918   1.076   3.939   7.710  1.1869 -1.5401 -1.5445
   81MOL   H15925919   1.456   3.797   7.785  1.0110  1.2991  1.9070
   81MOL   H16025920   1.305   3.735   0.020  0.9303 -1.5634 -1.3715
   81MOL   H16125921   1.404   3.877   0.072 -1.3060  0.2191  1.1186
   81MOL   C16225922   1.212   4.061   7.465  0.3968 -0.1530 -0.2525
   81MOL   C16325923   1.303   4.003   7.351 -0.2380  0.9737 -0.1791
   81MOL   C16425924   1.383   4.117   7.280  0.5743 -0.6972 -1.0013
   81MOL   O16525925   1.322   4.213   7.233  0.2383 -0.2083  0.5491
   81MOL   N16625926   1.520   4.110   7.268 -0.7109 -0.2889  0.1587
   81MOL   C16725927   1.607   4.014   7.349  0.3798 -0.4965  0.4367
   81MOL   C16825928   1.602   4.199   7.181 -0.1375 -0.2027  0.1873
   81MOL   H16925929   1.128   3.996   7.489  0.2801 -0.1560 -0.6682
   81MOL   H17025930   1.162   4.142   7.413  1.5851  0.1818 -0.9075
   81MOL   H17125931   1.363   3.925   7.398 -2.7339 -1.7543 -1.3195
   81MOL   H17225932   1.561   3.915   7.342  0.4353 -0.5307  0.5548
   81MOL   H17325933   1.712   4.011   7.321  0.6392 -0.8420  1.4124
   81MOL   H17425934   1.596   4.042   7.454  0.8452 -2.7811  1.1359
   81MOL   H17525935   1.674   4.256   7.238 -0.7904  0.0256  0.7813
   81MOL   H17625936   1.541   4.275   7.131  1.6308  0.9788 -0.2207
   81MOL   H17725937   1.670   4.151   7.111 -0.9960  0.3163 -1.0306
   81MOL   C17825938   1.207   3.930   7.246  0.2737 -1.0099 -0.6598
   81MOL   C17925939   1.281   3.853   7.129 -0.3251  0.0202 -0.6506
   81MOL   C18025940   1.188   3.832   7.004  0.3491 -0.6874 -0.2587
   81MOL   O18125941   1.069   3.810   7.024 -0.2675  0.5994 -0.0102
   81MOL   N18225942   1.243   3.843   6.883  0.4999  0.6220 -0.2124
   81MOL   C18325943   1.387   3.870   6.857  0.0343  0.7781 -0.3377
   81MOL   C18425944   1.163   3.845   6.754 -0.1698  0.1862 -0.2788
   81MOL   H18525945   1.132   3.876   7.302 -1.6604 -0.9392 -3.0996
   81MOL   H18625946   1.145   4.014   7.213  1.3649  0.9623  2.0702
   81MOL   H18725947   1.361   3.922   7.102  0.5783 -1.1297 -0.9837
   81MOL   H18825948   1.454   3.796   6.902  2.0466  1.4282 -2.1713
   81MOL   H18925949   1.410   3.865   6.750 -3.0123  0.1287 -0.9972
   81MOL   H19025950   1.430   3.961   6.899  0.1078  1.4278 -1.7977
   81MOL   H19125951   1.058   3.870   6.767  0.0785  0.7503  0.6916
   81MOL   H19225952   1.165   3.741   6.720  2.5790  1.2523 -3.6585
   81MOL   H19325953   1.204   3.917   6.684  0.3114 -1.0704 -1.3089
   81MOL   C19425954   1.350   3.723   7.179  0.5296 -0.2158 -0.6958
   81MOL   C19525955   1.254   3.608   7.224  0.6237  0.0408  0.3508
   81MOL   C19625956   1.204   3.620   7.376  0.0661  0.4195 -0.3640
   81MOL   O19725957   1.287   3.644   7.461  0.0995  0.2967  0.1664
   81MOL   N19825958   1.072   3.614   7.405  0.3352  0.1337  0.2020
   81MOL   C19925959   1.029   3.614   7.551 -0.0808 -0.2800 -0.8612
   81MOL   C20025960   0.960   3.592   7.307 -0.8245  0.3998 -0.0923
   81MOL   H20125961   1.410   3.691   7.093 -0.0957 -1.3909 -0.7126
   81MOL   H20225962   1.424   3.747   7.255  0.5637 -0.9803 -0.4775
   81MOL   H20325963   1.164   3.598   7.164 -0.1528 -0.4095  1.5778
   81MOL   H20425964   1.004   3.711   7.593  0.4149 -1.0235  1.1757
   81MOL   H20525965   0.946   3.549   7.578 -0.8861  0.8184 -0.6461
   81MOL   H20625966   1.111   3.582   7.615  0.4861 -0.6435 -1.7604
   81MOL   H20725967   0.878   3.550   7.364 -1.3493 -0.9344 -1.8066
   81MOL   H20825968   0.988   3.519   7.232 -2.0469  0.5740 -0.7396
   81MOL   H20925969   0.929   3.686   7.260  2.1421  1.6525  0.2949
   81MOL   C21025970   1.335   3.470   7.217  0.0763  0.0577  0.1272
   81MOL   C21125971   1.307   3.400   7.071  0.3419  0.2797 -0.1376
   81MOL   C21225972   1.159   3.356   7.065  0.8340 -0.5304  0.0680
   81MOL   O21325973   1.113   3.308   7.167 -0.1186  1.0427  0.0437
   81MOL   N21425974   1.084   3.375   6.957 -0.1338 -0.0837  0.4902
   81MOL   C21525975   0.949   3.314   6.969 -0.2708  0.9211 -0.3832
   81MOL   C21625976   1.132   3.440   6.836 -0.4461  0.2482 -0.1007
   81MOL   H21725977   1.437   3.494   7.247  0.3192  0.0780 -0.7120
   81MOL   H21825978   1.312   3.402   7.300 -0.6318 -0.0158 -0.1294
   81MOL   H21925979   1.329   3.478   6.998  0.0878  1.5725  1.1359
   81MOL   H22025980   0.960   3.208   6.990  1.1455  1.2917  0.8380
   81MOL   H22125981   0.882   3.359   7.043 -1.5541 -0.1819 -0.8369
   81MOL   H22225982   0.897   3.330   6.875 -2.8230 -0.3372  0.7516
   81MOL   H22325983   1.236   3.419   6.809 -0.9374 -1.9347 -0.4083
   81MOL   H22425984   1.119   3.546   6.855 -2.7899  0.5275 -2.9268
   81MOL   H22525985   1.075   3.411   6.747  0.8278 -0.8986 -0.5720
   81MOL   C22625986   1.393   3.269   7.052  0.4134 -0.0869  0.2068
   81MOL   C22725987   1.544   3.279   7.053  0.4077  0.2465  0.2789
   81MOL   C22825988   1.584   3.390   6.946  0.0434 -0.2805 -0.1117
   81MOL   O22925989   1.512   3.405   6.849 -0.4670  0.4365 -0.4828
   81MOL   N23025990   1.683   3.479   6.977  0.6211  0.1054  0.2408
   81MOL   C23125991   1.701   3.599   6.896  0.2362 -0.1717 -0.0778
   81MOL   C23225992   1.759   3.482   7.101 -0.3905 -0.4944 -0.9198
   81MOL   H23325993   1.359   3.189   7.118 -0.3284 -0.4553 -0.6238
   81MOL   H23425994   1.359   3.238   6.954 -2.0484  1.0292  0.6665
   81MOL   H23525995   1.577   3.319   7.149 -0.1613  0.6495  0.3046
   81MOL   H23625996   1.801   3.640   6.910 -0.4489  2.0889 -1.4201
   81MOL   H23725997   1.675   3.578   6.792  0.9013 -2.2774  0.1704
   81MOL   H23825998   1.629   3.671   6.935  2.6470  2.0491  0.4347
   81MOL   H23925999   1.849   3.542   7.097 -0.9446  0.5684  1.3481
   81MOL   H24026000   1.799   3.385   7.130  0.0125  0.0296  0.3265
   81MOL   H24126001   1.697   3.516   7.184 -0.9512 -2.0101 -0.7010
   81MOL   C24226002   1.617   3.144   7.002  0.8616 -0.0892 -0.1330
   81MOL   C24326003   1.597   3.014   7.095 -0.1023  0.0933 -0.0642
   81MOL   C24426004   1.683   3.028   7.214 -0.2933 -0.1171 -0.0614
   81MOL   O24526005   1.803   3.029   7.204  0.0660  0.2879  0.2587
   81MOL   N24626006   1.619   3.017   7.329  0.4703  0.2099  0.0728
   81MOL   C24726007   1.695   2.981   7.451 -0.3075  0.5403 -0.5905
   81MOL   C24826008   1.480   3.051   7.350 -0.1212  0.1751 -0.6965
   81MOL   H24926009   1.586   3.121   6.901 -3.5589  2.3277  0.5427
   81MOL   H25026010   1.720   3.179   6.998  0.2308  1.7494 -1.2901
   81MOL   H25126011   1.489   3.006   7.108 -0.1353 -1.9506 -1.3438
   81MOL   H25226012   1.625   2.950   7.528  1.7604 -1.5829  0.5058
   81MOL   H25326013   1.758   2.894   7.433  0.2675  1.1276 -1.4449
   81MOL   H25426014   1.762   3.061   7.481  1.1256 -0.7532 -0.2318
   81MOL   H25526015   1.436   3.036   7.448  0.5227 -0.0265 -0.4350
   81MOL   H25626016   1.420   2.975   7.299 -0.2087 -0.7694  0.7658
   81MOL   H25726017   1.467   3.148   7.302  0.3157 -0.0754 -1.3325
   81MOL   C25826018   1.636   2.881   7.023  0.4012  0.5821 -0.3071
   81MOL   C25926019   1.584   2.745   7.079 -0.3765  0.8102  0.3306
   81MOL   C26026020   1.658   2.626   7.012 -0.8408 -0.2887 -0.2234
   81MOL   O26126021   1.678   2.625   6.892  0.4040 -0.5564  0.8221
   81MOL   N26226022   1.692   2.520   7.090 -0.3909  0.5273  0.0272
   81MOL   C26326023   1.652   2.503   7.231 -0.5704  0.5897  1.0788
   81MOL   C26426024   1.750   2.396   7.027  0.2303  0.5603  0.0047
   81MOL   H26526025   1.599   2.886   6.921 -1.0385  0.4761  0.2032
   81MOL   H26626026   1.744   2.875   7.010  0.1912  0.0950 -1.9125
   81MOL   H26726027   1.604   2.750   7.186 -0.3168 -2.9048  0.5512
   81MOL   H26826028   1.690   2.582   7.296  1.4393  1.0481 -0.6040
   81MOL   H26926029   1.544   2.506   7.248 -0.3572  0.6954  2.5390
   81MOL   H27026030   1.687   2.413   7.282  0.0745 -0.7829 -1.7168
   81MOL   H27126031   1.810   2.437   6.945 -0.3908  1.5543  0.0347
   81MOL   H27226032   1.675   2.327   6.989  0.8687 -0.5686  0.7514
   81MOL   H27326033   1.805   2.336   7.099 -0.7088 -1.0081 -0.5709
   81MOL   C27426034   1.432   2.711   7.063 -0.2557 -0.2330  0.1434
   81MOL   C27526035   1.356   2.733   6.924 -0.1980  0.0237  0.4024
   81MOL   C27626036   1.335   2.882   6.885  0.5807  0.4260  0.6367
   81MOL   O27726037   1.309   2.958   6.977  0.1766  0.5348 -0.1384
   81MOL   N27826038   1.343   2.932   6.758  0.0054 -0.6366 -0.1490
   81MOL   C27926039   1.297   3.062   6.725 -0.2887 -0.2125  0.2562
   81MOL   C28026040   1.422   2.855   6.657  0.5135 -0.6548  0.1933
   81MOL   H28126041   1.407   2.612   7.102  1.6159 -0.2796  1.2848
   81MOL   H28226042   1.385   2.775   7.138 -1.7354  0.1081 -1.0654
   81MOL   H28326043   1.422   2.685   6.851  2.1606  0.3229  2.2701
   81MOL   H28426044   1.379   3.133   6.737 -0.4674  0.2039 -0.8737
   81MOL   H28526045   1.281   3.070   6.617 -0.1178  0.4453  0.2748
   81MOL   H28626046   1.209   3.093   6.782 -0.7415 -0.7502 -0.1458
   81MOL   H28726047   1.353   2.781   6.615 -2.4767  0.7824  2.4408
   81MOL   H28826048   1.517   2.813   6.690  1.2752  1.5715  0.8617
   81MOL   H28926049   1.455   2.925   6.580 -0.4244 -0.2832  0.1179
   81MOL   C29026050   1.221   2.660   6.917  0.3755 -0.1369  0.0747
   81MOL   C29126051   1.233   2.526   6.846  0.5024 -0.1982  0.4608
   81MOL   C29226052   1.234   2.539   6.697  0.1240 -0.1647  0.9426
   81MOL   O29326053   1.129   2.584   6.647 -0.4984 -0.5087  0.2423
   81MOL   N29426054   1.336   2.496   6.623  0.1632 -0.4313 -0.1674
   81MOL   C29526055   1.475   2.482   6.669  0.0939  0.0570 -0.1893
   81MOL   C29626056   1.314   2.495   6.481  0.1739 -0.3147  1.0876
   81MOL   H29726057   1.176   2.647   7.015 -2.2322 -3.4925 -1.4986
   81MOL   H29826058   1.147   2.723   6.869 -0.2198 -0.9466 -0.0680
   81MOL   H29926059   1.316   2.464   6.879  1.3527  1.1077  0.8024
   81MOL   H30026060   1.532   2.422   6.598  0.4978 -1.9173  1.7262
   81MOL   H30126061   1.515   2.583   6.677  1.2574 -0.3375 -0.7712
   81MOL   H30226062   1.472   2.424   6.762 -0.8539  0.9868  0.3679
   81MOL   H30326063   1.411   2.494   6.431 -0.7424  0.3089 -0.7480
   81MOL   H30426064   1.266   2.587   6.445  0.4116 -0.6092 -0.0155
   81MOL   H30526065   1.254   2.418   6.432 -1.2871  1.4952 -0.0482
   81MOL   C30626066   1.118   2.440   6.899 -0.0429 -0.9709 -0.7182
   81MOL   C30726067   0.966   2.485   6.895  0.5158  0.7309  0.4118
   81MOL   C30826068   0.879   2.411   6.995 -0.5139 -0.5095 -0.2523
   81MOL   O30926069   0.935   2.347   7.086  0.3185 -0.5360  0.2992
   81MOL   N31026070   0.741   2.419   6.983  0.1852  0.1764  0.1591
   81MOL   C31126071   0.668   2.521   6.910  0.1058  0.0437 -0.1309
   81MOL   C31226072   0.658   2.328   7.062  0.1459 -0.4106 -0.0288
   81MOL   H31326073   1.123   2.342   6.852 -0.2939 -1.7654  0.8843
   81MOL   H31426074   1.149   2.418   7.001  1.8765 -0.4956 -1.1843
   81MOL   H31526075   0.956   2.591   6.919  2.5273  0.4850  2.5663
   81MOL   H31626076   0.713   2.615   6.942 -4.0265  1.3745  2.1120
   81MOL   H31726077   0.691   2.503   6.805  1.6473  0.6275  0.0955
   81MOL   H31826078   0.564   2.542   6.933 -0.2128 -0.4395 -1.1198
   81MOL   H31926079   0.569   2.299   7.005 -0.7253 -1.1763  1.6581
   81MOL   H32026080   0.634   2.378   7.156 -0.8475  2.6102 -1.8335
   81MOL   H32126081   0.702   2.235   7.097  2.3178  0.3808 -0.6140
   81MOL   H32226082   0.930   2.470   6.793 -0.2915  1.0705  0.6509
   82MOL     C126083   0.216   1.732   7.820  0.6189 -0.2984  0.0554
   82MOL     C226084   0.299   1.770   7.700  0.7494 -0.7680  0.6738
   82MOL     C326085   0.229   1.883   7.613 -0.1154 -0.3958 -1.0632
   82MOL     O426086   0.116   1.857   7.573  0.2139  0.7120 -0.1616
   82MOL     N526087   0.293   2.005   7.598 -0.3891 -0.6687 -0.3330
   82MOL     C626088   0.421   2.044   7.658  0.2364  0.1332 -0.5568
   82MOL     C726089   0.235   2.108   7.510  0.2014  0.2196  0.3623
   82MOL     H826090   0.123   1.683   7.791 -0.5314  2.6562 -1.5705
   82MOL     H926091   0.191   1.819   0.028  1.2964 -0.3872  0.4593
   82MOL    H1026092   0.397   1.801   7.737  0.1837 -0.7215  2.2090
   82MOL    H1126093   0.426   2.007   7.760 -0.4407  0.4585 -0.4044
   82MOL    H1226094   0.494   1.989   7.599  1.6770  1.5343 -0.1165
   82MOL    H1326095   0.442   2.151   7.662  1.7060 -0.0325 -2.7335
   82MOL    H1426096   0.273   2.209   7.520  0.9470 -0.3834  5.0895
   82MOL    H1526097   0.129   2.119   7.531  0.2914 -2.1197  2.3534
   82MOL    H1626098   0.256   2.067   7.411 -0.7765 -0.4599  0.4327
   82MOL    H1726099   0.284   1.661   0.013 -1.1143 -2.9133 -1.2715
   82MOL    C1826100   0.322   1.646   7.606  0.1117 -0.1359 -0.0736
   82MOL    C1926101   0.450   1.635   7.520  0.2533 -0.3948 -0.3358
   82MOL    C2026102   0.574   1.650   7.606  0.2397 -0.7049  1.0624
   82MOL    O2126103   0.632   1.754   7.598  0.2186  0.3529  0.0904
   82MOL    N2226104   0.610   1.552   7.689 -1.3344  0.2042  0.5367
   82MOL    C2326105   0.546   1.417   7.688  0.1368  0.2869 -0.0376
   82MOL    C2426106   0.720   1.579   7.785  0.5346  0.0843  0.9785
   82MOL    H2526107   0.323   1.557   7.669 -1.2698 -1.8082 -2.3386
   82MOL    H2626108   0.239   1.618   7.541 -0.4534  0.2067  0.4871
   82MOL    H2726109   0.447   1.536   7.474  2.5366 -0.6529  0.0062
   82MOL    H2826110   0.510   1.380   7.592 -0.3147  1.8185 -0.4824
   82MOL    H2926111   0.624   1.348   7.718  1.7375  2.4390  0.8713
   82MOL    H3026112   0.466   1.403   7.761 -0.9153  0.4952 -1.1304
   82MOL    H3126113   0.801   1.644   7.753 -0.9987  1.6814  0.2211
   82MOL    H3226114   0.762   1.486   7.821 -0.6724 -1.4220 -1.4115
   82MOL    H3326115   0.673   1.627   0.018  0.2434  0.2130  0.7517
   82MOL    C3426116   0.455   1.725   7.395  0.4761  0.6532 -0.6564
   82MOL    C3526117   0.350   1.709   7.280 -0.0761 -0.2232  0.8553
   82MOL    C3626118   0.341   1.565   7.225  0.4167 -0.2668  0.0325
   82MOL    O3726119   0.449   1.514   7.189  0.6952 -0.0916 -0.3018
   82MOL    N3826120   0.228   1.490   7.222  0.0158  0.4347 -0.4108
   82MOL    C3926121   0.224   1.356   7.157 -0.4515 -0.0839  0.1754
   82MOL    C4026122   0.108   1.533   7.299  0.8138  0.0768 -0.0196
   82MOL    H4126123   0.475   1.831   7.412 -0.5118  0.6912  0.2763
   82MOL    H4226124   0.547   1.707   7.340  2.2304 -1.1297  2.7543
   82MOL    H4326125   0.254   1.725   7.329 -2.3276 -1.6114 -2.8914
   82MOL    H4426126   0.151   1.351   7.076 -0.2940  1.0194 -0.0395
   82MOL    H4526127   0.309   1.324   7.098 -1.2039 -0.0160 -0.9566
   82MOL    H4626128   0.201   1.270   7.220 -0.1842 -1.9839 -2.2279
   82MOL    H4726129   0.121   1.521   7.407 -1.3138  1.9947  0.4918
   82MOL    H4826130   0.035   1.457   7.272  1.9464 -0.9369 -0.2340
   82MOL    H4926131   0.071   1.630   7.265 -1.5380 -0.7382  0.1144
   82MOL    C5026132   0.374   1.816   7.166 -0.4137  0.0313 -0.1215
   82MOL    C5126133   0.275   1.815   7.046  0.4141  1.3986  0.2316
   82MOL    C5226134   0.303   1.723   6.933 -0.1915 -0.3279  0.2587
   82MOL    O5326135   0.411   1.741   6.877 -0.3869 -0.4425 -0.1642
   82MOL    N5426136   0.217   1.637   6.882 -0.5832  0.4186  0.4645
   82MOL    C5526137   0.074   1.626   6.922 -0.1092  0.3430 -0.5161
   82MOL    C5626138   0.254   1.545   6.781 -0.0797 -0.1852 -0.6194
   82MOL    H5726139   0.358   1.908   7.222  0.8394  0.3842 -0.3383
   82MOL    H5826140   0.479   1.816   7.140 -0.3379  2.0206  0.1054
   82MOL    H5926141   0.182   1.784   7.094  0.8740  2.2806  1.7326
   82MOL    H6026142   0.052   1.625   7.029 -1.2745  0.1960 -0.7553
   82MOL    H6126143   0.014   1.704   6.877 -0.4612  1.6310  2.0651
   82MOL    H6226144   0.016   1.547   6.874 -0.3441 -0.0397  0.3735
   82MOL    H6326145   0.306   1.463   6.829 -2.9612 -1.1108  1.0257
   82MOL    H6426146   0.311   1.588   6.698 -2.3797  1.3879 -1.4400
   82MOL    H6526147   0.166   1.499   6.734 -0.0073  0.2091 -1.1486
   82MOL    C6626148   0.250   1.950   6.990 -0.4487  0.5339 -0.1086
   82MOL    C6726149   0.165   2.048   7.068 -0.8031  0.3354 -0.1309
   82MOL    C6826150   0.015   2.029   7.040 -0.0383 -0.9765  0.0860
   82MOL    O6926151   7.832   2.049   6.925  0.1150 -0.1644 -0.1894
   82MOL    N7026152   7.777   2.006   7.137 -0.7587 -0.0433 -0.2248
   82MOL    C7126153   7.634   2.009   7.124 -0.1423  0.1166  0.5772
   82MOL    C7226154   7.811   1.951   7.263 -0.2843 -0.0091  0.5660
   82MOL    H7326155   0.350   1.994   6.984 -0.7403  1.2910  0.5568
   82MOL    H7426156   0.214   1.953   6.887  3.1956  1.0250 -1.4554
   82MOL    H7526157   0.188   2.033   7.174  0.7678 -2.7166 -0.8414
   82MOL    H7626158   7.588   1.910   7.132 -0.5967  0.4344  1.8638
   82MOL    H7726159   7.580   2.073   7.194  0.1255  1.8957 -0.8030
   82MOL    H7826160   7.601   2.055   7.031  0.4723 -0.2197  0.1877
   82MOL    H7926161   0.009   2.032   7.314 -0.0274  0.4398 -0.3894
   82MOL    H8026162   0.008   1.858   7.235  0.4337  0.9601 -1.4684
   82MOL    H8126163   7.722   1.927   7.321 -0.1928  0.5878  0.9488
   82MOL    C8226164   0.218   2.194   7.035 -0.5581  0.2219 -0.0086
   82MOL    C8326165   0.133   2.325   7.062 -0.4825 -0.2973 -0.3213
   82MOL    C8426166   0.200   2.450   7.011  0.5930 -0.3987  0.3434
   82MOL    O8526167   0.295   2.490   7.072  0.3875 -0.3646 -0.1068
   82MOL    N8626168   0.155   2.515   6.901 -0.3170  0.3342  0.7824
   82MOL    C8726169   0.220   2.637   6.850 -0.3120 -0.1614 -0.8170
   82MOL    C8826170   0.038   2.473   6.825  0.0815  0.3981 -0.0210
   82MOL    H8926171   0.313   2.208   7.086 -0.6013 -2.9565  1.0206
   82MOL    H9026172   0.239   2.200   6.928  1.0750  0.7288  0.3228
   82MOL    H9126173   0.039   2.311   7.010 -1.2169 -0.7213  1.1088
   82MOL    H9226174   0.316   2.658   6.897 -0.7605 -0.4185  0.2323
   82MOL    H9326175   0.241   2.627   6.744 -0.5269  0.6772 -0.9476
   82MOL    H9426176   0.169   2.731   6.871 -0.7487 -0.4247 -0.7054
   82MOL    H9526177   0.023   2.540   6.739  1.0998 -1.2814 -1.5369
   82MOL    H9626178   7.798   2.468   6.882  0.3483 -2.1754  0.2564
   82MOL    H9726179   0.044   2.376   6.776  0.9911 -0.0346  0.9574
   82MOL    C9826180   0.094   2.344   7.207 -0.5426 -0.1577 -0.4004
   82MOL    C9926181   7.848   2.452   7.258 -0.3595 -0.0232 -0.3633
   82MOL   C10026182   7.837   2.457   7.413  0.0869 -0.4921 -0.1703
   82MOL   O10126183   7.794   2.359   7.470  0.2656 -0.4509 -0.0267
   82MOL   N10226184   0.013   2.569   7.482 -0.8256 -0.0649 -0.0013
   82MOL   C10326185   0.091   2.682   7.424 -0.6216  0.6448  0.4451
   82MOL   C10426186   0.010   2.568   7.626  0.2005 -0.3388 -0.6873
   82MOL   H10526187   0.071   2.248   7.254  2.0159  0.0381  1.3901
   82MOL   H10626188   0.183   2.363   7.268 -1.1312 -1.4175  0.8882
   82MOL   H10726189   0.029   2.549   7.222  1.4804 -0.0408  1.2684
   82MOL   H10826190   0.094   2.763   7.496 -0.6287  0.9749  0.0714
   82MOL   H10926191   0.193   2.654   7.395 -0.8989 -1.7661  1.6529
   82MOL   H11026192   0.051   2.719   7.330  0.0790  0.5856  0.1172
   82MOL   H11126193   7.835   2.470   7.664  1.6124 -0.3483  0.3783
   82MOL   H11226194   7.791   2.639   7.665  2.2146  1.4473 -0.1561
   82MOL   H11326195   0.108   2.596   7.663  1.2447 -0.6930 -3.1262
   82MOL   C11426196   7.703   2.417   7.198 -0.1883 -0.0728  0.4492
   82MOL   C11526197   7.578   2.502   7.240 -0.0701  0.3657 -0.5451
   82MOL   C11626198   7.458   2.418   7.188 -0.5894 -0.2702  0.0531
   82MOL   O11726199   7.434   2.418   7.069  0.2534  0.0595  0.0259
   82MOL   N11826200   7.381   2.350   7.276  0.0079 -0.0952 -0.0703
   82MOL   C11926201   7.394   2.353   7.420  0.3809  0.4978  0.8255
   82MOL   C12026202   7.256   2.283   7.235 -0.5900  0.1612 -0.2982
   82MOL   H12126203   7.713   2.424   7.090  1.8047 -1.3318  0.5405
   82MOL   H12226204   7.688   2.311   7.223 -0.3266 -0.3060 -0.6141
   82MOL   H12326205   7.572   2.492   7.348  0.2719 -1.5030 -0.6978
   82MOL   H12426206   7.384   2.453   7.462 -1.9588  0.1010  1.3203
   82MOL   H12526207   7.317   2.292   7.468  0.3085  0.1200  0.2309
   82MOL   H12626208   7.487   2.305   7.452 -1.3913 -2.3700  1.8763
   82MOL   H12726209   7.251   2.261   7.129 -0.4808  0.6375 -0.4020
   82MOL   H12826210   7.184   2.363   7.248  1.0378  1.7097 -0.6230
   82MOL   H12926211   7.224   2.187   7.276 -2.0423  0.6136 -0.3635
   82MOL   C13026212   7.578   2.652   7.188 -0.4495  0.4586 -0.3234
   82MOL   C13126213   7.484   2.752   7.254  0.2480  0.2718 -0.1759
   82MOL   C13226214   7.518   2.788   7.397  0.6539  0.1456 -0.1135
   82MOL   O13326215   7.499   2.705   7.487 -0.1460  0.2007  0.1646
   82MOL   N13426216   7.587   2.901   7.421  0.6752  0.1491  0.6038
   82MOL   C13526217   7.626   2.924   7.559 -0.4072  0.6027  0.0117
   82MOL   C13626218   7.608   3.011   7.331 -0.6685 -0.1041 -0.1449
   82MOL   H13726219   7.677   2.696   7.193 -0.2108  0.0715 -1.5398
   82MOL   H13826220   7.558   2.641   7.081  0.7657 -0.2483 -0.4771
   82MOL   H13926221   7.485   2.842   7.192  0.7368  0.1056 -0.4148
   82MOL   H14026222   7.715   2.865   7.579 -1.9819 -0.9225  2.8011
   82MOL   H14126223   7.652   3.025   7.591  1.9552 -0.0558  0.2557
   82MOL   H14226224   7.544   2.895   7.625  0.4823 -1.2772  0.3057
   82MOL   H14326225   7.629   3.107   7.379 -0.5383 -0.2522  0.0929
   82MOL   H14426226   7.514   3.027   7.279 -2.0192 -0.1054  2.2216
   82MOL   H14526227   7.680   2.990   7.252 -1.7972  1.7594 -1.7167
   82MOL   C14626228   7.341   2.706   7.246 -0.0292 -0.1120 -0.0867
   82MOL   C14726229   7.223   2.818   7.243 -0.6722 -0.0856 -0.3094
   82MOL   C14826230   7.107   2.768   7.333  0.9891  0.4761 -0.0092
   82MOL   O14926231   7.056   2.661   7.303 -0.0014  0.6003  0.1924
   82MOL   N15026232   7.061   2.841   7.440  0.3038  0.4116  0.5837
   82MOL   C15126233   6.940   2.813   7.513  0.0467  0.1092 -0.0719
   82MOL   C15226234   7.124   2.965   7.496  0.2492  0.2185  0.3144
   82MOL   H15326235   7.318   2.642   7.161  0.6491 -0.2988 -0.1326
   82MOL   H15426236   7.321   2.637   7.329 -1.4795  0.1645 -0.2119
   82MOL   H15526237   7.269   2.911   7.277 -2.3555  1.2459 -1.6000
   82MOL   H15626238   6.857   2.843   7.450 -1.1688  0.3317  1.6125
   82MOL   H15726239   6.919   2.706   7.515 -0.0134  0.1046 -0.9623
   82MOL   H15826240   6.930   2.841   7.618  1.8141 -0.4275  0.2629
   82MOL   H15926241   7.116   2.958   7.604 -0.9330 -1.8733  0.1237
   82MOL   H16026242   7.070   3.051   7.456  0.2749 -0.5243 -1.3777
   82MOL   H16126243   7.231   2.971   7.476  0.1324 -1.8692 -1.1699
   82MOL   C16226244   7.177   2.829   7.093  0.0598  0.5810  0.6152
   82MOL   C16326245   7.070   2.934   7.043 -0.5900 -0.8526 -0.1007
   82MOL   C16426246   7.102   3.082   7.072  0.0707 -0.4184 -0.6289
   82MOL   O16526247   7.133   3.121   7.187  0.4031 -0.2018 -0.2470
   82MOL   N16626248   7.119   3.169   6.970 -0.0540  0.2192 -0.1888
   82MOL   C16726249   7.077   3.141   6.833  0.3893  0.5861  0.2610
   82MOL   C16826250   7.176   3.305   6.983  0.3314 -0.3198 -0.4799
   82MOL   H16926251   7.268   2.839   7.034  1.2732 -0.4670  2.2863
   82MOL   H17026252   7.133   2.735   7.059  1.0444  1.2174 -2.6712
   82MOL   H17126253   7.058   2.918   6.936  0.4181  1.0086 -0.5070
   82MOL   H17226254   7.135   3.063   6.783 -1.4450 -0.0267 -0.9507
   82MOL   H17326255   6.972   3.111   6.834 -0.0669  2.0690 -1.1822
   82MOL   H17426256   7.084   3.226   6.765  1.5055  1.0054  0.8899
   82MOL   H17526257   7.244   3.349   6.910 -0.3446  0.9667 -0.3398
   82MOL   H17626258   7.227   3.321   7.078 -1.1484  0.2246  0.2365
   82MOL   H17726259   7.099   3.381   6.992  1.5323  0.5982  2.5531
   82MOL   C17826260   6.928   2.905   7.100 -0.5241  0.0438  0.1092
   82MOL   C17926261   6.861   2.772   7.047  0.0125  1.0200  1.1169
   82MOL   C18026262   6.834   2.760   6.895 -0.5562  0.0045 -0.1381
   82MOL   O18126263   6.775   2.861   6.849  0.3122 -0.2797  0.5267
   82MOL   N18226264   6.878   2.653   6.826  0.1489  0.4328 -0.2299
   82MOL   C18326265   6.852   2.651   6.679 -0.7746 -0.2826 -0.4184
   82MOL   C18426266   6.950   2.545   6.888 -0.5402 -0.3815 -0.7505
   82MOL   H18526267   6.911   2.918   7.207 -2.2451  0.8312 -0.2424
   82MOL   H18626268   6.862   2.986   7.068 -2.1402 -0.9724  0.7999
   82MOL   H18726269   6.930   2.692   7.077  1.8763  2.3650  0.4969
   82MOL   H18826270   6.748   2.676   6.655 -0.1063  0.9135 -2.1243
   82MOL   H18926271   6.921   2.716   6.626  0.2819 -1.9137 -1.0563
   82MOL   H19026272   6.871   2.554   6.634  3.6979  1.0107 -1.5411
   82MOL   H19126273   6.895   2.516   6.977  1.8664 -2.4729  0.1140
   82MOL   H19226274   7.054   2.569   6.911 -1.0117  0.0013  1.0522
   82MOL   H19326275   6.951   2.449   6.837 -1.6132 -0.5647 -0.4147
   82MOL   C19426276   6.730   2.739   7.131  0.2628 -0.7325  0.3727
   82MOL   C19526277   6.621   2.845   7.172  0.2418 -0.0902  0.0568
   82MOL   C19626278   6.616   2.870   7.324  0.7359 -0.4253  0.7553
   82MOL   O19726279   6.595   2.768   7.394  0.0842  0.6550  0.1323
   82MOL   N19826280   6.626   2.998   7.373 -0.3642 -0.2569  0.2177
   82MOL   C19926281   6.658   3.117   7.302  0.3703  0.5625 -0.4459
   82MOL   C20026282   6.626   3.014   7.514 -0.2381 -0.1763 -0.3054
   82MOL   H20126283   6.680   2.658   7.079  1.1842 -0.3975 -1.0606
   82MOL   H20226284   6.770   2.684   7.216  1.1079  1.3452  1.3538
   82MOL   H20326285   6.642   2.937   7.118  0.5680 -0.2875 -0.1532
   82MOL   H20426286   6.701   3.193   7.367  2.9065 -1.7660  0.7193
   82MOL   H20526287   6.727   3.105   7.218 -2.2676  0.7291 -2.7285
   82MOL   H20626288   6.568   3.163   7.260  0.1111 -0.2886 -0.8317
   82MOL   H20726289   6.716   2.987   7.569  0.3155 -0.8231 -1.5050
   82MOL   H20826290   6.547   2.962   7.567  0.0651 -1.7186 -1.3099
   82MOL   H20926291   6.606   3.114   7.553 -1.8654 -0.3096 -0.7758
   82MOL   C21026292   6.476   2.803   7.126 -0.0803  0.1906  0.8037
   82MOL   C21126293   6.432   2.826   6.980 -0.1294  0.0028  0.1536
   82MOL   C21226294   6.440   2.979   6.950 -0.0087  0.0839 -0.0373
   82MOL   O21326295   6.417   3.066   7.035 -0.1561  0.0514  0.0500
   82MOL   N21426296   6.458   3.015   6.823 -0.8007  0.4076 -0.2569
   82MOL   C21526297   6.464   2.933   6.704 -0.0303 -0.0972  0.7619
   82MOL   C21626298   6.479   3.164   6.793  0.1049  0.4636  0.0562
   82MOL   H21726299   6.467   2.695   7.133  1.6625 -0.0754 -0.6330
   82MOL   H21826300   6.407   2.850   7.196 -2.6695 -1.8289 -0.2965
   82MOL   H21926301   6.509   2.771   6.925 -0.4297  0.0301 -0.2922
   82MOL   H22026302   6.401   2.963   6.620  2.2975 -0.5851 -1.2261
   82MOL   H22126303   6.567   2.924   6.670 -0.4830 -1.6778 -0.2224
   82MOL   H22226304   6.430   2.833   6.730  0.7813  0.4452  4.1829
   82MOL   H22326305   6.396   3.198   6.731  0.2697 -0.6812 -0.8001
   82MOL   H22426306   6.575   3.183   6.746 -1.4769  2.1430 -2.6085
   82MOL   H22526307   6.468   3.235   6.875 -0.4845 -0.4644  0.7946
   82MOL   C22626308   6.297   2.765   6.957 -0.3439  0.0902 -0.1722
   82MOL   C22726309   6.287   2.615   6.935  0.0628 -0.8522  0.1810
   82MOL   C22826310   6.359   2.572   6.807  0.1701 -0.7528 -0.0559
   82MOL   O22926311   6.320   2.607   6.697  0.7741 -0.8887  0.2781
   82MOL   N23026312   6.464   2.487   6.810  0.3846 -0.1925  0.4587
   82MOL   C23126313   6.544   2.452   6.928 -0.4652  0.1089  0.2226
   82MOL   C23226314   6.518   2.426   6.688 -0.0337  0.1948 -0.1720
   82MOL   H23326315   6.228   2.797   7.035  0.1104  0.3900  0.1075
   82MOL   H23426316   6.262   2.818   6.868  2.0343 -1.9706 -2.4485
   82MOL   H23526317   6.323   2.571   7.028  1.4560 -0.7403 -0.3077
   82MOL   H23626318   6.531   2.523   7.009  2.2478  2.0516 -0.9692
   82MOL   H23726319   6.514   2.357   6.975 -2.6346  0.0407 -1.2255
   82MOL   H23826320   6.649   2.447   6.901 -0.1470 -1.4785  1.6501
   82MOL   H23926321   6.546   2.505   6.619  0.0769  0.4782  0.1923
   82MOL   H24026322   6.453   2.350   6.644 -1.6748  1.6130 -0.2399
   82MOL   H24126323   6.607   2.364   6.703  0.0296  0.7321  1.9328
   82MOL   C24226324   6.137   2.569   6.922 -0.6739 -0.2240  0.9117
   82MOL   C24326325   6.097   2.427   6.870  0.6178 -0.4237 -0.3566
   82MOL   C24426326   5.937   2.421   6.852 -0.2280  0.6943  0.8628
   82MOL   O24526327   5.869   2.432   6.951 -0.2493 -0.4931  0.0991
   82MOL   N24626328   5.880   2.409   6.726  0.2551  0.0848  0.2359
   82MOL   C24726329   5.737   2.406   6.709 -0.1609  0.9890 -0.2122
   82MOL   C24826330   5.947   2.355   6.606 -0.1112  0.2311  0.0800
   82MOL   H24926331   6.081   2.594   7.012 -1.5444  1.2731 -0.0227
   82MOL   H25026332   6.104   2.633   6.840 -0.5299 -0.5608  0.5928
   82MOL   H25126333   6.139   2.404   6.772  1.4104 -0.3951 -0.0254
   82MOL   H25226334   5.686   2.390   6.804  1.6589 -1.3868  0.3874
   82MOL   H25326335   5.695   2.501   6.675  0.2795  1.4455  0.5187
   82MOL   H25426336   5.698   2.324   6.649 -0.9515  0.3513  1.1580
   82MOL   H25526337   5.950   2.246   6.603 -0.3702  0.2499 -1.5977
   82MOL   H25626338   6.045   2.398   6.585  0.4670 -0.0352  2.1150
   82MOL   H25726339   5.893   2.391   6.518 -1.0336 -1.8141 -0.2241
   82MOL   C25826340   6.150   2.304   6.959  0.0028 -0.5404  0.1548
   82MOL   C25926341   6.094   2.277   7.103  0.1671  0.2140 -0.7038
   82MOL   C26026342   6.138   2.386   7.203 -0.2041  0.0591 -0.2918
   82MOL   O26126343   6.259   2.401   7.216  0.3989 -0.1415 -0.2122
   82MOL   N26226344   6.053   2.477   7.260 -0.1594 -0.4027  0.1751
   82MOL   C26326345   6.096   2.606   7.288 -0.3168  0.4671  0.0420
   82MOL   C26426346   5.919   2.438   7.297  0.8663 -0.2109  0.1994
   82MOL   H26526347   6.125   2.220   6.895  0.3400 -1.1543  0.8188
   82MOL   H26626348   6.257   2.324   6.963 -0.2119  1.1818 -1.7802
   82MOL   H26726349   5.985   2.287   7.098  0.2652  0.3618 -3.0346
   82MOL   H26826350   6.036   2.691   7.253  0.3569  1.3321  0.9567
   82MOL   H26926351   6.113   2.615   7.395 -0.6269 -0.8887  0.2060
   82MOL   H27026352   6.193   2.636   7.249  1.0891  0.3472  3.2691
   82MOL   H27126353   5.881   2.503   7.375 -1.1904 -0.4913 -0.5251
   82MOL   H27226354   5.907   2.338   7.339  2.8195 -0.5286  0.0506
   82MOL   H27326355   5.860   2.445   7.205 -0.7861  1.6320  1.3738
   82MOL   C27426356   6.145   2.139   7.136 -0.6222 -0.4316 -0.1943
   82MOL   C27526357   6.092   2.074   7.273 -0.2304  0.3409 -0.5754
   82MOL   C27626358   6.183   1.954   7.318  0.4271 -0.5595  0.8409
   82MOL   O27726359   6.183   1.858   7.240 -0.1905 -0.1704  0.2904
   82MOL   N27826360   6.251   1.946   7.433 -0.4387  0.4338 -0.0733
   82MOL   C27926361   6.290   1.815   7.495 -0.0670 -0.9267  0.8296
   82MOL   C28026362   6.293   2.066   7.507 -0.4628 -0.5194  0.2207
   82MOL   H28126363   6.117   2.071   7.056 -1.4945  0.3732 -0.5831
   82MOL   H28226364   6.254   2.140   7.130 -0.4770  0.5252  1.9785
   82MOL   H28326365   6.103   2.149   7.351 -1.0334  0.0940 -0.2217
   82MOL   H28426366   6.192   1.773   7.517 -1.2983  1.2252 -0.3081
   82MOL   H28526367   6.351   1.759   7.424  0.4100 -1.8689  1.9817
   82MOL   H28626368   6.343   1.828   7.589 -3.0723  2.0039  2.2487
   82MOL   H28726369   6.213   2.086   7.578  0.3449  2.8255  0.2755
   82MOL   H28826370   6.313   2.153   7.445 -0.3180 -0.7345 -0.0389
   82MOL   H28926371   6.382   2.055   7.569  0.2025  0.3155 -0.5929
   82MOL   C29026372   5.946   2.025   7.252  0.6069  0.1094 -0.1315
   82MOL   C29126373   5.871   1.951   7.364  0.4079  0.5548 -0.2654
   82MOL   C29226374   5.747   1.872   7.315  0.4851  0.2058 -0.0039
   82MOL   O29326375   5.649   1.940   7.285  0.5054 -0.2469 -0.9681
   82MOL   N29426376   5.749   1.737   7.307  0.4635 -0.6113 -0.1657
   82MOL   C29526377   5.630   1.667   7.260 -0.0974 -0.2172 -0.6664
   82MOL   C29626378   5.853   1.645   7.342 -0.3478 -0.4667  0.3091
   82MOL   H29726379   5.875   2.105   7.232  1.4783  1.9815  3.8223
   82MOL   H29826380   5.940   1.974   7.156  0.5295  2.0099 -1.1549
   82MOL   H29926381   5.944   1.877   7.399  0.9241  0.7614 -0.9089
   82MOL   H30026382   5.645   1.581   7.194 -2.5561  0.1364 -1.7260
   82MOL   H30126383   5.568   1.646   7.346 -0.4025  2.2696 -0.2280
   82MOL   H30226384   5.567   1.733   7.200 -0.1540 -0.0962 -0.4747
   82MOL   H30326385   5.950   1.679   7.306 -0.3913  1.4728  1.9342
   82MOL   H30426386   5.835   1.551   7.290 -2.6576  0.8915 -1.4229
   82MOL   H30526387   5.876   1.630   7.448  1.8854 -1.4801 -0.2837
   82MOL   C30626388   5.847   2.039   7.490  0.3147 -0.1483 -0.3627
   82MOL   C30726389   5.757   1.969   7.606  0.5502  0.1185  0.3459
   82MOL   C30826390   5.806   1.831   7.658  0.1756 -0.3078 -0.2443
   82MOL   O30926391   5.918   1.800   7.636  0.0413 -0.4437  0.2840
   82MOL   N31026392   5.722   1.749   7.727  0.6490  0.2414 -0.3543
   82MOL   C31126393   5.582   1.793   7.758 -0.3199 -0.6475 -0.6561
   82MOL   C31226394   5.763   1.623   7.790 -0.3422 -0.1591  0.1631
   82MOL   H31326395   5.944   2.057   7.536 -0.4344 -0.7028  1.4873
   82MOL   H31426396   5.802   2.132   7.455 -1.4753 -0.2404  1.6442
   82MOL   H31526397   5.747   2.029   7.697  1.2837 -0.8403  1.0660
   82MOL   H31626398   5.526   1.786   7.665 -0.6469 -2.0513 -0.3603
   82MOL   H31726399   5.540   1.712   7.817  0.2297 -0.5758 -0.1557
   82MOL   H31826400   5.577   1.891   7.805  1.4951 -1.7494  1.9938
   82MOL   H31926401   5.863   1.590   7.760 -0.8711 -1.2043 -0.4812
   82MOL   H32026402   5.689   1.546   7.768 -0.3197  0.1932 -1.2111
   82MOL   H32126403   5.775   1.638   0.044  1.9448  1.2659 -0.2434
   82MOL   H32226404   5.654   1.963   7.574  1.5764  1.7677 -3.4831
   83MOL     C126405   4.181   3.899   3.190  0.0300  0.4146  0.3600
   83MOL     C226406   4.222   4.043   3.162  0.9107 -0.1148  0.0961
   83MOL     C326407   4.223   4.082   3.011 -0.0621  0.3506 -0.0696
   83MOL     O426408   4.288   4.014   2.933  1.1009  0.0961  0.0836
   83MOL     N526409   4.157   4.188   2.969  0.0627 -0.2642  0.1536
   83MOL     C626410   4.141   4.213   2.827 -0.0449  0.3005  0.4558
   83MOL     C726411   4.137   4.304   3.050  0.2998  0.6557 -0.4102
   83MOL     H826412   4.177   3.873   3.296  0.1392 -0.4870  0.1418
   83MOL     H926413   4.259   3.833   3.153  1.0505  0.3232  2.6195
   83MOL    H1026414   4.150   4.109   3.212  0.7918  0.4880 -0.8478
   83MOL    H1126415   4.122   4.121   2.772 -0.6304  0.2145  0.7893
   83MOL    H1226416   4.075   4.294   2.796  1.1819  1.1961  0.1605
   83MOL    H1326417   4.244   4.227   2.795  0.6742 -0.9984  2.1159
   83MOL    H1426418   4.171   4.396   3.001 -1.5186  0.9187 -1.1894
   83MOL    H1526419   4.188   4.300   3.147 -0.2158 -1.0163 -0.1891
   83MOL    H1626420   4.032   4.312   3.078  0.7880  3.1694  0.8313
   83MOL    H1726421   4.085   3.877   3.143  0.7084  0.8208 -1.2395
   83MOL    C1826422   4.359   4.081   3.222  0.6043 -0.1117  0.2676
   83MOL    C1926423   4.367   4.114   3.372 -0.8220  0.2109 -0.6951
   83MOL    C2026424   4.281   4.232   3.421 -0.6340 -0.1031  0.2513
   83MOL    O2126425   4.310   4.343   3.385  0.2159  1.0603  0.7735
   83MOL    N2226426   4.169   4.213   3.496 -0.3821 -0.2897  0.2770
   83MOL    C2326427   4.096   4.330   3.544 -0.3127 -0.2731 -0.3050
   83MOL    C2426428   4.107   4.087   3.533  0.4874  0.7920  0.7593
   83MOL    H2526429   4.430   4.000   3.206 -1.5370 -1.8456 -0.8286
   83MOL    H2626430   4.402   4.168   3.174 -1.5071  1.1523  0.6003
   83MOL    H2726431   4.335   4.021   3.419  1.3444 -0.2753 -0.1114
   83MOL    H2826432   4.016   4.305   3.614 -1.6905  1.2021 -1.3344
   83MOL    H2926433   4.162   4.401   3.593  0.4189 -1.7068  0.8492
   83MOL    H3026434   4.057   4.380   3.456 -1.8517 -0.1691  0.4254
   83MOL    H3126435   4.002   4.103   3.510 -0.0204 -1.5061  1.4133
   83MOL    H3226436   4.100   4.069   3.640  0.0880 -1.3585  0.3809
   83MOL    H3326437   4.141   3.999   3.478 -0.6901  1.7118 -1.5396
   83MOL    C3426438   4.519   4.133   3.410 -0.1006  0.0793 -0.4080
   83MOL    C3526439   4.560   4.118   3.563 -0.9158 -0.0519 -0.8556
   83MOL    C3626440   4.483   4.011   3.638 -0.3028 -0.4683  0.6166
   83MOL    O3726441   4.364   4.026   3.665 -0.8437 -0.2684 -0.3169
   83MOL    N3826442   4.551   3.901   3.669  0.4691 -0.2851 -0.3872
   83MOL    C3926443   4.477   3.789   3.736 -0.0501  0.1270  0.2673
   83MOL    C4026444   4.683   3.866   3.616 -0.0456 -1.0643  0.4816
   83MOL    H4126445   4.572   4.058   3.351 -0.4345  0.7784 -1.6193
   83MOL    H4226446   4.544   4.234   3.378 -1.1265  0.6449  0.5441
   83MOL    H4326447   4.668   4.111   3.575 -0.9861  0.3846  0.0483
   83MOL    H4426448   4.530   3.694   3.738  2.6718  1.4005 -4.6682
   83MOL    H4526449   4.459   3.816   3.841  1.0297  1.2330  0.1760
   83MOL    H4626450   4.387   3.768   3.678 -0.2923 -1.2471  1.1273
   83MOL    H4726451   4.684   3.890   3.510 -2.2719 -1.9532  0.2462
   83MOL    H4826452   4.711   3.763   3.639 -1.9580 -0.7846  4.4008
   83MOL    H4926453   4.765   3.917   3.666  0.2665  0.1222 -1.1915
   83MOL    C5026454   4.536   4.252   3.638 -0.2496  0.2035 -0.7550
   83MOL    C5126455   4.572   4.249   3.794  0.0590  0.0104 -0.5069
   83MOL    C5226456   4.532   4.386   3.857 -0.0490 -0.2272 -0.6752
   83MOL    O5326457   4.620   4.471   3.864 -0.5159 -0.2044  0.5598
   83MOL    N5426458   4.405   4.407   3.904  0.0133  0.0908  0.2006
   83MOL    C5526459   4.287   4.320   3.888 -0.3193 -0.1129  0.7052
   83MOL    C5626460   4.365   4.538   3.956  0.7083 -0.2913  0.5509
   83MOL    H5726461   4.594   4.330   3.587 -0.5947  0.0230 -1.4314
   83MOL    H5826462   4.437   4.297   3.643  0.8293  2.8025 -1.6262
   83MOL    H5926463   4.514   4.169   3.841 -1.4788  1.7501  0.5903
   83MOL    H6026464   4.213   4.327   3.968 -0.0479 -0.4804  0.9887
   83MOL    H6126465   4.233   4.352   3.799 -1.3857  0.3645  1.5104
   83MOL    H6226466   4.328   4.220   3.875  0.2685  0.1671  0.4121
   83MOL    H6326467   4.431   4.610   3.908  0.4445 -0.5976 -0.2720
   83MOL    H6426468   4.373   4.537   4.065  0.1210 -2.1825  0.6011
   83MOL    H6526469   4.263   4.568   3.932  0.9836 -0.9985 -1.6475
   83MOL    C6626470   4.723   4.219   3.821  0.8758 -0.5441 -0.7711
   83MOL    C6726471   4.757   4.203   3.972 -0.4555 -0.2589  0.3514
   83MOL    C6826472   4.908   4.217   3.999  0.0153  0.0841 -0.2039
   83MOL    O6926473   4.984   4.132   3.953  0.0462  0.0157  0.1499
   83MOL    N7026474   4.962   4.327   4.050  0.1556 -0.7780 -0.0740
   83MOL    C7126475   4.883   4.441   4.110 -0.3768  0.1364  0.7626
   83MOL    C7226476   5.111   4.358   4.026 -0.1756  0.4835 -0.2254
   83MOL    H7326477   4.758   4.138   3.756  0.4243 -1.4218  0.0583
   83MOL    H7426478   4.786   4.294   3.773 -0.9356  1.4583 -0.0990
   83MOL    H7526479   4.707   4.282   4.028 -0.4937 -1.1247  1.5523
   83MOL    H7626480   4.797   4.410   4.168 -0.9661 -0.4383 -0.3934
   83MOL    H7726481   4.936   4.505   4.180 -1.7876  0.1335  1.8624
   83MOL    H7826482   4.838   4.514   4.043 -1.0017 -0.2698  0.7355
   83MOL    H7926483   5.123   4.400   3.926  0.2881 -0.5698 -0.6173
   83MOL    H8026484   5.164   4.264   4.013 -0.5166  0.4022 -1.0897
   83MOL    H8126485   5.156   4.431   4.094  2.7502 -2.2395  0.8935
   83MOL    C8226486   4.698   4.070   4.027 -0.1208 -0.2495  0.2032
   83MOL    C8326487   4.579   4.079   4.125  0.6488 -0.3695 -0.7024
   83MOL    C8426488   4.625   4.139   4.253  0.5923 -0.8576 -0.1109
   83MOL    O8526489   4.718   4.086   4.312 -0.5104  0.0807 -0.2115
   83MOL    N8626490   4.566   4.247   4.312 -0.2578 -1.0083 -0.1235
   83MOL    C8726491   4.638   4.312   4.427 -0.1145  0.0601  0.3286
   83MOL    C8826492   4.457   4.321   4.255 -0.7290  0.4135  0.0271
   83MOL    H8926493   4.674   4.016   3.936  1.7258  0.2256 -0.5756
   83MOL    H9026494   4.777   4.009   4.070 -0.8763 -0.3567  1.4792
   83MOL    H9126495   4.498   4.137   4.078 -1.1160 -2.8021 -0.7481
   83MOL    H9226496   4.629   4.243   4.511 -2.5571 -1.5631 -1.1661
   83MOL    H9326497   4.740   4.340   4.402  0.4797 -1.6097  0.8357
   83MOL    H9426498   4.588   4.400   4.466  0.5873  0.9475 -0.7598
   83MOL    H9526499   4.460   4.341   4.148 -1.1470  1.3970  0.1902
   83MOL    H9626500   4.454   4.420   4.300  0.4579  0.5965 -0.2779
   83MOL    H9726501   4.363   4.281   4.295 -0.2229  0.1088  0.9426
   83MOL    C9826502   4.538   3.926   4.149 -0.1379  0.1647 -0.3791
   83MOL    C9926503   4.403   3.904   4.214 -0.4785 -0.1713 -0.4902
   83MOL   C10026504   4.287   3.953   4.124 -0.3515  0.1068  0.7572
   83MOL   O10126505   4.259   4.073   4.135 -0.1766 -0.4013  0.7019
   83MOL   N10226506   4.233   3.877   4.025  0.4514 -0.9697 -0.1439
   83MOL   C10326507   4.230   3.732   4.024 -0.0558 -0.2204 -0.3400
   83MOL   C10426508   4.170   3.939   3.914 -0.3309 -0.0510  0.6102
   83MOL   H10526509   4.529   3.876   4.053 -2.2430 -0.6611  0.2132
   83MOL   H10626510   4.615   3.873   4.206  1.6604  2.1285 -0.9229
   83MOL   H10726511   4.389   3.797   4.199  2.2694 -0.6249 -0.1948
   83MOL   H10826512   4.158   3.691   3.953 -0.9937 -1.1652  1.1145
   83MOL   H10926513   4.330   3.710   3.987  0.5802  0.8208  0.7236
   83MOL   H11026514   4.208   3.685   4.120 -1.6646  0.6998 -0.2366
   83MOL   H11126515   4.203   3.892   3.821 -1.2777  1.0637 -0.3030
   83MOL   H11226516   4.188   4.044   3.896  2.7908 -0.6649 -0.1338
   83MOL   H11326517   4.064   3.916   3.907 -0.6197  0.6612  2.5039
   83MOL   C11426518   4.385   3.939   4.361  0.1576  0.3029  0.6559
   83MOL   C11526519   4.475   3.864   4.470  0.0592  0.1926  0.4746
   83MOL   C11626520   4.411   3.726   4.489  0.1191 -0.4034  0.1136
   83MOL   O11726521   4.308   3.717   4.558 -0.8903  0.2804 -0.1345
   83MOL   N11826522   4.471   3.616   4.432  0.6265  0.1402 -1.0772
   83MOL   C11926523   4.614   3.608   4.412  0.3679 -0.0988  0.4203
   83MOL   C12026524   4.398   3.485   4.441  0.6788 -0.1592  0.0466
   83MOL   H12126525   4.393   4.047   4.374 -1.2149  0.2342  2.2666
   83MOL   H12226526   4.282   3.926   4.394 -0.6000  0.6211 -1.5153
   83MOL   H12326527   4.579   3.857   4.436 -0.2231  0.7640 -0.5210
   83MOL   H12426528   4.632   3.656   4.315 -2.4419  0.2558  0.0324
   83MOL   H12526529   4.674   3.656   4.489  0.5170  1.6170 -0.7426
   83MOL   H12626530   4.655   3.507   4.403  1.9599  0.5620  0.0781
   83MOL   H12726531   4.289   3.483   4.438  0.7074 -1.8358 -0.5687
   83MOL   H12826532   4.418   3.434   4.536 -1.2500  1.7358  1.5444
   83MOL   H12926533   4.434   3.413   4.368  1.2298  3.0932 -2.9894
   83MOL   C13026534   4.479   3.949   4.601  0.1559  0.6279  0.4581
   83MOL   C13126535   4.554   3.890   4.723 -0.7620 -0.4496  0.3688
   83MOL   C13226536   4.464   3.817   4.832 -0.5865 -0.3596  0.2534
   83MOL   O13326537   4.384   3.892   4.893 -0.7893  0.5586 -0.1394
   83MOL   N13426538   4.492   3.688   4.851 -0.3561  0.2567  0.0677
   83MOL   C13526539   4.600   3.608   4.791 -0.0451  0.1182  0.0820
   83MOL   C13626540   4.395   3.608   4.933 -0.0647  0.0408  0.0191
   83MOL   H13726541   4.525   4.045   4.577  2.2084 -0.1961  1.0438
   83MOL   H13826542   4.381   3.981   4.639  1.0109  1.1253  2.2769
   83MOL   H13926543   4.631   3.819   4.691  0.0557  1.4018 -1.9326
   83MOL   H14026544   4.582   3.597   4.684  2.5265  0.8503 -0.4741
   83MOL   H14126545   4.702   3.645   4.801  0.6805 -0.8139 -3.4424
   83MOL   H14226546   4.591   3.503   4.820  0.5211  0.2112  0.5991
   83MOL   H14326547   4.341   3.563   4.849 -2.2217  1.0311  0.8303
   83MOL   H14426548   4.318   3.663   4.987 -0.7023 -0.4250 -0.4079
   83MOL   H14526549   4.449   3.544   5.002  0.2377 -0.7644 -0.9501
   83MOL   C14626550   4.640   4.002   4.792 -0.3121 -0.3797  0.3958
   83MOL   C14726551   4.772   4.032   4.715 -0.4418 -0.4121 -0.0149
   83MOL   C14826552   4.860   3.907   4.719  0.0891 -0.3729 -0.6763
   83MOL   O14926553   4.872   3.849   4.825 -0.1419 -0.1505  0.3213
   83MOL   N15026554   4.900   3.854   4.604 -0.1968 -0.7460 -0.5353
   83MOL   C15126555   4.953   3.717   4.605  0.5138  0.7429  0.2645
   83MOL   C15226556   4.923   3.924   4.481 -0.4151  0.3332  0.3143
   83MOL   H15326557   4.577   4.091   4.787 -1.7933 -1.3862  0.7401
   83MOL   H15426558   4.647   3.971   4.896 -1.1006  3.7348  1.7724
   83MOL   H15526559   4.731   4.054   4.616  1.5345  1.4944 -0.4479
   83MOL   H15626560   5.040   3.718   4.671  0.6245  1.1189  0.1133
   83MOL   H15726561   4.889   3.639   4.644  0.0261  0.7078 -0.6044
   83MOL   H15826562   4.996   3.687   4.510 -1.4704 -0.9108 -0.1415
   83MOL   H15926563   4.911   4.030   4.500  2.3744  0.6180  0.7901
   83MOL   H16026564   4.837   3.910   4.416 -1.1678 -0.2677  1.4248
   83MOL   H16126565   5.025   3.914   4.442  0.0961 -0.5448  1.8344
   83MOL   C16226566   4.843   4.161   4.763 -0.4575  0.2359 -0.3179
   83MOL   C16326567   4.864   4.170   4.917  0.6369 -0.1539  0.6042
   83MOL   C16426568   4.761   4.262   4.987 -0.3401 -0.2298  0.5988
   83MOL   O16526569   4.744   4.375   4.935  0.4401  0.1439 -0.4943
   83MOL   N16626570   4.698   4.224   5.103 -0.1664 -0.2921 -0.1301
   83MOL   C16726571   4.596   4.306   5.166 -0.6506  0.1801  0.0843
   83MOL   C16826572   4.738   4.112   5.190 -0.3849 -0.4954 -0.1766
   83MOL   H16926573   4.933   4.177   4.703 -1.4724  1.0652 -1.6419
   83MOL   H17026574   4.794   4.251   4.727 -0.1865  0.6010  0.2029
   83MOL   H17126575   4.868   4.072   4.964  1.6588 -1.1463 -1.4549
   83MOL   H17226576   4.516   4.338   5.100 -1.4264 -0.3426  0.7706
   83MOL   H17326577   4.562   4.263   5.261  0.2632  1.1913  0.8886
   83MOL   H17426578   4.647   4.391   5.211 -0.8434 -0.2630  1.1539
   83MOL   H17526579   4.695   4.022   5.147  0.6555 -0.4948 -1.2363
   83MOL   H17626580   4.705   4.122   5.293 -3.2542 -0.5769 -1.0194
   83MOL   H17726581   4.846   4.102   5.180 -0.2771  0.9753 -0.6221
   83MOL   C17826582   5.008   4.231   4.947  0.1568  0.9859 -0.3887
   83MOL   C17926583   5.124   4.123   4.925 -0.2691  0.4134  0.2380
   83MOL   C18026584   5.133   4.024   5.043  0.0669  0.1859  0.0268
   83MOL   O18126585   5.111   4.062   5.161 -0.4134  0.9762 -0.8398
   83MOL   N18226586   5.159   3.892   5.018  0.0905  0.1913 -0.1167
   83MOL   C18326587   5.208   3.833   4.895  0.5551  0.2138  0.2402
   83MOL   C18426588   5.140   3.796   5.127 -0.1633 -0.3670 -0.2769
   83MOL   H18526589   5.012   4.314   4.877  1.1022  1.4025  0.1558
   83MOL   H18626590   4.997   4.264   5.051  0.6660 -0.8876  0.2801
   83MOL   H18726591   5.093   4.080   4.830 -0.8486  1.2690  0.0337
   83MOL   H18826592   5.141   3.877   4.821 -1.2602 -1.3175  0.9519
   83MOL   H18926593   5.312   3.861   4.879  1.1824 -1.2509  1.6672
   83MOL   H19026594   5.201   3.725   4.892  2.5760 -0.0125  2.6325
   83MOL   H19126595   5.101   3.699   5.095 -0.6625 -0.1633 -0.2902
   83MOL   H19226596   5.064   3.834   5.195 -1.0707 -1.6015 -0.5851
   83MOL   H19326597   5.239   3.783   5.171  0.6735 -0.9947 -2.2970
   83MOL   C19426598   5.257   4.193   4.913 -0.1134 -0.0868 -0.2150
   83MOL   C19526599   5.282   4.277   4.782  0.4884  0.7631  0.0131
   83MOL   C19626600   5.246   4.197   4.654  0.3076  0.0956 -0.0432
   83MOL   O19726601   5.248   4.074   4.654  0.2002  0.6161  0.0103
   83MOL   N19826602   5.190   4.267   4.542  0.2488 -0.1257  0.4652
   83MOL   C19926603   5.117   4.202   4.433  0.1466  0.0965  0.6489
   83MOL   C20026604   5.180   4.409   4.538 -0.0018  0.2642  0.0289
   83MOL   H20126605   5.264   4.262   4.997  2.3488 -0.2297 -0.2692
   83MOL   H20226606   5.341   4.124   4.920  1.6738  1.9023 -1.6045
   83MOL   H20326607   5.211   4.357   4.805  0.5789  1.6912 -2.7196
   83MOL   H20426608   5.009   4.211   4.447  0.1425  1.8500 -0.3935
   83MOL   H20526609   5.139   4.253   4.339 -0.8683 -0.4689  0.0874
   83MOL   H20626610   5.152   4.099   4.419  0.3109  0.3320 -0.8178
   83MOL   H20726611   5.276   4.453   4.566  0.5799 -0.2958 -1.0545
   83MOL   H20826612   5.107   4.439   4.613  1.0695 -0.6420  1.4532
   83MOL   H20926613   5.152   4.454   4.443  2.1408  1.2207 -0.1760
   83MOL   C21026614   5.432   4.329   4.788  0.2871  1.0007 -0.1138
   83MOL   C21126615   5.445   4.477   4.860 -0.0528 -0.0413  0.2912
   83MOL   C21226616   5.380   4.588   4.780  0.4039  0.0862  0.2100
   83MOL   O21326617   5.442   4.605   4.676  0.5550 -0.2400 -0.3026
   83MOL   N21426618   5.265   4.649   4.812 -0.0305  0.5240 -0.3947
   83MOL   C21526619   5.209   4.752   4.724 -0.0367 -0.1735 -0.2326
   83MOL   C21626620   5.208   4.629   4.945  0.1709  0.1265 -0.2239
   83MOL   H21726621   5.485   4.245   4.833 -2.4274 -1.3409 -1.0816
   83MOL   H21826622   5.470   4.333   4.686 -1.1987 -1.4314 -0.8179
   83MOL   H21926623   5.396   4.468   4.957  1.8980 -1.4126  1.1871
   83MOL   H22026624   5.233   4.728   4.621  0.3879 -4.5888  0.7774
   83MOL   H22126625   5.100   4.741   4.724 -0.0015 -0.7777  1.6727
   83MOL   H22226626   5.251   4.849   4.749 -0.7633  0.2608 -0.6642
   83MOL   H22326627   5.122   4.695   4.958  0.1673 -0.1821  1.4617
   83MOL   H22426628   5.290   4.655   5.012 -0.4372 -2.1017  1.4488
   83MOL   H22526629   5.177   4.529   4.973  0.4650  0.5482  1.7497
   83MOL   C22626630   5.597   4.503   4.886  0.4707 -1.2201  0.2758
   83MOL   C22726631   5.674   4.415   4.988 -0.0988  0.2138 -0.1521
   83MOL   C22826632   5.587   4.401   5.114 -0.2100 -0.2090 -0.6169
   83MOL   O22926633   5.582   4.501   5.188 -0.0652  0.3508 -0.0037
   83MOL   N23026634   5.543   4.276   5.145  0.4329  0.2241 -0.0306
   83MOL   C23126635   5.598   4.149   5.092 -0.4400  0.5293 -0.1973
   83MOL   C23226636   5.452   4.261   5.265 -0.8028 -0.4210 -0.2278
   83MOL   H23326637   5.650   4.507   4.791 -2.7746  1.2946 -1.5001
   83MOL   H23426638   5.592   4.601   4.934 -2.2488 -0.9386 -0.5376
   83MOL   H23526639   5.686   4.319   4.938 -0.9844  0.6382 -1.2018
   83MOL   H23626640   5.541   4.065   5.132  1.7861 -1.6072 -1.3282
   83MOL   H23726641   5.629   4.136   4.988 -0.8455 -0.5994 -0.1785
   83MOL   H23826642   5.688   4.134   5.152 -0.8858  0.2120  0.3870
   83MOL   H23926643   5.497   4.221   5.356  1.6850  0.2507 -1.1270
   83MOL   H24026644   5.369   4.191   5.250 -0.3392 -1.1585  0.6138
   83MOL   H24126645   5.406   4.356   5.294 -2.8773 -0.9868 -1.5422
   83MOL   C24226646   5.816   4.478   5.006 -0.4178  0.3895 -0.1631
   83MOL   C24326647   5.911   4.391   5.082  0.2022  0.7398  0.9737
   83MOL   C24426648   5.947   4.452   5.220 -0.7504  0.6083  0.5995
   83MOL   O24526649   6.004   4.563   5.217  0.3034 -0.5793  0.3051
   83MOL   N24626650   5.940   4.386   5.338  1.3330 -0.4512  0.7123
   83MOL   C24726651   6.017   4.430   5.456 -0.2058 -0.3512  0.0994
   83MOL   C24826652   5.867   4.263   5.356 -0.1064 -0.3057 -0.3066
   83MOL   H24926653   5.861   4.510   4.912 -0.6920  0.6994 -0.1926
   83MOL   H25026654   5.793   4.569   5.061 -2.1377  1.4356 -2.5116
   83MOL   H25126655   5.862   4.295   5.098 -2.9747  2.1672  0.1600
   83MOL   H25226656   6.001   4.538   5.466  1.0779 -0.1053 -0.4075
   83MOL   H25326657   5.988   4.377   5.547  0.7274 -2.3490 -0.7409
   83MOL   H25426658   6.124   4.416   5.446 -0.3658 -1.8669  0.4671
   83MOL   H25526659   5.762   4.294   5.359 -0.2121 -0.5061 -1.5974
   83MOL   H25626660   5.891   4.215   5.451 -0.7599  0.1411  0.0892
   83MOL   H25726661   5.892   4.196   5.273  0.2103  0.6303 -0.9694
   83MOL   C25826662   6.034   4.370   4.996 -0.5454 -0.0899 -0.3494
   83MOL   C25926663   6.029   4.271   4.868  0.1951  0.5590 -0.4443
   83MOL   C26026664   5.958   4.140   4.900 -0.3146  0.4010 -0.2239
   83MOL   O26126665   5.988   4.085   5.007 -0.5101  0.4062 -0.3111
   83MOL   N26226666   5.858   4.089   4.829  0.5096  0.3140  0.2960
   83MOL   C26326667   5.800   3.959   4.857  0.1253  0.3334  0.0598
   83MOL   C26426668   5.811   4.152   4.708 -0.1543 -0.1239  0.3430
   83MOL   H26526669   6.080   4.464   4.965 -0.2065 -1.1080 -3.0585
   83MOL   H26626670   6.110   4.335   5.066 -0.8660  2.3780  1.2718
   83MOL   H26726671   5.972   4.327   4.794 -2.4892 -0.5947  0.6779
   83MOL   H26826672   5.783   3.903   4.765 -0.3877 -0.9792  0.9432
   83MOL   H26926673   5.861   3.893   4.918 -0.7720  0.0013  0.5987
   83MOL   H27026674   5.701   3.955   4.903 -0.1264  1.4556 -0.3761
   83MOL   H27126675   5.743   4.233   4.730 -1.5422 -1.3620  0.7063
   83MOL   H27226676   5.750   4.084   4.648  0.2376 -1.1431  1.0767
   83MOL   H27326677   5.891   4.183   4.642 -0.9761  0.9788 -0.1447
   83MOL   C27426678   6.167   4.241   4.790  0.2754 -0.7269 -0.7901
   83MOL   C27526679   6.286   4.170   4.864  0.1227 -0.8539 -0.2316
   83MOL   C27626680   6.351   4.269   4.964  0.4654  0.5156  0.7659
   83MOL   O27726681   6.413   4.365   4.914 -0.0907  0.3472  0.1087
   83MOL   N27826682   6.339   4.255   5.098  0.0675  0.9067 -0.2339
   83MOL   C27926683   6.403   4.355   5.194  0.3985  0.2598  0.5659
   83MOL   C28026684   6.272   4.148   5.164  0.5513 -0.4507 -0.0396
   83MOL   H28126685   6.147   4.190   4.696  1.0578  0.6731 -1.7414
   83MOL   H28226686   6.203   4.340   4.763  0.3473 -0.2918  0.8150
   83MOL   H28326687   6.243   4.085   4.917  0.9390 -0.9677  0.2520
   83MOL   H28426688   6.339   4.362   5.282  2.3578 -0.9921  2.1178
   83MOL   H28526689   6.504   4.335   5.228 -0.5173 -2.5623  1.7226
   83MOL   H28626690   6.393   4.459   5.161 -1.9700 -0.6270 -1.7057
   83MOL   H28726691   6.272   4.052   5.112  2.1303 -1.1444  1.2056
   83MOL   H28826692   6.175   4.169   5.208  0.8188 -0.1289  0.3958
   83MOL   H28926693   6.324   4.120   5.255 -0.8800 -1.4391  0.4751
   83MOL   C29026694   6.390   4.097   4.765  0.5575 -0.2960  0.2206
   83MOL   C29126695   6.354   3.991   4.656  0.3797 -0.1683 -0.4285
   83MOL   C29226696   6.279   3.868   4.717  0.3104  0.2859  0.3417
   83MOL   O29326697   6.340   3.807   4.804  0.5881  0.3314 -0.8593
   83MOL   N29426698   6.157   3.831   4.672  0.2751 -0.1792 -0.0483
   83MOL   C29526699   6.079   3.728   4.745 -0.1404 -0.6392  0.0045
   83MOL   C29626700   6.080   3.897   4.568  0.4564 -0.5878 -0.1876
   83MOL   H29726701   6.435   4.182   4.714  3.9984 -2.1644  0.0042
   83MOL   H29826702   6.462   4.046   4.829  1.3531  0.8911  0.2995
   83MOL   H29926703   6.289   4.045   4.587  0.1962  2.2466  1.5589
   83MOL   H30026704   6.003   3.760   4.815 -3.3207 -2.6042 -2.4335
   83MOL   H30126705   6.021   3.667   4.676  0.3792 -1.3834  0.2067
   83MOL   H30226706   6.150   3.659   4.792  0.3228  0.0268  0.2868
   83MOL   H30326707   5.988   3.843   4.542  0.6298 -1.2866  0.6316
   83MOL   H30426708   6.147   3.912   4.483 -1.6857 -0.9289 -2.0003
   83MOL   H30526709   6.049   3.993   4.610  1.1853 -1.1651  1.7061
   83MOL   C30626710   6.474   3.971   4.571 -0.1229 -0.1177 -0.4406
   83MOL   C30726711   6.445   3.895   4.439  0.8766  0.5645  0.7039
   83MOL   C30826712   6.388   3.984   4.324  0.8248 -0.1947 -0.1403
   83MOL   O30926713   6.360   4.101   4.358 -0.5514 -0.0168 -0.3370
   83MOL   N31026714   6.370   3.936   4.198  0.3254 -0.3654 -0.2113
   83MOL   C31126715   6.322   4.028   4.093  0.1622 -0.2257 -0.0383
   83MOL   C31226716   6.403   3.798   4.155  0.4223  0.1544 -0.0176
   83MOL   H31326717   6.527   4.062   4.544  1.8610 -0.5247  1.9204
   83MOL   H31426718   6.545   3.910   4.626  0.6696  0.7304 -0.5294
   83MOL   H31526719   6.535   3.849   4.397 -0.8068 -0.1605 -2.1975
   83MOL   H31626720   6.404   4.090   4.056 -0.2592 -1.7602 -3.8085
   83MOL   H31726721   6.281   3.980   4.004 -1.0680  0.0772  0.3614
   83MOL   H31826722   6.243   4.093   4.129  0.5693  0.1683  0.1489
   83MOL   H31926723   6.345   3.726   4.213  2.4609 -1.7901 -0.3417
   83MOL   H32026724   6.509   3.788   4.180  0.4532  0.2612 -0.1033
   83MOL   H32126725   6.406   3.781   4.048  0.9204  2.3781 -0.3848
   83MOL   H32226726   6.374   3.814   4.452 -1.3758  2.4985  0.6643
   84MOL     C126727   6.830   1.662   4.220  0.0511 -1.0160  0.5419
   84MOL     C226728   6.772   1.722   4.085 -0.0032 -0.0017 -0.2355
   84MOL     C326729   6.622   1.690   4.066 -0.7538  0.1069  0.3432
   84MOL     O426730   6.583   1.579   4.097  0.5945  0.1166  0.4194
   84MOL     N526731   6.532   1.784   4.023  0.9201 -0.2532  0.6650
   84MOL     C626732   6.398   1.740   3.991  0.0644 -0.7859 -0.0016
   84MOL     C726733   6.550   1.923   4.011  0.6762 -0.3544 -0.3274
   84MOL     H826734   6.758   1.678   4.300 -1.0618 -1.4894 -0.3522
   84MOL     H926735   6.921   1.705   4.262 -1.2186  0.9119  1.3553
   84MOL    H1026736   6.779   1.829   4.100  0.9001 -0.1437  0.3738
   84MOL    H1126737   6.349   1.803   3.918 -0.3117 -0.2054  0.7409
   84MOL    H1226738   6.398   1.640   3.948 -0.2925 -0.6705 -0.2698
   84MOL    H1326739   6.350   1.737   4.090 -1.7244 -1.5120 -0.8603
   84MOL    H1426740   6.589   1.943   3.911 -0.7211 -1.6694 -1.1576
   84MOL    H1526741   6.608   1.975   4.087  0.1367  2.3168 -1.7125
   84MOL    H1626742   6.458   1.979   4.023  0.6123 -0.5046 -0.1014
   84MOL    H1726743   6.847   1.555   4.204  3.3064 -0.8343  2.2589
   84MOL    C1826744   6.855   1.692   3.951  0.1841 -0.0597  0.3386
   84MOL    C1926745   6.980   1.784   3.924 -0.0270  0.1022  0.0262
   84MOL    C2026746   6.953   1.934   3.898  0.8154 -0.2971  0.2976
   84MOL    O2126747   6.872   1.955   3.809  0.3333 -0.4827 -0.6766
   84MOL    N2226748   7.023   2.028   3.965  0.3387 -0.1622 -0.2468
   84MOL    C2326749   7.098   2.004   4.089  0.5136  0.6877 -0.7126
   84MOL    C2426750   7.039   2.158   3.911  0.4832 -0.9652  0.4859
   84MOL    H2526751   6.874   1.584   3.952  0.4664 -0.0332 -1.4608
   84MOL    H2626752   6.785   1.702   3.869  0.8712  1.4265 -0.0834
   84MOL    H2726753   7.040   1.759   4.012 -0.1533 -2.1465 -0.4954
   84MOL    H2826754   7.039   1.971   4.175  1.7550  2.0849  0.7073
   84MOL    H2926755   7.173   1.931   4.058 -0.7514 -0.1126 -1.9457
   84MOL    H3026756   7.151   2.092   4.126 -1.2078  1.5092 -0.1297
   84MOL    H3126757   7.039   2.228   3.994  1.5573 -1.2348  0.7117
   84MOL    H3226758   6.958   2.207   3.856  0.7635  0.0290  0.9611
   84MOL    H3326759   7.122   2.172   3.842 -0.8158  0.5140 -0.8295
   84MOL    C3426760   7.041   1.728   3.788 -0.1963 -0.0847  0.1065
   84MOL    C3526761   7.138   1.614   3.807 -0.4006  0.1943 -0.7401
   84MOL    C3626762   7.278   1.653   3.853 -0.7077  0.1098 -0.4609
   84MOL    O3726763   7.335   1.747   3.796  0.0168  0.1806  0.2073
   84MOL    N3826764   7.342   1.578   3.951 -0.1070 -0.0275  0.2959
   84MOL    C3926765   7.478   1.609   3.989 -0.2497  0.2042  0.2726
   84MOL    C4026766   7.288   1.458   4.007 -0.3179 -0.2821 -0.3276
   84MOL    H4126767   6.961   1.697   3.721  0.1230 -2.0739  0.5956
   84MOL    H4226768   7.092   1.807   3.732 -0.3696  0.2229  0.3831
   84MOL    H4326769   7.086   1.561   3.887 -0.1577  0.4322 -0.4197
   84MOL    H4426770   7.534   1.621   3.897 -1.9379 -0.8018 -0.9103
   84MOL    H4526771   7.478   1.709   4.034  0.1889  1.1210 -1.7211
   84MOL    H4626772   7.528   1.539   4.056 -0.3490 -0.0836  0.0470
   84MOL    H4726773   7.351   1.412   4.083 -2.2230 -1.1208  0.7903
   84MOL    H4826774   7.277   1.375   3.937  0.0942  0.6221 -1.4745
   84MOL    H4926775   7.191   1.481   4.051  0.1476  0.6415  0.2184
   84MOL    C5026776   7.142   1.516   3.689 -0.3433 -0.3464 -0.8620
   84MOL    C5126777   7.014   1.436   3.656  1.0608 -0.1803 -0.4118
   84MOL    C5226778   6.980   1.333   3.775  0.6469  0.5655 -0.1664
   84MOL    O5326779   7.073   1.277   3.827 -0.0150  0.2940  0.3339
   84MOL    N5426780   6.851   1.313   3.808  0.3544  0.0491  0.0832
   84MOL    C5526781   6.804   1.233   3.920  0.4126 -0.2682  0.2657
   84MOL    C5626782   6.740   1.369   3.729 -0.0540  0.3567  0.5808
   84MOL    H5726783   7.191   1.579   3.615 -0.4066 -0.0402 -0.6453
   84MOL    H5826784   7.217   1.444   3.722  0.6812  2.4849  3.4341
   84MOL    H5926785   6.937   1.509   3.631  0.1296  0.0978  3.0237
   84MOL    H6026786   6.708   1.185   3.900  0.1484  1.3649 -2.5456
   84MOL    H6126787   6.873   1.153   3.946 -0.2082 -0.8946 -0.0189
   84MOL    H6226788   6.790   1.290   4.012 -0.4843 -3.8673  2.4663
   84MOL    H6326789   6.735   1.476   3.747  0.2756  0.2325  1.4196
   84MOL    H6426790   6.644   1.328   3.762 -0.2880 -0.8487 -1.4854
   84MOL    H6526791   6.753   1.332   3.627  1.5757  0.9657  0.5598
   84MOL    C6626792   7.038   1.355   3.525 -0.4687  0.2530  0.6335
   84MOL    C6726793   7.055   1.429   3.389 -0.1451  0.6619  0.1445
   84MOL    C6826794   6.924   1.503   3.348  0.3879 -0.1572 -0.3049
   84MOL    O6926795   6.820   1.442   3.329 -0.7367 -0.9750  0.2454
   84MOL    N7026796   6.928   1.638   3.328  0.6334 -0.0959  0.2066
   84MOL    C7126797   6.810   1.715   3.288  0.2969 -0.1972 -0.1700
   84MOL    C7226798   7.025   1.729   3.391 -0.3534  0.3133 -0.4840
   84MOL    H7326799   7.127   1.296   3.546 -1.6578 -1.2932  1.3965
   84MOL    H7426800   6.957   1.285   3.503 -0.3630  0.2217  0.3384
   84MOL    H7526801   7.141   1.495   3.404 -0.0631  0.7348 -0.6381
   84MOL    H7626802   6.769   1.672   3.196  0.5810  1.4571 -1.0716
   84MOL    H7726803   6.736   1.717   3.368 -0.8815 -1.5232 -1.1833
   84MOL    H7826804   6.829   1.817   3.255  2.1275 -0.6331 -0.4805
   84MOL    H7926805   6.981   1.829   3.395 -3.0121 -0.8349  0.1156
   84MOL    H8026806   7.111   1.742   3.325  0.0749 -1.0608 -0.1946
   84MOL    H8126807   7.061   1.707   3.491  2.0459 -0.0406 -1.3825
   84MOL    C8226808   7.097   1.322   3.277  0.7712 -0.3220  0.4970
   84MOL    C8326809   7.205   1.356   3.178 -0.7622 -0.0672 -0.3369
   84MOL    C8426810   7.164   1.481   3.103 -0.0139 -0.4944  0.2207
   84MOL    O8526811   7.060   1.484   3.041 -0.3069  0.5711 -0.5241
   84MOL    N8626812   7.235   1.598   3.111 -0.1691  0.6820 -0.3036
   84MOL    C8726813   7.186   1.726   3.057  0.1723  0.8442 -0.3673
   84MOL    C8826814   7.371   1.610   3.169  0.7592 -0.5081 -0.0644
   84MOL    H8926815   7.120   1.227   3.325 -1.6460 -1.3385 -0.2657
   84MOL    H9026816   7.004   1.290   3.229  1.2251  1.2479 -1.4913
   84MOL    H9126817   7.288   1.383   3.243  1.6704 -0.2570 -3.2369
   84MOL    H9226818   7.080   1.750   3.049  0.1890  0.9656 -0.2092
   84MOL    H9326819   7.238   1.808   3.106  0.5033  0.4510 -0.0663
   84MOL    H9426820   7.214   1.724   2.951  1.1392 -0.5676 -0.0959
   84MOL    H9526821   7.366   1.588   3.276 -1.4221 -2.5929 -0.5607
   84MOL    H9626822   7.419   1.706   3.147  0.2448 -0.2865 -0.2398
   84MOL    H9726823   7.433   1.535   3.121  1.6837 -1.5857  2.7078
   84MOL    C9826824   7.229   1.226   3.095  0.0191 -0.4675  0.4434
   84MOL    C9926825   7.360   1.226   3.008 -0.0859 -0.2333 -0.5858
   84MOL   C10026826   7.479   1.201   3.103 -0.2039  0.1597 -0.1388
   84MOL   O10126827   7.540   1.299   3.141  0.0714  0.7214 -0.4333
   84MOL   N10226828   7.510   1.078   3.143 -0.3010 -0.7880 -0.2552
   84MOL   C10326829   7.439   0.958   3.096  0.7137  0.0685  0.3821
   84MOL   C10426830   7.618   1.050   3.235  0.1172 -0.1083 -0.3447
   84MOL   H10526831   7.233   1.151   3.174 -0.5594  0.4692  1.3797
   84MOL   H10626832   7.142   1.188   3.041 -0.6547  2.1141 -0.3761
   84MOL   H10726833   7.346   1.131   2.956  1.6647 -0.4162 -0.7613
   84MOL   H10826834   7.464   0.875   3.162  0.2016 -0.5062 -0.1406
   84MOL   H10926835   7.332   0.969   3.112  0.9552 -0.6701  2.7191
   84MOL   H11026836   7.470   0.932   2.994 -2.6801  0.7397 -0.8832
   84MOL   H11126837   7.689   1.133   3.236  0.5572 -0.4876  0.4854
   84MOL   H11226838   7.677   0.965   3.202  0.1652 -0.5402  0.8199
   84MOL   H11326839   7.578   1.042   3.336 -0.8875  0.4910 -0.6866
   84MOL   C11426840   7.370   1.338   2.899  0.8502 -0.4538 -0.1896
   84MOL   C11526841   7.486   1.325   2.799  0.2193 -1.1055 -0.4984
   84MOL   C11626842   7.524   1.466   2.741  0.3469  0.2363  0.2935
   84MOL   O11726843   7.442   1.521   2.667 -0.0934 -0.0971 -0.0528
   84MOL   N11826844   7.650   1.512   2.756  0.2127  0.9037  0.2275
   84MOL   C11926845   7.697   1.619   2.667 -0.2784  0.4144 -0.1713
   84MOL   C12026846   7.749   1.456   2.849 -0.0062 -0.2263  0.0382
   84MOL   H12126847   7.276   1.328   2.846  0.9221 -0.2450 -0.3576
   84MOL   H12226848   7.369   1.437   2.945  0.8351 -0.6192  0.1723
   84MOL   H12326849   7.569   1.289   2.861 -0.6462 -0.4527  1.0618
   84MOL   H12426850   7.653   1.708   2.713  0.4332  0.6136  0.1288
   84MOL   H12526851   7.802   1.647   2.662 -0.3839  0.7030 -0.8400
   84MOL   H12626852   7.660   1.611   2.565  0.4549  0.8464 -0.4704
   84MOL   H12726853   7.710   1.448   2.951  0.2526 -1.3038  0.0593
   84MOL   H12826854   7.841   1.512   2.835 -0.4717  0.8346  1.1478
   84MOL   H12926855   7.776   1.352   2.831 -0.3097  0.1580 -2.8549
   84MOL   C13026856   7.465   1.216   2.694 -0.6042 -0.5332 -0.1000
   84MOL   C13126857   7.541   1.079   2.714  0.1080 -0.0334  0.7397
   84MOL   C13226858   7.693   1.095   2.695 -0.5941 -0.2104 -0.5879
   84MOL   O13326859   7.729   1.164   2.598 -0.4153  0.0861  0.3584
   84MOL   N13426860   7.777   1.024   2.770 -0.7503 -0.3370 -0.1313
   84MOL   C13526861   0.061   1.015   2.736  0.3767 -0.0342  0.2360
   84MOL   C13626862   7.742   0.956   2.894 -0.1108  0.3069 -0.3892
   84MOL   H13726863   7.360   1.186   2.689 -0.9331 -0.0287  2.9037
   84MOL   H13826864   7.482   1.252   2.592 -0.1263 -0.8394 -0.1267
   84MOL   H13926865   7.510   1.046   2.813  0.9903 -2.1772  0.3142
   84MOL   H14026866   0.119   1.090   2.790 -0.7430  0.9333  0.1197
   84MOL   H14126867   0.109   0.921   2.763 -3.2163 -2.9844 -2.9864
   84MOL   H14226868   0.073   1.023   2.628  1.0292 -0.0301  0.3084
   84MOL   H14326869   7.675   0.870   2.881  2.3247 -1.4311 -1.9002
   84MOL   H14426870   7.696   1.027   2.963  0.5680  0.2311  0.1429
   84MOL   H14526871   7.823   0.943   2.965 -0.2114  0.7335 -0.1977
   84MOL   C14626872   7.503   0.976   2.614  0.3533  0.3146 -0.0387
   84MOL   C14726873   7.370   0.906   2.625  0.6232  0.4991 -0.1720
   84MOL   C14826874   7.348   0.845   2.765 -0.2708 -0.0861  0.4570
   84MOL   O14926875   7.434   0.761   2.798 -0.5889  0.0672  0.0244
   84MOL   N15026876   7.241   0.866   2.845 -0.6750 -0.4076  0.1382
   84MOL   C15126877   7.136   0.964   2.821 -0.2044  0.1783  0.3017
   84MOL   C15226878   7.209   0.771   2.948  0.4750  0.0782 -0.9557
   84MOL   H15326879   7.520   1.022   2.516  0.7300 -2.0061 -1.1043
   84MOL   H15426880   7.575   0.894   2.610  0.7184  0.6518 -0.4859
   84MOL   H15526881   7.297   0.985   2.608 -0.2452 -0.1537  0.5550
   84MOL   H15626882   7.190   1.059   2.816  0.1211 -0.0081  0.2319
   84MOL   H15726883   7.078   0.935   2.733  0.6431 -1.2840  0.2041
   84MOL   H15826884   7.070   0.983   2.905 -1.1310  3.8392 -1.1355
   84MOL   H15926885   7.112   0.723   2.937 -0.4909  1.5319  0.9752
   84MOL   H16026886   7.209   0.819   3.046  1.3346  0.5316 -1.1754
   84MOL   H16126887   7.276   0.687   2.967 -0.7740 -0.8380 -0.5320
   84MOL   C16226888   7.361   0.798   2.512 -0.7761  0.0100  0.2747
   84MOL   C16326889   7.243   0.805   2.414  0.0306 -0.6106  0.0843
   84MOL   C16426890   7.114   0.793   2.494 -0.2533 -0.4736 -0.2260
   84MOL   O16526891   7.102   0.687   2.558 -0.5857  0.4081 -0.4385
   84MOL   N16626892   7.012   0.883   2.476 -0.2891 -0.6286 -0.1748
   84MOL   C16726893   7.028   1.015   2.414  0.3036  0.0099 -0.7478
   84MOL   C16826894   6.872   0.858   2.536  0.5229  0.0638  0.1902
   84MOL   H16926895   7.451   0.791   2.451  0.1843  1.9245  1.4344
   84MOL   H17026896   7.360   0.699   2.558 -0.9740  0.5573  1.4486
   84MOL   H17126897   7.249   0.909   2.381 -0.8373 -0.1305  1.3958
   84MOL   H17226898   6.942   1.079   2.433 -0.2489 -0.4808 -1.5639
   84MOL   H17326899   7.116   1.068   2.451 -1.6690  1.9574  1.2916
   84MOL   H17426900   7.043   1.000   2.307 -2.5648 -0.7958 -1.0781
   84MOL   H17526901   6.882   0.815   2.635 -2.1209  0.1820  0.5353
   84MOL   H17626902   6.803   0.787   2.490  0.8148  0.4205 -0.8104
   84MOL   H17726903   6.806   0.945   2.542  0.1687 -0.2129  0.2902
   84MOL   C17826904   7.241   0.700   2.296  0.0781 -0.0220 -0.1682
   84MOL   C17926905   7.371   0.692   2.209 -0.5182 -0.4064  0.4283
   84MOL   C18026906   7.391   0.811   2.112 -0.2519 -0.1494  0.0510
   84MOL   O18126907   7.288   0.855   2.048 -0.3380  0.2304 -0.2842
   84MOL   N18226908   7.514   0.861   2.093 -1.1024 -0.3368 -0.6298
   84MOL   C18326909   7.532   0.958   1.983  0.1751  0.1937  0.3324
   84MOL   C18426910   7.633   0.827   2.172  0.4395 -0.3116  0.1170
   84MOL   H18526911   7.223   0.599   2.333  0.7595  0.1850  0.7310
   84MOL   H18626912   7.154   0.719   2.232 -0.3269  1.3521  0.7729
   84MOL   H18726913   7.455   0.678   2.278 -1.3875  1.0966  1.8439
   84MOL   H18826914   7.637   0.983   1.966  0.7229 -1.2464  1.5162
   84MOL   H18926915   7.499   0.914   1.889 -0.2018  0.9433  0.1136
   84MOL   H19026916   7.475   1.046   2.012 -0.8936 -0.8681  1.5041
   84MOL   H19126917   7.725   0.875   2.138  0.6433 -0.1109  0.9230
   84MOL   H19226918   7.659   0.721   2.164 -3.2504 -1.1136 -2.3101
   84MOL   H19326919   7.627   0.874   2.271  0.8826 -0.8530  0.4038
   84MOL   C19426920   7.354   0.562   2.127  0.2611  0.4095  0.5695
   84MOL   C19526921   7.376   0.431   2.210  0.3915 -0.3111  0.1351
   84MOL   C19626922   7.523   0.430   2.263  0.6988 -0.2326  0.5352
   84MOL   O19726923   7.614   0.466   2.190  0.5275  0.1444 -0.2278
   84MOL   N19826924   7.549   0.392   2.388  0.5318  0.3150  0.1878
   84MOL   C19926925   7.677   0.407   2.451  0.0965 -0.3613 -0.5338
   84MOL   C20026926   7.443   0.346   2.486 -0.5604 -0.4546  0.6124
   84MOL   H20126927   7.256   0.560   2.079  0.0003 -1.2710  1.1619
   84MOL   H20226928   7.420   0.560   2.040  2.0543  1.2755  1.8719
   84MOL   H20326929   7.311   0.413   2.296 -2.3367  1.2018 -1.5087
   84MOL   H20426930   7.758   0.396   2.378 -0.1117  1.2642 -1.0424
   84MOL   H20526931   7.686   0.512   2.480 -1.4058  0.4836 -2.9486
   84MOL   H20626932   7.691   0.340   2.536  0.5256  0.9528  0.4489
   84MOL   H20726933   7.479   0.313   2.583 -4.8813 -2.2267  1.7324
   84MOL   H20826934   7.390   0.258   2.451  0.1605 -0.4243 -0.5775
   84MOL   H20926935   7.366   0.422   2.501  0.4764  0.7498 -0.0751
   84MOL   C21026936   7.364   0.304   2.112 -0.0569  0.5322 -0.2731
   84MOL   C21126937   7.222   0.259   2.073 -0.1887 -0.4851 -0.6129
   84MOL   C21226938   7.146   0.213   2.205 -0.0692 -0.0195  0.6200
   84MOL   O21326939   7.193   0.113   2.259  0.2199 -0.3112 -0.3403
   84MOL   N21426940   7.047   0.294   2.252  0.2561 -0.4155 -0.0340
   84MOL   C21526941   6.942   0.357   2.168 -0.3007 -0.4478 -0.4711
   84MOL   C21626942   7.037   0.311   2.398  0.3193 -0.4319  0.4395
   84MOL   H21726943   7.427   0.319   2.025 -0.3143 -1.3125 -0.8023
   84MOL   H21826944   7.417   0.216   2.147 -0.0092  0.5392 -0.3281
   84MOL   H21926945   7.161   0.342   2.038  1.2393  0.0404 -1.9521
   84MOL   H22026946   6.946   0.465   2.167 -1.0338 -0.3482  2.5013
   84MOL   H22126947   6.941   0.317   2.066  2.6224 -0.2377 -0.6238
   84MOL   H22226948   6.849   0.343   2.223  0.4190  1.8976  1.4211
   84MOL   H22326949   7.134   0.339   2.439  1.3347 -3.0403 -0.0461
   84MOL   H22426950   7.009   0.225   2.459  1.5328 -2.8730 -2.2997
   84MOL   H22526951   6.978   0.392   2.440  1.4126  0.7805 -0.3329
   84MOL   C22626952   7.226   0.137   1.981 -0.6194 -0.4618  0.1639
   84MOL   C22726953   7.280   0.152   1.832  0.8449  0.3276 -0.5454
   84MOL   C22826954   7.219   0.260   1.743 -0.4499  0.5726  0.1564
   84MOL   O22926955   7.097   0.248   1.725  0.5875  0.3649  0.8887
   84MOL   N23026956   7.297   0.370   1.703  0.3616  0.8692  0.2394
   84MOL   C23126957   7.442   0.382   1.729 -0.4690 -0.3354 -0.3110
   84MOL   C23226958   7.227   0.476   1.635  0.3000  0.1598  0.4140
   84MOL   H23326959   7.303   0.071   2.020 -0.2657  0.5101  1.1351
   84MOL   H23426960   7.134   0.078   1.976  0.2203 -1.6500 -2.3201
   84MOL   H23526961   7.388   0.167   1.834  1.0286 -0.9840  0.4539
   84MOL   H23626962   7.497   0.291   1.706 -0.0786  0.3250 -2.0908
   84MOL   H23726963   7.494   0.446   1.657 -1.0531 -0.4962 -0.8785
   84MOL   H23826964   7.465   0.402   1.834  0.8334 -2.1001 -0.2385
   84MOL   H23926965   7.121   0.463   1.612  0.1973  1.6331 -0.0315
   84MOL   H24026966   7.283   0.517   1.550 -0.6027  3.7101  1.4593
   84MOL   H24126967   7.222   0.558   1.706  1.6758  0.9893 -0.4235
   84MOL   C24226968   7.267   0.015   1.757  0.0381 -0.3762 -0.4563
   84MOL   C24326969   7.356   7.753   1.805 -0.5100  0.0380 -0.2841
   84MOL   C24426970   7.502   7.779   1.769 -0.5891 -0.2381 -0.1170
   84MOL   O24526971   7.523   7.842   1.662 -0.2856 -0.0331 -0.3912
   84MOL   N24626972   7.605   7.728   1.842  0.2999 -0.2180 -0.3963
   84MOL   C24726973   7.595   7.653   1.973 -0.4776 -0.6395 -0.6480
   84MOL   C24826974   7.741   7.750   1.795  0.3633  0.1836 -0.3902
   84MOL   H24926975   7.160   7.850   1.773  0.1397 -1.3813 -0.9306
   84MOL   H25026976   7.280   0.038   1.651 -0.4333 -1.7768 -0.8259
   84MOL   H25126977   7.349   7.740   1.913 -1.3143  0.1829 -0.3181
   84MOL   H25226978   7.495   7.668   2.012 -0.3487 -0.8563 -0.2356
   84MOL   H25326979   7.610   7.547   1.955 -1.2109 -0.8887  0.1621
   84MOL   H25426980   7.657   7.708   2.044 -1.4894 -1.5603  0.9640
   84MOL   H25526981   7.789   7.657   1.825  0.3312 -0.5186 -2.4217
   84MOL   H25626982   7.796   7.833   1.837 -1.8295  0.4588  2.0898
   84MOL   H25726983   7.748   7.754   1.686 -0.8222 -0.0025 -0.4845
   84MOL   C25826984   7.320   7.614   1.731 -0.1060 -0.9450  0.3504
   84MOL   C25926985   7.191   7.550   1.794 -0.5654  0.8209 -0.3634
   84MOL   C26026986   7.202   7.480   1.922  0.3392  0.0405 -0.5005
   84MOL   O26126987   7.306   7.409   1.935 -0.7234  0.2417  0.0438
   84MOL   N26226988   7.122   7.513   2.030  0.4424  0.6144 -0.5209
   84MOL   C26326989   7.009   7.608   2.023  0.0719 -0.4696  0.1580
   84MOL   C26426990   7.133   7.445   2.160 -0.0864  0.0620 -0.4879
   84MOL   H26526991   7.301   7.630   1.625 -0.4174  2.5214  0.8766
   84MOL   H26626992   7.408   7.551   1.738 -0.3832 -1.3133  0.5334
   84MOL   H26726993   7.137   7.638   1.827 -0.5495 -0.1581  2.3937
   84MOL   H26826994   6.940   7.590   1.940 -2.2128 -1.6177  2.2348
   84MOL   H26926995   6.939   7.613   2.107 -1.0718  2.9292 -0.9147
   84MOL   H27026996   7.038   7.713   2.016 -0.8234 -0.0270  2.4468
   84MOL   H27126997   7.038   7.400   2.189  1.2167 -1.4229  1.5843
   84MOL   H27226998   7.166   7.514   2.238  0.4239 -2.6314  1.7175
   84MOL   H27326999   7.197   7.357   2.159 -2.0398 -1.4767  2.5035
   84MOL   C27427000   7.107   7.464   1.691  0.4251 -0.6989  0.4391
   84MOL   C27527001   7.157   7.318   1.660  0.3167  0.3255 -0.2671
   84MOL   C27627002   7.297   7.311   1.595 -0.5435  0.1319  1.0098
   84MOL   O27727003   7.324   7.387   1.498  0.4663 -0.0778 -0.2513
   84MOL   N27827004   7.398   7.239   1.654 -0.0193  0.2522 -0.4152
   84MOL   C27927005   7.541   7.249   1.622  0.3425 -0.1546 -0.0186
   84MOL   C28027006   7.385   7.150   1.774  0.6173 -0.5314 -0.0006
   84MOL   H28127007   7.007   7.456   1.734  0.1665  1.5513  0.3037
   84MOL   H28227008   7.088   7.528   1.605  0.5208 -1.1685  0.0660
   84MOL   H28327009   7.147   7.259   1.751  0.4321  0.8579  0.0898
   84MOL   H28427010   7.580   7.155   1.581  1.5112 -0.2925  1.3561
   84MOL   H28527011   7.564   7.312   1.536 -0.1585  0.0642  0.0044
   84MOL   H28627012   7.600   7.274   1.709 -0.4835  0.2443  0.4324
   84MOL   H28727013   7.458   7.070   1.773  1.3117  0.0310  2.3528
   84MOL   H28827014   7.283   7.115   1.787 -0.0220  1.2684  0.0142
   84MOL   H28927015   7.400   7.196   1.871  2.8229 -2.4663  0.6010
   84MOL   C29027016   7.055   7.261   1.558  0.4294 -0.2138  0.0639
   84MOL   C29127017   6.986   7.118   1.577  0.3626 -0.1410  0.3945
   84MOL   C29227018   7.082   7.004   1.609  0.2014 -0.1778 -0.1214
   84MOL   O29327019   7.057   6.937   1.710 -0.2287  0.0798 -0.8656
   84MOL   N29427020   7.188   6.981   1.530  0.3119 -0.2533  0.4366
   84MOL   C29527021   7.286   6.885   1.568  0.0777 -0.4171 -0.4143
   84MOL   C29627022   7.206   7.038   1.401  0.2973 -0.3942 -0.0820
   84MOL   H29727023   6.959   7.313   1.563  0.2767 -0.6707  2.1414
   84MOL   H29827024   7.087   7.281   1.456 -2.6076  0.0369 -0.8974
   84MOL   H29927025   6.937   7.121   1.675 -0.5033  0.7967 -0.0592
   84MOL   H30027026   7.302   6.883   1.676 -1.0926  2.3120 -0.1440
   84MOL   H30127027   7.266   6.787   1.525 -0.7229 -0.3026 -0.3031
   84MOL   H30227028   7.381   6.928   1.535 -1.5239  2.3225 -1.6716
   84MOL   H30327029   7.297   6.998   1.356  0.4287 -2.0292  1.5566
   84MOL   H30427030   7.225   7.145   1.399 -1.2548 -0.1005 -0.3298
   84MOL   H30527031   7.118   7.029   1.336 -1.0510  2.0430  1.3316
   84MOL   C30627032   6.888   7.090   1.468 -0.4069 -0.2617 -0.3817
   84MOL   C30727033   6.744   7.145   1.502  0.0038  0.4158  0.0097
   84MOL   C30827034   6.632   7.119   1.395 -0.3823 -0.0766  0.3408
   84MOL   O30927035   6.571   7.014   1.404  0.5322  0.4764  0.0806
   84MOL   N31027036   6.603   7.208   1.300  0.1537 -0.1068  0.0020
   84MOL   C31127037   6.495   7.185   1.206 -0.3253 -0.1627 -0.1708
   84MOL   C31227038   6.679   7.339   1.284  0.4028  0.6115 -0.8600
   84MOL   H31327039   6.919   7.135   1.374  4.0501  1.6775  1.8554
   84MOL   H31427040   6.875   6.984   1.449  1.1938 -0.9218  1.9020
   84MOL   H31527041   6.705   7.118   1.600 -0.9435  0.1342 -0.4396
   84MOL   H31627042   6.511   7.227   1.107 -1.2756 -0.0645 -0.2902
   84MOL   H31727043   6.480   7.077   1.198  0.0297 -0.3417  1.3870
   84MOL   H31827044   6.404   7.232   1.244 -2.1831 -0.9911 -3.3722
   84MOL   H31927045   6.645   7.397   1.198 -0.1578  1.4500 -0.0808
   84MOL   H32027046   6.786   7.322   1.275  0.1326 -0.2182 -2.5982
   84MOL   H32127047   6.671   7.406   1.370  1.4131 -0.5804  0.1934
   84MOL   H32227048   6.746   7.253   1.519  0.6338  0.6430 -1.4754
   85MOL     C127049   5.857   6.703   7.446  0.4071 -0.3220 -0.1012
   85MOL     C227050   5.814   6.722   7.595  0.7618  0.0530 -0.2352
   85MOL     C327051   5.856   6.864   7.641 -0.2396 -0.6656 -0.2093
   85MOL     O427052   5.971   6.890   7.666 -0.9612 -0.9971 -0.1474
   85MOL     N527053   5.759   6.957   7.658  0.3510  0.1899  0.3496
   85MOL     C627054   5.807   7.088   7.718  0.8118  0.2724 -0.0075
   85MOL     C727055   5.621   6.949   7.606 -0.6823  0.4827 -0.4312
   85MOL     H827056   5.803   6.627   7.390 -0.8722  1.4946 -1.3769
   85MOL     H927057   5.961   6.670   7.445 -0.0454 -1.8189  0.5856
   85MOL    H1027058   5.705   6.714   7.594  0.8520 -1.2202 -1.8354
   85MOL    H1127059   5.878   7.067   7.798  0.1068  0.3052  0.6371
   85MOL    H1227060   5.871   7.141   7.648 -1.3896  2.2213 -0.5862
   85MOL    H1327061   5.726   7.156   7.743  1.3499 -0.0289  2.7082
   85MOL    H1427062   5.602   6.912   7.505 -0.5963  2.3845 -1.1475
   85MOL    H1527063   5.572   7.045   7.617 -1.7763  0.1108 -1.9677
   85MOL    H1627064   5.569   6.885   7.678 -1.9450  1.1304 -0.7657
   85MOL    H1727065   5.850   6.799   7.397  3.0169 -0.4539 -0.8004
   85MOL    C1827066   5.875   6.613   7.680 -0.3029 -0.3247  0.4410
   85MOL    C1927067   5.797   6.482   7.690  0.1775  0.1155  0.2107
   85MOL    C2027068   5.662   6.515   7.762  0.6198 -0.3449  1.0472
   85MOL    O2127069   5.660   6.600   0.000 -0.5416  0.4637 -0.3575
   85MOL    N2227070   5.545   6.460   7.716 -0.2134  0.2583 -0.1849
   85MOL    C2327071   5.411   6.495   7.762 -0.0419  0.6180  0.2409
   85MOL    C2427072   5.543   6.352   7.616 -0.2126  0.0674  0.9025
   85MOL    H2527073   5.972   6.592   7.635 -0.9191 -2.6688  0.1522
   85MOL    H2627074   5.901   6.652   7.778  0.3455  1.0077 -0.2398
   85MOL    H2727075   5.783   6.451   7.586 -2.6265 -0.1239  0.6109
   85MOL    H2827076   5.355   6.409   7.799 -2.3002  1.7475 -0.4379
   85MOL    H2927077   5.397   6.560   7.849 -3.2021  1.4428 -0.8139
   85MOL    H3027078   5.339   6.530   7.688 -0.9315 -0.3470  0.6373
   85MOL    H3127079   5.460   6.283   7.630 -0.8052  1.0130  2.1393
   85MOL    H3227080   5.635   6.296   7.605  0.3038  0.9985  0.4378
   85MOL    H3327081   5.527   6.401   7.520  0.7145  0.0874  0.7535
   85MOL    C3427082   5.874   6.369   7.756 -0.1904  0.2454 -0.1555
   85MOL    C3527083   5.986   6.293   7.675  0.3771 -0.4350 -0.4654
   85MOL    C3627084   5.938   6.237   7.543  0.7050 -0.2824 -0.9445
   85MOL    O3727085   5.840   6.165   7.539  0.5749 -0.3410 -0.0108
   85MOL    N3827086   5.990   6.289   7.427  0.4572 -0.4727  1.0120
   85MOL    C3927087   5.906   6.276   7.307 -0.2687  0.2906  0.7133
   85MOL    C4027088   6.102   6.380   7.410  0.6362 -0.1702 -0.1942
   85MOL    H4127089   5.913   6.408   7.849  1.1030 -2.6976  0.6008
   85MOL    H4227090   5.800   6.294   7.785 -0.2743  0.3058 -0.2086
   85MOL    H4327091   6.064   6.367   7.656  1.0673 -1.5770 -2.2178
   85MOL    H4427092   5.935   6.176   7.275  0.0476 -0.3026  2.7390
   85MOL    H4527093   5.799   6.287   7.324 -0.2664  0.3045  0.7199
   85MOL    H4627094   5.938   6.349   7.233 -0.0096 -0.3576  0.1838
   85MOL    H4727095   6.130   6.378   7.304 -3.2606 -1.0811 -1.2798
   85MOL    H4827096   6.189   6.333   7.456  0.7278  0.4673  0.2891
   85MOL    H4927097   6.081   6.485   7.433 -0.4344 -0.2201 -0.9035
   85MOL    C5027098   6.049   6.184   7.768 -0.4541 -0.2170 -0.1515
   85MOL    C5127099   6.182   6.120   7.718  0.1383 -0.0409 -0.2735
   85MOL    C5227100   6.202   5.974   7.769  0.0660  0.6962  0.4385
   85MOL    O5327101   6.174   5.950   0.028  0.0142 -0.2129  0.3568
   85MOL    N5427102   6.223   5.866   7.684  0.0212 -0.2823 -0.0320
   85MOL    C5527103   6.271   5.739   7.730 -0.3850 -0.5359  0.3869
   85MOL    C5627104   6.212   5.868   7.534  0.0061 -0.0416  0.0654
   85MOL    H5727105   6.061   6.224   0.016  0.8744 -2.1369  0.4597
   85MOL    H5827106   5.976   6.104   7.781 -0.6485  0.1963  1.4349
   85MOL    H5927107   6.187   6.120   7.609  0.2386  0.9648 -0.2801
   85MOL    H6027108   6.373   5.751   7.766 -0.7782 -0.1964  1.3779
   85MOL    H6127109   6.224   5.694   7.817  1.2879  0.3071  1.7447
   85MOL    H6227110   6.271   5.656   7.659 -1.7890 -2.0827  2.1388
   85MOL    H6327111   6.112   5.910   7.519  0.3902  0.4954 -1.0468
   85MOL    H6427112   6.219   5.777   7.474 -2.2797  0.5158 -1.1215
   85MOL    H6527113   6.281   5.937   7.486  0.8565  2.4730  4.6876
   85MOL    C6627114   6.310   6.219   7.741 -0.3077  0.0480 -0.0600
   85MOL    C6727115   6.452   6.171   7.689  0.6311  0.3383  0.3039
   85MOL    C6827116   6.519   6.098   7.804 -0.1964  0.8313  0.5270
   85MOL    O6927117   6.510   6.146   0.063 -0.0661  0.4219  0.1365
   85MOL    N7027118   6.595   5.984   7.786  0.4821  0.1490  0.5319
   85MOL    C7127119   6.662   5.911   0.037  0.0299 -0.1429 -0.1757
   85MOL    C7227120   6.637   5.941   7.656  0.6204 -0.0609  0.0947
   85MOL    H7327121   6.287   6.306   7.680  0.6932  0.8442  0.6745
   85MOL    H7427122   6.309   6.252   7.844 -3.3730  1.2987 -0.4507
   85MOL    H7527123   6.434   6.105   7.604  0.2707 -0.5489  1.0542
   85MOL    H7627124   6.619   5.916   0.137 -1.1332 -0.6107 -0.6404
   85MOL    H7727125   6.655   5.804   0.021 -0.5086 -0.4124  1.7466
   85MOL    H7827126   6.767   5.940   0.041 -0.2897  0.9772  0.1808
   85MOL    H7927127   6.553   5.896   7.602  0.5730 -0.6062  0.6172
   85MOL    H8027128   6.718   5.868   7.659  1.9101  1.4010  1.4646
   85MOL    H8127129   6.669   6.029   7.600  0.7758 -0.1967 -0.0286
   85MOL    C8227130   6.543   6.284   7.646  0.2480  0.0041 -0.8549
   85MOL    C8327131   6.516   6.342   7.506 -0.1712 -0.6387  0.5695
   85MOL    C8427132   6.575   6.254   7.394  0.3849  0.1072 -0.3744
   85MOL    O8527133   6.689   6.216   7.400 -0.0624  0.1116 -0.5137
   85MOL    N8627134   6.507   6.229   7.277  0.4346 -0.7818  0.2188
   85MOL    C8727135   6.373   6.269   7.236 -0.2374  0.3018  0.1081
   85MOL    C8827136   6.586   6.166   7.170  0.5406  0.6194  0.6147
   85MOL    H8927137   6.556   6.357   7.725  0.1524 -2.6256  1.6692
   85MOL    H9027138   6.640   6.233   7.638  0.4315  0.3746 -0.9970
   85MOL    H9127139   6.409   6.347   7.490 -0.1941  1.9265  1.3155
   85MOL    H9227140   6.363   6.373   7.268  2.2368  1.1123 -1.6066
   85MOL    H9327141   6.372   6.269   7.127  0.5251 -0.7684  0.0952
   85MOL    H9427142   6.288   6.208   7.265 -1.2718  1.8240  0.3511
   85MOL    H9527143   6.522   6.124   7.092  0.3615  0.3083  0.9291
   85MOL    H9627144   6.659   6.100   7.216 -0.0481  0.9770  2.0888
   85MOL    H9727145   6.651   6.238   7.119  0.2556  1.7150  1.7642
   85MOL    C9827146   6.590   6.484   7.472 -0.0707  0.3996 -0.5665
   85MOL    C9927147   6.545   6.606   7.562 -0.9572 -0.3755 -0.5049
   85MOL   C10027148   6.400   6.603   7.618  0.8778  0.5879  0.2116
   85MOL   O10127149   6.311   6.565   7.535 -0.0163 -0.5454  0.3716
   85MOL   N10227150   6.386   6.631   7.750 -0.3789  0.3486 -0.7705
   85MOL   C10327151   6.482   6.702   7.835  0.3723 -0.4063  0.2752
   85MOL   C10427152   6.256   6.608   7.812 -0.0665  0.4611 -0.0342
   85MOL   H10527153   6.698   6.475   7.474 -0.0467  0.8187  1.1297
   85MOL   H10627154   6.569   6.512   7.369  1.3364 -1.5525 -1.3922
   85MOL   H10727155   6.617   6.589   7.642  0.2999  1.0672 -1.3231
   85MOL   H10827156   6.425   6.724   0.072 -0.5725  0.2701 -0.4702
   85MOL   H10927157   6.559   6.631   0.011  0.7916 -0.4630 -0.9286
   85MOL   H11027158   6.519   6.797   7.794 -0.4419 -0.0870  0.2658
   85MOL   H11127159   6.175   6.604   7.740  1.0459  2.2732 -1.4440
   85MOL   H11227160   6.231   6.700   0.013  1.9778  1.6727 -1.0759
   85MOL   H11327161   6.261   6.531   0.035 -0.6047  2.1743  1.7739
   85MOL   C11427162   6.567   6.738   7.481  0.5861  1.1698  0.0318
   85MOL   C11527163   6.707   6.773   7.431  0.2642  0.2411  0.1514
   85MOL   C11627164   6.787   6.841   7.540 -0.0894  0.3438 -0.7129
   85MOL   O11727165   6.727   6.925   7.617 -0.6124  0.1799  0.9799
   85MOL   N11827166   6.916   6.816   7.555 -0.2568  0.8324  0.4058
   85MOL   C11927167   6.985   6.876   7.666  0.0701 -0.3659  0.1348
   85MOL   C12027168   7.006   6.749   7.462 -0.1175 -0.5014  0.7804
   85MOL   H12127169   6.504   6.730   7.392  0.3658  1.4744  0.1601
   85MOL   H12227170   6.519   6.822   7.530 -1.3871 -0.6513  1.3118
   85MOL   H12327171   6.757   6.682   7.396  0.5492  0.4296  0.0701
   85MOL   H12427172   6.981   6.985   7.663 -0.4667 -0.4147 -1.4264
   85MOL   H12527173   6.947   6.838   7.761 -1.5065  1.6579  0.3664
   85MOL   H12627174   7.090   6.850   7.669  0.5778  1.6627  0.4758
   85MOL   H12727175   6.956   6.658   7.430 -1.4227  0.1646  0.8688
   85MOL   H12827176   7.095   6.706   7.508  0.3313 -0.9541 -0.4866
   85MOL   H12927177   7.038   6.823   7.388 -0.9034 -0.5983  0.3459
   85MOL   C13027178   6.699   6.869   7.313  0.5212  0.5504 -0.1352
   85MOL   C13127179   6.646   6.808   7.178  1.0734  0.6562  0.0123
   85MOL   C13227180   6.749   6.724   7.095 -0.7370 -0.4067  0.2658
   85MOL   O13327181   6.862   6.773   7.078 -0.6478 -0.0383  0.0218
   85MOL   N13427182   6.708   6.621   7.020  0.1992  0.3683 -0.7738
   85MOL   C13527183   6.798   6.567   6.919 -0.0230 -0.3480  0.1477
   85MOL   C13627184   6.567   6.580   7.002  0.2810 -0.2395 -0.3096
   85MOL   H13727185   6.631   6.951   7.336  0.2108  0.0967  0.5709
   85MOL   H13827186   6.797   6.914   7.298  1.1062 -0.2670  1.1888
   85MOL   H13927187   6.568   6.735   7.199  0.6634  0.9366 -0.5318
   85MOL   H14027188   6.736   6.503   6.856 -0.3688  0.8725 -0.7680
   85MOL   H14127189   6.841   6.650   6.863 -1.9551  0.4554 -0.2124
   85MOL   H14227190   6.884   6.514   6.960 -1.2563 -2.6826 -0.2297
   85MOL   H14327191   6.549   6.551   6.899 -1.4628 -0.2626 -0.0169
   85MOL   H14427192   6.493   6.658   7.020 -0.3574 -0.9816  0.3493
   85MOL   H14527193   6.544   6.492   7.062  2.5219 -0.5289  0.1707
   85MOL   C14627194   6.581   6.922   7.089  0.1817  0.3123  0.0956
   85MOL   C14727195   6.449   6.986   7.141 -0.3811  0.0136  0.0030
   85MOL   C14827196   6.344   6.899   7.210 -0.3285 -0.6055 -0.5317
   85MOL   O14927197   6.329   6.785   7.162  0.7745 -0.5942 -0.0281
   85MOL   N15027198   6.262   6.932   7.310  1.0940  0.1163  0.2995
   85MOL   C15127199   6.260   7.071   7.363  0.4498  0.2312  0.2093
   85MOL   C15227200   6.189   6.835   7.383 -0.1350 -0.4643  0.3100
   85MOL   H15327201   6.651   7.002   7.066 -0.6785  0.9932 -0.1842
   85MOL   H15427202   6.559   6.879   6.991 -0.8671 -1.1791  0.9546
   85MOL   H15527203   6.480   7.046   7.227 -2.1897  0.4455  0.3645
   85MOL   H15627204   6.346   7.093   7.425  2.5300  0.7900 -2.7716
   85MOL   H15727205   6.234   7.152   7.294 -0.5855 -0.8894 -0.7403
   85MOL   H15827206   6.178   7.076   7.434  1.2252  1.2497  1.0408
   85MOL   H15927207   6.238   6.804   7.475  3.1420  0.3739 -1.0870
   85MOL   H16027208   6.168   6.746   7.323  0.4963 -0.1322 -0.4086
   85MOL   H16127209   6.088   6.869   7.406 -0.3138 -0.8793  0.1631
   85MOL   C16227210   6.378   7.079   7.043 -0.5003 -0.3295 -0.2720
   85MOL   C16327211   6.322   7.022   6.902  0.4834 -0.6197  0.2102
   85MOL   C16427212   6.390   7.107   6.794  0.1109  0.6800 -0.1004
   85MOL   O16527213   6.365   7.232   6.792 -0.8561 -0.3164  0.1636
   85MOL   N16627214   6.501   7.052   6.730 -0.2069 -0.1490 -0.4866
   85MOL   C16727215   6.532   6.910   6.709  1.0351 -0.1289  0.0734
   85MOL   C16827216   6.602   7.151   6.692 -0.8610 -0.0377  0.5367
   85MOL   H16927217   6.295   7.128   7.093 -1.1689  0.2187 -1.8895
   85MOL   H17027218   6.446   7.160   7.022 -1.0201 -0.1725 -1.4151
   85MOL   H17127219   6.342   6.916   6.889 -2.7119 -1.5061  2.0904
   85MOL   H17227220   6.437   6.857   6.715 -0.1679  2.0515  1.0829
   85MOL   H17327221   6.559   6.881   6.608 -0.5430 -0.3151 -0.3053
   85MOL   H17427222   6.607   6.870   6.778  1.2440 -0.5578 -0.4027
   85MOL   H17527223   6.699   7.100   6.686 -0.9715 -0.1065 -0.8374
   85MOL   H17627224   6.622   7.231   6.763 -0.2948  0.1811  0.1343
   85MOL   H17727225   6.590   7.192   6.592 -0.2669 -1.1891 -0.0101
   85MOL   C17827226   6.169   7.032   6.888  0.1548 -0.3630  0.1188
   85MOL   C17927227   6.084   6.914   6.936 -0.6774 -0.0758 -0.9564
   85MOL   C18027228   6.138   6.783   6.873  0.7529 -0.3393 -0.3201
   85MOL   O18127229   6.191   6.785   6.762 -0.6486 -0.3783 -0.2106
   85MOL   N18227230   6.121   6.671   6.940  0.2807 -0.2742 -0.4072
   85MOL   C18327231   6.181   6.550   6.896 -0.0972 -0.3533  0.3301
   85MOL   C18427232   6.047   6.644   7.067 -0.2927 -0.5823 -0.1729
   85MOL   H18527233   6.139   7.127   6.933 -0.8707 -0.2067 -0.8678
   85MOL   H18627234   6.137   7.038   6.784  0.0635  1.7488  0.2438
   85MOL   H18727235   6.099   6.902   7.043  1.7638 -1.2951 -1.3957
   85MOL   H18827236   6.275   6.543   6.952  0.1673  1.7044  0.1959
   85MOL   H18927237   6.122   6.461   6.913  2.4028 -2.1674 -0.0871
   85MOL   H19027238   6.198   6.546   6.788 -2.9153  0.2596 -0.1679
   85MOL   H19127239   6.107   6.608   7.151  0.2695 -2.1900 -1.2240
   85MOL   H19227240   5.975   6.570   7.030 -0.2986 -1.2073  1.0579
   85MOL   H19327241   5.998   6.729   7.113  1.7116  0.2180  0.5301
   85MOL   C19427242   5.938   6.946   6.904  0.4631 -0.4696 -0.4721
   85MOL   C19527243   5.856   7.063   6.968  0.0294  0.3481 -0.4927
   85MOL   C19627244   5.847   7.049   7.123 -0.7228 -0.1721 -0.5893
   85MOL   O19727245   5.816   6.939   7.177 -0.0274  0.2576  0.0577
   85MOL   N19827246   5.879   7.150   7.201  0.6591 -0.7621  0.6070
   85MOL   C19927247   5.884   7.131   7.352  0.0794 -0.4586  0.3583
   85MOL   C20027248   5.902   7.288   7.150 -0.3538  0.1313  0.1669
   85MOL   H20127249   5.941   6.947   6.795 -2.1361 -1.6463 -0.5954
   85MOL   H20227250   5.873   6.859   6.910  0.4818 -0.3771  1.2375
   85MOL   H20327251   5.904   7.159   6.948  0.9779  0.0299  0.1944
   85MOL   H20427252   5.788   7.098   7.393 -0.4142  1.3815  0.7109
   85MOL   H20527253   5.961   7.066   7.394  1.1909  0.7358  0.1818
   85MOL   H20627254   5.909   7.224   7.403  0.5245  0.2646 -1.1407
   85MOL   H20727255   5.982   7.292   7.076 -2.1588 -1.1785 -1.9423
   85MOL   H20827256   5.925   7.362   7.226 -1.0599 -0.2068  0.7161
   85MOL   H20927257   5.821   7.328   7.088 -1.5727 -0.5096  1.3164
   85MOL   C21027258   5.716   7.078   6.904 -0.0097 -0.4505  0.8272
   85MOL   C21127259   5.721   7.148   6.769 -0.2443  0.1790 -0.5102
   85MOL   C21227260   5.756   7.297   6.780  0.1510 -0.2867  0.7656
   85MOL   O21327261   5.677   7.366   6.852  0.1691  0.4090  0.4087
   85MOL   N21427262   5.865   7.348   6.717 -0.2919 -0.2613 -0.2325
   85MOL   C21527263   5.939   7.271   6.618 -0.6967  0.1111  0.1890
   85MOL   C21627264   5.882   7.490   6.721 -0.5143 -0.1589  0.6879
   85MOL   H21727265   5.664   6.982   6.900  1.6047 -1.3709  1.3123
   85MOL   H21827266   5.661   7.138   6.976  1.1675 -1.2171  2.4085
   85MOL   H21927267   5.799   7.097   6.713  0.9017  1.2164  0.1220
   85MOL   H22027268   6.015   7.208   6.664 -0.2574  1.3941  1.2585
   85MOL   H22127269   5.862   7.221   6.559 -0.1189 -0.7976  0.1890
   85MOL   H22227270   5.997   7.339   6.556  0.2486 -0.1242  0.8115
   85MOL   H22327271   5.916   7.533   6.627 -0.9920 -2.1778 -0.4292
   85MOL   H22427272   5.956   7.512   6.798  0.5831  1.6491 -0.8322
   85MOL   H22527273   5.791   7.547   6.738 -1.1366 -1.0869  0.5211
   85MOL   C22627274   5.592   7.134   6.682  0.1174 -0.2683 -0.0455
   85MOL   C22727275   5.558   6.991   6.638  0.1875  0.0148 -1.2640
   85MOL   C22827276   5.683   6.909   6.596  0.2486  0.5578 -0.1396
   85MOL   O22927277   5.762   6.961   6.520 -0.1410  0.1495 -0.1974
   85MOL   N23027278   5.706   6.788   6.652 -0.1737  0.3953  0.2506
   85MOL   C23127279   5.836   6.725   6.632 -0.6103  0.1970 -0.1651
   85MOL   C23227280   5.598   6.705   6.698 -0.2863 -0.0446  0.5010
   85MOL   H23327281   5.508   7.176   6.737  0.0254  1.5745 -1.5637
   85MOL   H23427282   5.601   7.193   6.591  1.4459 -0.2772  0.0660
   85MOL   H23527283   5.535   6.941   6.732  1.3709 -1.1083 -1.5691
   85MOL   H23627284   5.832   6.674   6.536  2.1602 -0.5816  0.0666
   85MOL   H23727285   5.914   6.798   6.610 -0.4688 -0.0375 -0.4461
   85MOL   H23827286   5.869   6.649   6.703 -1.3453  1.0964  1.1527
   85MOL   H23927287   5.641   6.605   6.708  0.0858  0.2441  1.9535
   85MOL   H24027288   5.516   6.707   6.627 -0.7182 -1.0177  0.9522
   85MOL   H24127289   5.564   6.748   6.792 -1.7936 -1.3931  0.5964
   85MOL   C24227290   5.435   6.987   6.542 -0.8210  0.4815  0.3010
   85MOL   C24327291   5.297   7.038   6.592 -0.4260  0.1889  0.6451
   85MOL   C24427292   5.246   6.946   6.706  0.2010 -0.1967  0.3935
   85MOL   O24527293   5.250   6.828   6.690 -0.1159 -0.1928  0.0904
   85MOL   N24627294   5.217   7.001   6.829  0.1630  0.3992 -0.1277
   85MOL   C24727295   5.205   6.906   6.947 -0.0602  0.2869  0.3431
   85MOL   C24827296   5.214   7.137   6.874 -0.1356  0.3598  0.4259
   85MOL   H24927297   5.467   7.047   6.457 -1.4959 -0.9992 -1.0344
   85MOL   H25027298   5.423   6.889   6.494 -0.1114  1.8188 -2.7459
   85MOL   H25127299   5.311   7.139   6.630 -1.5055  1.4281 -2.1500
   85MOL   H25227300   5.113   6.853   6.923  0.9358 -1.3154  0.0480
   85MOL   H25327301   5.282   6.829   6.945 -0.8836 -0.5613  0.9959
   85MOL   H25427302   5.190   6.963   7.038  0.1281 -2.5744  2.2010
   85MOL   H25527303   5.152   7.147   6.963  0.4460 -1.3319  1.0378
   85MOL   H25627304   5.188   7.215   6.803  1.4360 -0.4549 -1.1000
   85MOL   H25727305   5.317   7.157   6.907  0.0670  1.8823 -1.0850
   85MOL   C25827306   5.193   7.049   6.474 -1.1266 -0.4088 -0.1760
   85MOL   C25927307   5.088   7.170   6.491 -0.2923 -0.2780 -0.0370
   85MOL   C26027308   4.945   7.135   6.476  0.2273  0.5935  0.1086
   85MOL   O26127309   4.901   7.114   6.366  0.0935  0.4923  0.7444
   85MOL   N26227310   4.870   7.129   6.587  0.2357  0.0886 -0.5159
   85MOL   C26327311   4.903   7.178   6.725 -0.2147  0.0282  0.8540
   85MOL   C26427312   4.732   7.085   6.577  0.1902 -0.2802  0.1650
   85MOL   H26527313   5.245   7.062   6.380  0.7825 -2.3179  0.5627
   85MOL   H26627314   5.137   6.956   6.465 -0.0998 -1.0538 -0.0153
   85MOL   H26727315   5.105   7.210   6.591  2.4380 -1.0246 -0.1525
   85MOL   H26827316   4.989   7.131   6.772  0.3468  1.7401  1.5841
   85MOL   H26927317   4.908   7.287   6.723 -0.9019  0.0853 -3.6975
   85MOL   H27027318   4.832   7.146   6.801 -1.4859 -0.5190 -0.5254
   85MOL   H27127319   4.669   7.146   6.511  3.4303  0.5432 -2.2993
   85MOL   H27227320   4.690   7.079   6.677  3.3608  1.0063  1.6350
   85MOL   H27327321   4.738   6.980   6.548  1.4676 -0.4686  1.0850
   85MOL   C27427322   5.125   7.306   6.418  0.8173  0.5730 -0.7229
   85MOL   C27527323   5.221   7.398   6.496 -0.2054 -0.2819 -0.1642
   85MOL   C27627324   5.162   7.459   6.625 -0.1892  0.0800  0.0479
   85MOL   O27727325   5.044   7.467   6.621  0.2744  1.2756 -0.0816
   85MOL   N27827326   5.241   7.490   6.729 -0.1706 -0.0233 -0.8097
   85MOL   C27927327   5.182   7.531   6.855  0.2026 -0.2592 -0.4476
   85MOL   C28027328   5.388   7.465   6.741 -0.4025 -0.8909 -0.5159
   85MOL   H28127329   5.174   7.272   6.327 -0.6620 -1.3153 -0.8535
   85MOL   H28227330   5.038   7.366   6.391 -1.3183 -1.6588  0.8985
   85MOL   H28327331   5.303   7.333   6.526  0.5856  0.7603 -0.0611
   85MOL   H28427332   5.082   7.574   6.853 -1.1519 -3.3303 -0.7068
   85MOL   H28527333   5.166   7.436   6.905 -2.6655  0.9172  0.9907
   85MOL   H28627334   5.239   7.597   6.920  0.2854 -1.8522  1.1115
   85MOL   H28727335   5.418   7.459   6.846  1.3871  3.1859 -0.6949
   85MOL   H28827336   5.462   7.535   6.701  0.9615 -0.5809  2.4246
   85MOL   H28927337   5.421   7.369   6.701  2.1766  0.0237 -0.7042
   85MOL   C29027338   5.272   7.515   6.412 -0.5591  0.4872  0.1028
   85MOL   C29127339   5.367   7.476   6.293 -0.8141  0.5034  0.0100
   85MOL   C29227340   5.510   7.433   6.336 -0.5906  0.2454 -0.0650
   85MOL   O29327341   5.562   7.499   6.428  0.1047 -0.2849  0.2288
   85MOL   N29427342   5.569   7.321   6.280  0.2158 -0.1291  0.0359
   85MOL   C29527343   5.708   7.289   6.324 -0.2444  0.0589  0.4766
   85MOL   C29627344   5.519   7.230   6.172 -0.0150  0.2686 -0.0007
   85MOL   H29727345   5.184   7.562   6.368 -0.2989  0.3362 -0.5977
   85MOL   H29827346   5.317   7.588   6.479  0.5213  0.1357 -0.2308
   85MOL   H29927347   5.329   7.396   6.229 -1.2902  1.3372 -0.7648
   85MOL   H30027348   5.776   7.327   6.246  1.3451 -2.6173  0.4904
   85MOL   H30127349   5.748   7.339   6.412 -0.5668 -0.1924  0.7637
   85MOL   H30227350   5.730   7.183   6.335 -0.8656 -0.1073  0.1554
   85MOL   H30327351   5.579   7.141   6.155  0.0082  0.5084 -1.2285
   85MOL   H30427352   5.508   7.266   6.069 -0.3556 -0.5929 -0.2675
   85MOL   H30527353   5.426   7.190   6.211 -0.4861  0.0931 -1.2614
   85MOL   C30627354   5.380   7.606   6.205  0.6359 -0.0574  0.0955
   85MOL   C30727355   5.434   7.578   6.061 -0.4580 -0.4648  0.0227
   85MOL   C30827356   5.330   7.519   5.966  0.3071  0.4243 -0.7052
   85MOL   O30927357   5.222   7.482   6.016 -0.0112  0.1729  0.1310
   85MOL   N31027358   5.363   7.486   5.840 -0.5170  0.3008  0.0813
   85MOL   C31127359   5.490   7.539   5.780 -0.7883  0.2556 -0.1745
   85MOL   C31227360   5.274   7.405   5.759  0.6258 -0.0727  0.0731
   85MOL   H31327361   5.284   7.659   6.202  1.0941  0.8958  1.8688
   85MOL   H31427362   5.438   7.687   6.249 -1.1984  0.7761  1.0490
   85MOL   H31527363   5.480   7.671   6.028 -0.5658 -0.1476  0.7524
   85MOL   H31627364   5.498   7.529   5.672  2.0972 -0.6851  0.0977
   85MOL   H31727365   5.496   7.647   5.798  1.0241  0.5401 -2.2473
   85MOL   H31827366   5.579   7.501   5.829 -0.9985 -1.4184 -1.0803
   85MOL   H31927367   5.292   7.421   5.653  1.0693  1.4806  0.3578
   85MOL   H32027368   5.169   7.436   5.765  0.8447  0.7091 -0.0347
   85MOL   H32127369   5.271   7.302   5.793  0.4899 -0.9100 -2.3641
   85MOL   H32227370   5.512   7.503   6.074 -0.3535 -0.3691 -0.0566
   86MOL     C127371   4.879   7.428   4.764 -0.0849  0.3728  0.9330
   86MOL     C227372   4.755   7.520   4.740  0.6119 -0.1822  0.2301
   86MOL     C327373   4.680   7.485   4.607 -0.9082 -0.8348 -0.1874
   86MOL     O427374   4.706   7.544   4.503  0.1219 -0.5683 -0.3028
   86MOL     N527375   4.588   7.384   4.609  0.3494 -0.8691  0.4103
   86MOL     C627376   4.500   7.358   4.491 -0.4072 -0.8539  0.4207
   86MOL     C727377   4.566   7.298   4.722  0.2248 -0.3040 -0.8789
   86MOL     H827378   4.952   7.470   4.695 -0.3085 -0.0240  0.4446
   86MOL     H927379   4.851   7.325   4.738 -0.3682  0.1049  2.2739
   86MOL    H1027380   4.686   7.511   4.824  1.6008  0.5495  1.1424
   86MOL    H1127381   4.470   7.256   4.469 -0.3987 -0.7461 -0.0920
   86MOL    H1227382   4.413   7.419   4.515  0.3515  0.3235  0.2088
   86MOL    H1327383   4.534   7.398   4.395  0.6907  1.0803  1.5630
   86MOL    H1427384   4.539   7.356   4.811  3.0071 -0.2884 -0.0115
   86MOL    H1527385   4.657   7.242   4.744 -0.6778 -1.0145  1.2079
   86MOL    H1627386   4.488   7.226   4.698 -2.1232  2.2223 -1.1240
   86MOL    H1727387   4.909   7.436   4.868  1.1142  1.4169  0.5140
   86MOL    C1827388   4.803   7.669   4.725 -0.1715  0.9459  0.2304
   86MOL    C1927389   4.870   7.745   4.841 -0.1360  0.8389 -0.3785
   86MOL    C2027390   5.029   7.743   4.844  0.2037  0.1326  0.5953
   86MOL    O2127391   5.083   7.687   4.937 -0.3937  0.1884 -0.7812
   86MOL    N2227392   5.103   7.809   4.755  0.4714  0.2260  0.3221
   86MOL    C2327393   5.043   0.019   4.635  0.4066 -0.7473  0.2971
   86MOL    C2427394   5.248   7.832   4.764  0.2261  0.2289 -0.6035
   86MOL    H2527395   4.865   7.678   4.635 -1.2177 -1.2620 -0.7591
   86MOL    H2627396   4.709   7.714   4.691 -1.1886 -0.7970  0.6756
   86MOL    H2727397   4.839   7.849   4.827  2.7523  1.6403 -1.1772
   86MOL    H2827398   5.103   0.101   4.594 -0.9722 -1.7535 -3.9323
   86MOL    H2927399   5.041   7.795   4.558  2.5056 -1.4883  0.9358
   86MOL    H3027400   4.945   0.065   4.647  0.8502  0.9968 -2.3169
   86MOL    H3127401   5.283   0.072   4.719 -0.8262  1.0501  0.2473
   86MOL    H3227402   5.305   7.750   4.721  1.1859  0.6780 -0.2033
   86MOL    H3327403   5.296   7.846   4.861 -1.1724  0.1972  0.1111
   86MOL    C3427404   4.796   7.709   4.968  0.2769 -0.3342 -0.1010
   86MOL    C3527405   4.814   7.801   5.092 -0.5453 -0.3176 -0.0239
   86MOL    C3627406   4.788   7.714   5.216  0.4084  0.5293 -0.2841
   86MOL    O3727407   4.680   7.651   5.225  0.3774  0.6217 -0.2073
   86MOL    N3827408   4.892   7.696   5.308  0.6887  0.0119  0.0455
   86MOL    C3927409   4.878   7.584   5.406 -0.5296 -0.3829  0.0281
   86MOL    C4027410   5.030   7.739   5.283  0.5657  0.2044  0.2478
   86MOL    H4127411   4.689   7.697   4.952  0.3740  0.7349 -1.6196
   86MOL    H4227412   4.840   7.614   4.999 -1.0091 -1.4842 -1.7496
   86MOL    H4327413   4.919   7.832   5.087 -0.0771 -1.6053  1.4833
   86MOL    H4427414   4.829   7.491   5.379  3.4111 -3.1669  1.8398
   86MOL    H4527415   4.978   7.553   5.438 -0.4431 -1.0318 -0.8503
   86MOL    H4627416   4.831   7.613   5.500 -2.6749 -0.6532 -0.9383
   86MOL    H4727417   5.067   7.679   5.200 -3.2025 -2.8001  0.5956
   86MOL    H4827418   5.091   7.719   5.371  0.0731 -1.2987  0.2667
   86MOL    H4927419   5.034   7.846   5.268  1.6208  0.1885  0.4007
   86MOL    C5027420   4.732   0.075   5.094  0.0844  0.3458 -0.0470
   86MOL    C5127421   4.743   0.182   5.208  0.2124  0.3457 -0.2934
   86MOL    C5227422   4.629   0.168   5.316  0.5516 -0.1280 -0.3905
   86MOL    O5327423   4.510   0.173   5.279  0.0564  0.4710  0.2446
   86MOL    N5427424   4.663   0.171   5.448 -0.3978  0.0795  0.5375
   86MOL    C5527425   4.575   0.204   5.552  0.1086 -0.1434 -0.8977
   86MOL    C5627426   4.787   0.120   5.511  0.0766 -0.3983 -0.6832
   86MOL    H5727427   4.757   0.132   5.004  0.0049 -2.3454 -1.8082
   86MOL    H5827428   4.629   0.048   5.075 -0.0348 -0.2214  1.3153
   86MOL    H5927429   4.837   0.178   5.263  0.1566  0.9177 -0.1602
   86MOL    H6027430   4.537   0.120   5.610 -0.1078  0.5547 -0.0035
   86MOL    H6127431   4.620   0.261   5.634  1.0073 -0.5364 -1.1141
   86MOL    H6227432   4.485   0.259   5.523  0.6483  1.3244  0.0842
   86MOL    H6327433   4.762   0.044   5.585  0.2767  0.0385 -0.1702
   86MOL    H6427434   4.843   0.200   5.559 -0.5242 -1.1887  1.3856
   86MOL    H6527435   4.845   0.067   5.435  1.0269 -0.9915  0.4296
   86MOL    C6627436   4.734   0.331   5.156  0.0093 -0.0825  0.4076
   86MOL    C6727437   4.744   0.442   5.257 -0.1592  0.0679  0.0121
   86MOL    C6827438   4.706   0.573   5.183 -0.1842  0.2084  0.6778
   86MOL    O6927439   4.748   0.589   5.068 -0.3053 -0.1442  0.2157
   86MOL    N7027440   4.622   0.665   5.233  0.6547  0.8991 -0.0571
   86MOL    C7127441   4.585   0.789   5.161  0.2942 -0.1667  1.0357
   86MOL    C7227442   4.559   0.648   5.361  0.2214 -0.1665 -0.2197
   86MOL    H7327443   4.809   0.353   5.080  0.8940  1.6423  1.7558
   86MOL    H7427444   4.640   0.349   5.102  0.4019 -0.3876 -0.3905
   86MOL    H7527445   4.673   0.418   5.337  0.3491  1.6558  0.9646
   86MOL    H7627446   4.495   0.779   5.101  1.2363 -0.3290 -0.3696
   86MOL    H7727447   4.570   0.873   5.229  0.0236 -0.2482  1.0766
   86MOL    H7827448   4.662   0.818   5.089 -0.0137  1.2318  1.2501
   86MOL    H7927449   4.532   0.736   5.419  2.2355 -0.3712  1.0935
   86MOL    H8027450   4.630   0.599   5.428  0.4875  0.8831  0.2757
   86MOL    H8127451   4.471   0.585   5.349 -0.3399  0.4812  0.3987
   86MOL    C8227452   4.886   0.481   5.320 -0.0197  0.8251  0.2195
   86MOL    C8327453   5.009   0.497   5.224  0.0980  0.5205 -0.3399
   86MOL    C8427454   5.055   0.363   5.151  0.2471  0.2572 -0.1945
   86MOL    O8527455   5.082   0.271   5.225  0.6045 -0.3193 -0.4089
   86MOL    N8627456   5.077   0.355   5.020  0.3273 -0.3591 -0.0441
   86MOL    C8727457   5.138   0.237   4.962  0.1107 -0.2937 -0.2595
   86MOL    C8827458   5.027   0.451   4.917  0.4395  0.1824 -0.7891
   86MOL    H8927459   4.862   0.575   5.368  0.6211  2.4826 -2.5541
   86MOL    H9027460   4.905   0.405   5.395  0.0968 -0.3513 -0.9697
   86MOL    H9127461   4.992   0.571   5.146  0.4629 -0.5860 -1.4791
   86MOL    H9227462   5.130   0.228   4.853 -2.4212 -1.2528 -0.0488
   86MOL    H9327463   5.242   0.223   4.989 -1.0203 -3.5452  2.7623
   86MOL    H9427464   5.088   0.149   5.003 -0.6548  0.5604  0.6457
   86MOL    H9527465   5.055   0.552   4.946 -0.1608  0.5505 -1.4640
   86MOL    H9627466   4.918   0.454   4.914  0.3689 -1.2609 -0.2758
   86MOL    H9727467   5.062   0.432   4.816  1.7627 -1.1964 -0.0805
   86MOL    C9827468   5.137   0.561   5.292  0.2439 -0.1042  0.2235
   86MOL    C9927469   5.282   0.563   5.216 -0.5517  0.6421 -0.1022
   86MOL   C10027470   5.399   0.573   5.310  1.0299 -0.3155 -0.4693
   86MOL   O10127471   5.424   0.683   5.354 -0.1019 -0.0302 -0.5668
   86MOL   N10227472   5.463   0.465   5.354 -0.2222  0.4192  0.2762
   86MOL   C10327473   5.563   0.475   5.459  0.3353  0.7630 -0.3968
   86MOL   C10427474   5.438   0.328   5.315  0.0761  0.1678  0.3224
   86MOL   H10527475   5.116   0.663   5.326  1.6601  0.4845 -0.6255
   86MOL   H10627476   5.150   0.504   5.384  1.6979 -0.8210 -0.4202
   86MOL   H10727477   5.297   0.472   5.158  2.2064 -0.4004  2.0869
   86MOL   H10827478   5.597   0.576   5.484  1.4950  0.9588 -2.6556
   86MOL   H10927479   5.518   0.435   5.550  0.7024  1.8650  0.2796
   86MOL   H11027480   5.646   0.406   5.444 -1.6311 -2.1449  1.6272
   86MOL   H11127481   5.454   0.256   5.396  0.6965 -1.5154 -1.2612
   86MOL   H11227482   5.503   0.304   5.232 -1.3793  0.3308 -0.8851
   86MOL   H11327483   5.334   0.311   5.285  0.6785 -0.4062 -1.4865
   86MOL   C11427484   5.291   0.683   5.117  0.0822  0.9243 -0.4258
   86MOL   C11527485   5.422   0.696   5.040 -0.1226  0.3673  0.2948
   86MOL   C11627486   5.419   0.825   4.953  0.0330  0.2811 -0.0013
   86MOL   O11727487   5.338   0.838   4.864  0.7212  0.0482 -0.2332
   86MOL   N11827488   5.496   0.932   4.973 -0.2400 -0.5461  0.0102
   86MOL   C11927489   5.591   0.946   5.082  0.1854  0.6346 -0.1623
   86MOL   C12027490   5.472   1.062   4.904  0.0669  0.1767 -0.0734
   86MOL   H12127491   5.212   0.681   5.041  0.4373  1.6545 -0.8170
   86MOL   H12227492   5.283   0.778   5.169  0.6175  0.9302 -0.3596
   86MOL   H12327493   5.502   0.709   5.112 -0.6807 -0.2402  1.0334
   86MOL   H12427494   5.665   1.025   5.068  0.2584  0.4364 -0.9030
   86MOL   H12527495   5.535   0.957   5.175  0.6839 -1.5098  0.4223
   86MOL   H12627496   5.651   0.856   5.097  0.5079  0.5303 -2.0244
   86MOL   H12727497   5.417   1.059   4.811 -1.4055 -0.6560  0.8084
   86MOL   H12827498   5.567   1.112   4.888 -0.3351  1.4011  1.2175
   86MOL   H12927499   5.422   1.125   4.977 -1.1502 -0.0532 -0.6997
   86MOL   C13027500   5.469   0.572   4.955  0.7598 -0.3790  0.0038
   86MOL   C13127501   5.608   0.511   4.996  0.4309 -0.5260 -0.6381
   86MOL   C13227502   5.725   0.606   4.962  0.1116 -0.1979 -0.2041
   86MOL   O13327503   5.720   0.665   4.852 -0.2415 -0.1114  0.0722
   86MOL   N13427504   5.814   0.640   5.061  0.5069  0.0636  1.0390
   86MOL   C13527505   5.841   0.560   5.179  0.2999 -0.7338 -0.7235
   86MOL   C13627506   5.918   0.745   5.042 -0.7286  0.5614 -0.3208
   86MOL   H13727507   5.391   0.496   4.950  0.2236  0.3067 -2.9176
   86MOL   H13827508   5.484   0.605   4.852 -2.4057  0.9008 -0.1179
   86MOL   H13927509   5.607   0.496   5.104  1.4343  0.5036 -0.4813
   86MOL   H14027510   5.760   0.560   5.253  0.2878  0.0043 -0.7352
   86MOL   H14127511   5.866   0.456   5.159 -1.9855 -1.1483 -1.5831
   86MOL   H14227512   5.929   0.607   5.223  1.2007 -1.0683 -2.1336
   86MOL   H14327513   6.016   0.697   5.041 -1.7749 -1.6901  0.7465
   86MOL   H14427514   5.902   0.818   5.121 -0.0688  0.1928  0.1643
   86MOL   H14527515   5.901   0.788   4.943  1.6337 -0.9433 -1.4340
   86MOL   C14627516   5.639   0.377   4.929  0.3650  0.6742 -0.8660
   86MOL   C14727517   5.634   0.361   4.777  0.3233  0.2818  0.2270
   86MOL   C14827518   5.486   0.352   4.736 -0.4068  0.4602  0.2704
   86MOL   O14927519   5.407   0.304   4.816 -0.4471  0.6153  0.1638
   86MOL   N15027520   5.442   0.411   4.618  0.1801  0.0493  0.1864
   86MOL   C15127521   5.529   0.457   4.501  0.3276  0.3351 -0.5754
   86MOL   C15227522   5.300   0.432   4.606 -0.0832 -0.2154  0.3834
   86MOL   H15327523   5.740   0.358   4.963  0.3701 -1.2019 -1.8472
   86MOL   H15427524   5.581   0.306   4.989  0.4795 -0.4040 -1.9969
   86MOL   H15527525   5.669   0.449   4.724  0.1797 -1.0853 -2.1921
   86MOL   H15627526   5.510   0.387   4.419  1.3812  0.6575 -1.0955
   86MOL   H15727527   5.496   0.558   4.475  1.2608  0.7341 -0.2296
   86MOL   H15827528   5.636   0.446   4.518 -0.1375  0.1440  2.6037
   86MOL   H15927529   5.236   0.357   4.653  0.7676 -2.9972 -2.6930
   86MOL   H16027530   5.264   0.437   4.503 -1.3443  0.5389  0.8382
   86MOL   H16127531   5.272   0.531   4.643  0.6764 -0.2428  1.0405
   86MOL   C16227532   5.712   0.228   4.739 -0.0087 -0.5971 -0.0298
   86MOL   C16327533   5.871   0.252   4.726  0.7023  0.5379 -0.8073
   86MOL   C16427534   5.918   0.355   4.623  0.2214  0.8051  0.2897
   86MOL   O16527535   5.869   0.345   4.515 -0.2161 -0.7386 -0.6229
   86MOL   N16627536   6.015   0.445   4.654  0.3325  0.0710 -0.6695
   86MOL   C16727537   6.067   0.553   4.568 -0.1278 -0.1465 -0.4888
   86MOL   C16827538   6.071   0.446   4.784 -0.6907 -0.0516  0.7179
   86MOL   H16927539   5.678   0.148   4.804 -0.8975  0.0987  0.3717
   86MOL   H17027540   5.684   0.194   4.639  1.1186 -0.7324 -0.3154
   86MOL   H17127541   5.900   0.288   4.825 -4.2898 -1.8007  1.6939
   86MOL   H17227542   6.172   0.576   4.587  0.3125 -1.8901 -0.7918
   86MOL   H17327543   6.059   0.515   4.466 -0.0588  0.1956 -0.6235
   86MOL   H17427544   6.008   0.645   4.567 -1.8484 -1.2314 -1.6352
   86MOL   H17527545   6.100   0.341   4.796 -0.3661  0.1839  2.1016
   86MOL   H17627546   6.005   0.463   4.869 -0.6013 -1.8058  1.1618
   86MOL   H17727547   6.169   0.492   4.790 -0.2102 -1.0687  0.8490
   86MOL   C17827548   5.945   0.114   4.699 -0.2975 -0.7672 -0.1631
   86MOL   C17927549   5.905   0.038   4.569  0.0911 -0.8062 -0.0857
   86MOL   C18027550   5.769   7.820   4.566  0.0137  0.9389  0.3594
   86MOL   O18127551   5.727   7.765   4.669 -0.0425  0.1290  0.2429
   86MOL   N18227552   5.688   7.819   4.458 -0.3334 -0.0176 -0.4369
   86MOL   C18327553   5.567   7.738   4.452 -0.6093 -0.1895 -0.3019
   86MOL   C18427554   5.718   0.028   4.330 -0.0393 -0.4970 -0.1495
   86MOL   H18527555   6.049   0.148   4.702  0.1631 -2.1738  0.0621
   86MOL   H18627556   5.934   0.044   4.781 -0.1406  0.7959  1.2150
   86MOL   H18727557   5.902   0.107   4.484  0.6303  0.5983  1.0027
   86MOL   H18827558   5.581   7.666   4.371 -0.2633  0.7514 -1.0947
   86MOL   H18927559   5.546   7.674   4.538 -0.9224 -1.1814 -1.0994
   86MOL   H19027560   5.472   7.786   4.427  0.2831  1.7779 -0.0164
   86MOL   H19127561   5.815   7.846   4.294  0.8372  1.3704  0.3011
   86MOL   H19227562   5.707   0.137   4.324  1.3355 -0.4194 -1.6445
   86MOL   H19327563   5.651   0.008   4.246 -1.7912  1.7751  0.6512
   86MOL   C19427564   6.006   7.786   4.529 -0.0753  0.2924  0.3210
   86MOL   C19527565   6.145   7.820   4.476 -0.6537  0.0678  0.7149
   86MOL   C19627566   6.149   0.072   4.362  0.3733  0.1511 -0.0125
   86MOL   O19727567   6.070   0.056   4.271  0.2997 -0.2741 -0.2339
   86MOL   N19827568   6.242   0.178   4.369  0.0379 -0.0240 -0.1304
   86MOL   C19927569   6.217   0.297   4.292 -0.1446  0.1683  0.3000
   86MOL   C20027570   6.354   0.180   4.459  0.1821 -0.4272 -0.3618
   86MOL   H20127571   6.004   7.716   4.613  0.7724 -0.0351  0.0659
   86MOL   H20227572   5.962   7.721   4.454  0.4885  0.3650 -0.0728
   86MOL   H20327573   6.201   0.006   4.561  0.8956 -1.8447  0.6128
   86MOL   H20427574   6.116   0.333   4.314 -0.8892 -0.4226 -2.0692
   86MOL   H20527575   6.290   0.377   4.307 -0.7382  0.9484 -0.8670
   86MOL   H20627576   6.220   0.280   4.185  0.7984  0.8941  0.2039
   86MOL   H20727577   6.433   0.237   4.412 -1.9750  4.1849  1.2600
   86MOL   H20827578   6.392   0.087   4.501  2.3555  0.6489  0.0994
   86MOL   H20927579   6.315   0.235   4.546 -0.5876 -2.0542  0.3464
   86MOL   C21027580   6.217   7.694   4.414  0.1245 -0.5665 -0.4223
   86MOL   C21127581   6.211   7.568   4.503  0.4012 -0.0808 -0.0032
   86MOL   C21227582   6.256   7.597   4.650  0.0123  0.6794  0.3665
   86MOL   O21327583   6.353   7.668   4.662  0.5377 -0.1842  0.0272
   86MOL   N21427584   6.195   7.540   4.755 -0.0606 -0.3645 -0.4779
   86MOL   C21527585   6.256   7.551   4.888 -0.5745 -0.0996  0.0791
   86MOL   C21627586   6.083   7.442   4.751 -0.5804  0.4390  0.4214
   86MOL   H21727587   6.194   7.663   4.312  0.6070  0.8256 -0.9672
   86MOL   H21827588   6.319   7.733   4.408 -0.2726  0.9305  1.8460
   86MOL   H21927589   6.108   7.534   4.508 -0.1775  1.6203 -0.1565
   86MOL   H22027590   6.330   7.471   4.889 -0.2524  0.1989 -0.1371
   86MOL   H22127591   6.302   7.649   4.902  2.2583 -1.4744  0.8140
   86MOL   H22227592   6.192   7.530   4.974  0.0894  0.0679  0.6206
   86MOL   H22327593   6.099   7.360   4.681  0.1283  0.3048  0.7357
   86MOL   H22427594   5.987   7.488   4.730 -1.5416 -1.8139 -0.2572
   86MOL   H22527595   6.060   7.396   4.847 -2.2989 -1.0651 -0.6814
   86MOL   C22627596   6.306   7.463   4.436  0.9778 -0.1408 -0.0146
   86MOL   C22727597   6.234   7.385   4.326  0.0690 -0.0571 -0.2963
   86MOL   C22827598   6.126   7.292   4.399  0.0156  0.0580 -0.7003
   86MOL   O22927599   6.166   7.202   4.469 -0.3384 -0.0205 -0.0185
   86MOL   N23027600   5.991   7.309   4.381  1.0543  0.8185 -0.2379
   86MOL   C23127601   5.925   7.418   4.306 -0.3041 -0.5599 -0.1828
   86MOL   C23227602   5.909   7.221   4.458 -0.0359 -0.1399  0.3120
   86MOL   H23327603   6.397   7.506   4.396  1.0678  1.4067  1.7861
   86MOL   H23427604   6.347   7.398   4.514  2.0926  1.0192  0.3709
   86MOL   H23527605   6.180   7.453   4.260 -0.0671  0.8124  0.7072
   86MOL   H23627606   5.941   7.408   4.199 -4.1022  1.1379 -0.9950
   86MOL   H23727607   5.816   7.419   4.310 -0.4012 -2.8972 -1.0635
   86MOL   H23827608   5.965   7.515   4.334 -2.1162  0.1196  0.1190
   86MOL   H23927609   5.806   7.256   4.460  0.0372  0.4455 -3.2809
   86MOL   H24027610   5.941   7.215   4.562  0.6953  2.0044  0.2274
   86MOL   H24127611   5.903   7.126   4.403  0.2886 -0.2847  0.5224
   86MOL   C24227612   6.355   7.306   4.260  0.5099  0.0346  0.2825
   86MOL   C24327613   6.334   7.175   4.178  0.3612 -0.5182 -0.4194
   86MOL   C24427614   6.469   7.104   4.175  0.9179 -0.3957 -0.8464
   86MOL   O24527615   6.548   7.135   4.083  0.3538 -0.3519  0.0584
   86MOL   N24627616   6.504   7.034   4.285 -0.2702 -0.2200 -0.1383
   86MOL   C24727617   6.646   7.002   4.314 -0.2733 -0.2927  0.1527
   86MOL   C24827618   6.413   6.978   4.390 -0.0844  0.3583 -0.2285
   86MOL   H24927619   6.410   7.368   4.189  2.0111 -0.1118  1.2836
   86MOL   H25027620   6.434   7.294   4.335 -0.2311  1.5080  1.3194
   86MOL   H25127621   6.268   7.111   4.236  0.2105  0.1805  0.1759
   86MOL   H25227622   6.673   6.900   4.287  1.7708  0.1398  0.4191
   86MOL   H25327623   6.715   7.072   4.266  0.2967 -0.3882  0.8120
   86MOL   H25427624   6.670   6.998   4.420 -1.3032 -0.4209  0.3824
   86MOL   H25527625   6.469   6.918   4.463 -0.1003 -1.1559 -1.4471
   86MOL   H25627626   6.347   6.903   4.348 -1.9393  1.2178  1.0897
   86MOL   H25727627   6.359   7.059   4.439  1.6497  1.8912 -0.8055
   86MOL   C25827628   6.275   7.201   4.027  0.0847  0.7281 -0.2041
   86MOL   C25927629   6.262   7.070   3.927  0.2481 -0.6229 -0.2506
   86MOL   C26027630   6.235   7.120   3.783  0.6149  0.2423 -0.2294
   86MOL   O26127631   6.127   7.167   3.753  0.2128 -0.1312  0.3475
   86MOL   N26227632   6.328   7.125   3.681 -0.5147  0.7551 -0.0355
   86MOL   C26327633   6.303   7.172   3.546  0.3965 -0.4604  0.3089
   86MOL   C26427634   6.474   7.097   3.700 -0.3329  0.4564  0.7747
   86MOL   H26527635   6.174   7.243   4.034 -1.3424 -2.6922  0.4192
   86MOL   H26627636   6.334   7.270   3.966  0.4509 -0.1864 -0.8839
   86MOL   H26727637   6.352   7.008   3.932  1.2081  0.7807 -0.0398
   86MOL   H26827638   6.338   7.102   3.470 -0.9716  1.0465 -1.7618
   86MOL   H26927639   6.204   7.204   3.511  0.7493  1.4132  0.9369
   86MOL   H27027640   6.359   7.265   3.536 -2.1511  1.1078 -0.0148
   86MOL   H27127641   6.520   7.151   3.783  0.0191 -1.3736  1.7850
   86MOL   H27227642   6.535   7.132   3.617  1.2886 -0.1183  1.7147
   86MOL   H27327643   6.491   6.992   3.723 -0.9508  0.5930  1.9116
   86MOL   C27427644   6.147   6.976   3.975 -0.3519  0.5525 -0.2449
   86MOL   C27527645   6.194   6.838   4.029  0.3605  0.2092 -0.6776
   86MOL   C27627646   6.253   6.752   3.923  0.2496  0.8557 -0.4872
   86MOL   O27727647   6.181   6.728   3.829  0.4294  0.0754  0.4535
   86MOL   N27827648   6.379   6.702   3.932  0.9892 -0.5711 -0.4472
   86MOL   C27927649   6.428   6.618   3.825  0.4342 -0.0402 -0.3854
   86MOL   C28027650   6.470   6.719   4.047 -0.1350  0.3008  0.0020
   86MOL   H28127651   6.086   7.036   4.043  0.4121  2.7226 -1.4385
   86MOL   H28227652   6.080   6.950   3.893 -0.8200  1.2383 -0.0867
   86MOL   H28327653   6.274   6.851   4.102 -0.7633  0.7125  0.4783
   86MOL   H28427654   6.464   6.684   3.746  0.7256  3.1730  2.3700
   86MOL   H28527655   6.494   6.535   3.848 -0.8402 -1.1983 -0.7897
   86MOL   H28627656   6.348   6.553   3.789  1.8604 -1.6878 -0.6487
   86MOL   H28727657   6.503   6.823   4.053 -1.6509  1.0009 -3.0290
   86MOL   H28827658   6.563   6.669   4.021  0.4155  1.1930  0.2239
   86MOL   H28927659   6.435   6.689   4.146  0.9060  2.8156  1.1828
   86MOL   C29027660   6.082   6.771   4.110  0.1071  0.3177  0.4210
   86MOL   C29127661   6.118   6.650   4.206 -0.3676  0.0497  0.2572
   86MOL   C29227662   6.112   6.523   4.129  0.0871  0.0240  0.0054
   86MOL   O29327663   6.009   6.500   4.067 -0.0558 -0.0003  0.0749
   86MOL   N29427664   6.224   6.443   4.118 -0.5415 -0.2280  0.6221
   86MOL   C29527665   6.344   6.441   4.205 -0.3277  0.1682 -0.0571
   86MOL   C29627666   6.235   6.342   4.006  0.0041  0.5351 -0.2057
   86MOL   H29727667   6.036   6.853   4.165 -1.5059 -0.6785  0.6211
   86MOL   H29827668   5.999   6.740   4.047 -0.1132  1.9015 -0.0749
   86MOL   H29927669   6.213   6.682   4.249  0.1741  0.0782 -0.9674
   86MOL   H30027670   6.441   6.459   4.159 -0.0063 -2.7222 -0.6536
   86MOL   H30127671   6.325   6.505   4.291  1.4062 -2.2322  2.2225
   86MOL   H30227672   6.349   6.342   4.250 -2.0139  0.1278  0.1023
   86MOL   H30327673   6.267   6.240   4.024 -0.4649 -0.0653 -2.5446
   86MOL   H30427674   6.309   6.380   3.935 -0.9617  1.2056 -0.8749
   86MOL   H30527675   6.145   6.314   3.950 -0.3917 -1.0512  1.1933
   86MOL   C30627676   6.021   6.637   4.329 -0.5531 -0.7775 -0.8367
   86MOL   C30727677   6.028   6.754   4.432 -0.0658 -0.3070 -0.4059
   86MOL   C30827678   6.153   6.752   4.524  0.6103  0.1620 -0.0702
   86MOL   O30927679   6.248   6.675   4.503  0.4792  0.3265 -0.3326
   86MOL   N31027680   6.154   6.838   4.628  0.3876  0.0083 -0.7124
   86MOL   C31127681   6.271   6.859   4.719  0.0049 -0.4749 -0.0370
   86MOL   C31227682   6.035   6.928   4.655 -0.2210  0.0284 -0.4977
   86MOL   H31327683   5.920   6.644   4.288 -0.9659  0.9171  0.4245
   86MOL   H31427684   6.029   6.542   4.381 -0.9467 -0.2803  0.1424
   86MOL   H31527685   6.029   6.854   4.390 -1.0124  0.2955  0.9932
   86MOL   H31627686   6.367   6.855   4.666 -1.5555  1.1808 -3.0648
   86MOL   H31727687   6.268   6.958   4.764 -4.4611 -1.2535  1.5825
   86MOL   H31827688   6.271   6.783   4.797 -0.9184 -0.0720  0.3533
   86MOL   H31927689   6.043   7.000   4.737 -0.6960 -0.7551  0.2501
   86MOL   H32027690   5.941   6.877   4.677 -0.8501  1.6493  0.7097
   86MOL   H32127691   6.011   6.982   4.563  1.9222  1.1084 -0.4336
   86MOL   H32227692   5.943   6.743   4.499  0.9186 -3.9075  0.3792
   87MOL     C127693   2.155   1.160   1.848  0.3024  1.3295 -0.1930
   87MOL     C227694   2.197   1.284   1.942  0.1541 -0.1305  0.2458
   87MOL     C327695   2.308   1.360   1.866 -0.5598  0.3191  0.4696
   87MOL     O427696   2.394   1.304   1.798 -0.2672 -0.0434  0.0983
   87MOL     N527697   2.309   1.491   1.875 -0.6069 -0.2321 -0.2049
   87MOL     C627698   2.386   1.574   1.780 -0.9038 -0.5026  0.8462
   87MOL     C727699   2.272   1.565   1.987  0.0711  0.4931 -0.3272
   87MOL     H827700   2.065   1.116   1.891 -0.4389  0.9978 -2.0477
   87MOL     H927701   2.241   1.094   1.834  0.6641  1.9874 -1.0724
   87MOL    H1027702   2.100   1.336   1.943 -0.1350 -0.6535 -0.4103
   87MOL    H1127703   2.346   1.676   1.782 -1.3552 -0.6963  2.5909
   87MOL    H1227704   2.494   1.570   1.793 -1.1116  0.5584  3.0947
   87MOL    H1327705   2.381   1.535   1.678 -2.2773 -0.4685  0.8928
   87MOL    H1427706   2.237   1.664   1.959 -3.2597 -1.0775 -1.8943
   87MOL    H1527707   2.349   1.575   2.065 -2.1832  1.5658  1.8279
   87MOL    H1627708   2.187   1.518   2.037  2.2254 -2.2292  0.9422
   87MOL    H1727709   2.118   1.196   1.752  0.1099  1.5699 -0.0265
   87MOL    C1827710   2.230   1.249   2.092 -0.3162  0.1138  0.8216
   87MOL    C1927711   2.364   1.170   2.126 -0.2504 -0.2102  0.4515
   87MOL    C2027712   2.351   1.025   2.077  0.2727  0.3616  0.2629
   87MOL    O2127713   2.243   0.964   2.096 -0.8477  0.0058  0.5854
   87MOL    N2227714   2.462   0.965   2.021 -0.6665  0.2473 -0.0870
   87MOL    C2327715   2.472   0.826   1.995 -0.1007  0.3652  0.2679
   87MOL    C2427716   2.581   1.040   1.975  0.2795  0.1518  0.5265
   87MOL    H2527717   2.229   1.341   2.150  1.2458  0.8810 -0.3137
   87MOL    H2627718   2.156   1.189   2.144  0.3226 -1.0276  0.4477
   87MOL    H2727719   2.440   1.218   2.064  1.2713 -0.5120  2.0497
   87MOL    H2827720   2.450   0.797   1.892 -0.8900 -1.4340  0.9113
   87MOL    H2927721   2.566   0.775   2.013  0.5609  1.2325 -0.7060
   87MOL    H3027722   2.396   0.773   2.054  1.8396 -1.2970  1.3299
   87MOL    H3127723   2.625   1.101   2.054  2.2494 -1.7514  0.9651
   87MOL    H3227724   2.535   1.105   1.900 -1.9240 -0.6647  1.1337
   87MOL    H3327725   2.655   0.972   1.932 -0.2144  0.6836 -1.1942
   87MOL    C3427726   2.411   1.167   2.274 -0.0748 -0.1928 -0.2292
   87MOL    C3527727   2.444   1.302   2.341 -0.8279  0.2763  0.0910
   87MOL    C3627728   2.554   1.377   2.266  0.4684 -0.0719 -0.4469
   87MOL    O3727729   2.642   1.308   2.219  0.4000  0.4200  0.4391
   87MOL    N3827730   2.557   1.511   2.254 -0.0354 -0.6348 -0.4409
   87MOL    C3927731   2.652   1.571   2.164  0.3211  0.2900  0.3932
   87MOL    C4027732   2.456   1.604   2.315  0.2262  0.7167  0.5100
   87MOL    H4127733   2.339   1.110   2.332  1.0068 -1.3882 -0.0430
   87MOL    H4227734   2.504   1.110   2.271 -0.3117 -0.5368 -1.6986
   87MOL    H4327735   2.353   1.361   2.350 -1.9814 -1.6869  1.6919
   87MOL    H4427736   2.599   1.586   2.070  1.3205 -1.0353 -0.3999
   87MOL    H4527737   2.685   1.670   2.195 -1.9153  1.7197 -1.5575
   87MOL    H4627738   2.750   1.525   2.151  0.7479  0.6718  2.1413
   87MOL    H4727739   2.351   1.574   2.305  0.3450 -0.6260  2.7070
   87MOL    H4827740   2.464   1.704   2.274 -1.4870  0.4366 -0.5568
   87MOL    H4927741   2.469   1.601   2.424 -0.4014 -1.1201  0.5622
   87MOL    C5027742   2.495   1.271   2.484 -0.6136 -0.0210  0.9245
   87MOL    C5127743   2.383   1.254   2.599 -0.0274 -0.6043  0.3713
   87MOL    C5227744   2.332   1.394   2.648  0.7322 -0.0696  1.1321
   87MOL    O5327745   2.408   1.491   2.629 -0.1255  0.7760  0.4024
   87MOL    N5427746   2.215   1.405   2.715 -0.1082 -0.2595 -0.2208
   87MOL    C5527747   2.110   1.308   2.709  0.5168  0.7967 -0.3347
   87MOL    C5627748   2.168   1.533   2.779  0.0345 -0.4419  0.8986
   87MOL    H5727749   2.556   1.184   2.463 -1.9332 -0.9152  0.7577
   87MOL    H5827750   2.575   1.339   2.512 -0.4177 -0.3244  1.0910
   87MOL    H5927751   2.302   1.198   2.554 -0.7825  0.0044  0.9605
   87MOL    H6027752   2.145   1.204   2.710 -1.8526 -0.0578  3.1117
   87MOL    H6127753   2.043   1.306   2.795 -1.1856  0.4483 -1.6225
   87MOL    H6227754   2.048   1.321   2.620 -0.1503  0.5622  0.0923
   87MOL    H6327755   2.212   1.625   2.740 -0.2393 -1.2688 -1.4739
   87MOL    H6427756   2.200   1.528   2.883 -1.4560  2.1541  1.5241
   87MOL    H6527757   2.059   1.541   2.772  0.1877  0.9869 -0.0610
   87MOL    C6627758   2.441   1.185   2.726  0.1097  0.3569 -0.4522
   87MOL    C6727759   2.487   1.041   2.698  0.1686  0.3428 -0.2492
   87MOL    C6827760   2.399   0.950   2.616  0.2602  0.2081  0.7788
   87MOL    O6927761   2.281   0.938   2.655 -0.5230 -0.0990 -0.3973
   87MOL    N7027762   2.444   0.888   2.505 -0.5318 -0.1476 -0.1416
   87MOL    C7127763   2.588   0.869   2.477 -0.2583 -0.4721 -0.0406
   87MOL    C7227764   2.365   0.808   2.417 -0.0970  0.0445  0.1221
   87MOL    H7327765   2.525   1.238   2.771 -0.7920  0.2919  1.3764
   87MOL    H7427766   2.361   1.193   2.800  0.3805  0.2588 -0.1470
   87MOL    H7527767   2.574   1.056   2.634 -2.1733 -0.6430 -3.8196
   87MOL    H7627768   2.600   0.767   2.442  0.2743 -1.1751  2.0780
   87MOL    H7727769   2.629   0.928   2.395  0.4450 -0.1840  0.5136
   87MOL    H7827770   2.653   0.880   2.564  1.3578 -0.9759 -1.1537
   87MOL    H7927771   2.378   0.700   2.424 -4.1810 -0.4475  1.1262
   87MOL    H8027772   2.382   0.833   2.313 -1.7096  2.2066  0.3627
   87MOL    H8127773   2.258   0.822   2.425  0.0327  0.0065  2.3141
   87MOL    C8227774   2.536   0.971   2.834 -0.6408  0.0404  0.2125
   87MOL    C8327775   2.670   1.025   2.886  0.3764  0.2145 -0.0955
   87MOL    C8427776   2.782   0.953   2.811 -0.0659 -0.5366 -0.5413
   87MOL    O8527777   2.792   0.832   2.835 -0.2310 -0.0894  0.1386
   87MOL    N8627778   2.873   1.020   2.730 -0.0946 -0.2088 -0.5803
   87MOL    C8727779   2.858   1.167   2.700  0.8305  0.8121  0.5980
   87MOL    C8827780   2.987   0.950   2.676 -0.0035 -0.1614 -0.0057
   87MOL    H8927781   2.460   0.969   2.913  1.5602  0.1672  2.3802
   87MOL    H9027782   2.547   0.864   2.818  1.5539  0.5955 -2.3237
   87MOL    H9127783   2.674   1.134   2.875  2.0104  0.2902  1.0076
   87MOL    H9227784   2.918   1.192   2.613  1.9845 -1.8074  0.6020
   87MOL    H9327785   2.755   1.198   2.681 -0.7193 -4.6023 -0.5653
   87MOL    H9427786   2.905   1.222   2.782  0.7234  0.0735  1.1498
   87MOL    H9527787   2.957   0.847   2.660  0.1731 -0.6366  2.4399
   87MOL    H9627788   3.064   0.963   2.752 -1.7785 -1.2152  2.0454
   87MOL    H9727789   3.025   0.996   2.585  0.8117  1.4248  1.0934
   87MOL    C9827790   2.683   1.000   3.035  0.4800  0.2863 -0.2154
   87MOL    C9927791   2.813   1.031   3.107  0.2675 -0.1582  0.5702
   87MOL   C10027792   2.818   0.963   3.247 -0.4678 -0.6489  0.5220
   87MOL   O10127793   2.796   1.031   3.348 -0.1293  0.5943  0.6760
   87MOL   N10227794   2.846   0.829   3.257 -0.3637 -0.1072 -0.4795
   87MOL   C10327795   2.829   0.778   3.396  0.3950  0.4177  0.4507
   87MOL   C10427796   2.903   0.743   3.160 -0.2847 -0.4771  0.1626
   87MOL   H10527797   2.606   1.054   3.090  1.4636  0.2582  1.2340
   87MOL   H10627798   2.651   0.896   3.044  0.3451  0.2402 -1.2364
   87MOL   H10727799   2.894   0.978   3.056 -0.1683  0.5946 -0.9504
   87MOL   H10827800   2.783   0.681   3.376  1.1247 -0.1963  1.7217
   87MOL   H10927801   2.923   0.767   3.449  1.4776 -0.1313 -1.5509
   87MOL   H11027802   2.753   0.837   3.446 -2.1545 -1.0498 -1.5234
   87MOL   H11127803   2.868   0.641   3.178 -0.1381 -0.6161 -0.3173
   87MOL   H11227804   3.011   0.755   3.153 -0.4248 -0.1690 -1.8570
   87MOL   H11327805   2.878   0.760   3.055 -0.4431 -0.4159  0.2093
   87MOL   C11427806   2.845   1.177   3.096  0.0392 -0.1411  0.2276
   87MOL   C11527807   2.750   1.274   3.157  0.9240  0.0336  0.2733
   87MOL   C11627808   2.671   1.358   3.064 -0.2766 -0.1365  0.0398
   87MOL   O11727809   2.723   1.418   2.972 -0.2440 -0.1339  0.4203
   87MOL   N11827810   2.534   1.370   3.083 -0.3227  0.0318  0.2549
   87MOL   C11927811   2.448   1.449   2.997  0.6171  0.4502 -0.2375
   87MOL   C12027812   2.450   1.326   3.194  0.0070 -0.2244 -0.2705
   87MOL   H12127813   2.948   1.187   3.130 -0.5358 -1.5629  2.5313
   87MOL   H12227814   2.861   1.200   2.991  3.1742 -0.7464  0.5124
   87MOL   H12327815   2.682   1.218   3.222 -1.6371  3.1379  0.4055
   87MOL   H12427816   2.411   1.541   3.044 -1.9991  0.1891 -1.6955
   87MOL   H12527817   2.501   1.476   2.905  0.0007  1.8933 -0.1912
   87MOL   H12627818   2.365   1.388   2.964  1.2030  0.5767 -2.0187
   87MOL   H12727819   2.345   1.321   3.167 -0.2806  1.6930  0.4791
   87MOL   H12827820   2.466   1.399   3.273 -0.6958  1.1851 -1.4079
   87MOL   H12927821   2.470   1.221   3.218 -1.8199 -0.2144  1.3036
   87MOL   C13027822   2.833   1.372   3.249  0.1971 -0.1153  0.7917
   87MOL   C13127823   2.755   1.430   3.375 -0.2223 -0.2715 -0.1668
   87MOL   C13227824   2.842   1.540   3.448 -0.3225 -0.0638  0.1101
   87MOL   O13327825   2.911   1.503   3.546 -0.0722 -0.3763 -0.0403
   87MOL   N13427826   2.836   1.665   3.405 -0.2135 -0.2584 -0.1537
   87MOL   C13527827   2.934   1.759   3.458  0.3929 -0.2781 -0.4955
   87MOL   C13627828   2.753   1.709   3.289  0.4795 -0.5548  0.3344
   87MOL   H13727829   2.916   1.313   3.286 -0.3242 -0.6113  1.1686
   87MOL   H13827830   2.885   1.452   3.196  0.1983  0.4792  1.6787
   87MOL   H13927831   2.666   1.485   3.346 -0.4880 -0.2411  0.7083
   87MOL   H14027832   2.942   1.739   3.565 -0.1989 -1.4843 -0.6728
   87MOL   H14127833   3.038   1.742   3.430  0.3397  0.3064 -1.0662
   87MOL   H14227834   2.893   1.860   3.448  0.5436 -0.2238 -0.5701
   87MOL   H14327835   2.650   1.675   3.300  0.6045 -1.2840 -0.6464
   87MOL   H14427836   2.788   1.666   3.195  0.2856  0.2109 -0.0898
   87MOL   H14527837   2.748   1.818   3.281  0.2355 -0.6469 -0.9357
   87MOL   C14627838   2.711   1.320   3.465  0.2856 -0.0151  0.0435
   87MOL   C14727839   2.637   1.354   3.603 -0.2349 -0.7850  0.2235
   87MOL   C14827840   2.598   1.226   3.677 -0.9799 -0.6055 -0.3908
   87MOL   O14927841   2.492   1.167   3.657  0.4980 -0.4162 -0.2545
   87MOL   N15027842   2.691   1.171   3.749  0.2707 -0.2469  0.0400
   87MOL   C15127843   2.687   1.033   3.793 -0.0555 -0.0461 -0.3027
   87MOL   C15227844   2.827   1.234   3.771  0.7527  0.0410 -0.1272
   87MOL   H15327845   2.632   1.264   3.414  2.5711 -1.0629 -2.4428
   87MOL   H15427846   2.792   1.249   3.484 -0.3561 -0.8191 -0.1690
   87MOL   H15527847   2.702   1.426   3.655  0.3402  1.3193 -3.2532
   87MOL   H15627848   2.603   1.014   3.861  1.0056  0.2884  1.1348
   87MOL   H15727849   2.647   0.974   3.711  2.2415  1.4811 -2.5692
   87MOL   H15827850   2.777   0.978   3.819  0.6206  0.8288 -0.7991
   87MOL   H15927851   2.887   1.248   3.681  0.3984 -2.3508 -0.7716
   87MOL   H16027852   2.885   1.170   3.837  1.5232  0.8335 -0.0291
   87MOL   H16127853   2.808   1.328   3.823  1.5063  1.1728 -1.8349
   87MOL   C16227854   2.503   1.430   3.569  0.3493 -0.1412 -0.3003
   87MOL   C16327855   2.403   1.471   3.679  0.0472 -0.6267 -0.4837
   87MOL   C16427856   2.270   1.512   3.616 -0.3063  0.4175 -0.2449
   87MOL   O16527857   2.270   1.620   3.560  0.2493  0.5889  0.1671
   87MOL   N16627858   2.166   1.431   3.612  0.0362  0.1656  0.0053
   87MOL   C16727859   2.036   1.457   3.545  0.6902 -0.1737  0.5285
   87MOL   C16827860   2.158   1.303   3.674  0.2277 -0.5564  0.5647
   87MOL   H16927861   2.521   1.521   3.511 -1.5560  0.6070  0.2340
   87MOL   H17027862   2.452   1.363   3.499  1.9220 -0.6654 -0.9610
   87MOL   H17127863   2.385   1.383   3.741 -5.6158  0.6735 -0.0617
   87MOL   H17227864   2.037   1.458   3.436 -0.1507  1.7659  0.5318
   87MOL   H17327865   1.955   1.386   3.565 -0.4366  0.8672 -0.2829
   87MOL   H17427866   1.998   1.551   3.585 -1.6998 -0.0667 -1.8403
   87MOL   H17527867   2.054   1.271   3.687 -0.3270  2.0289  2.8532
   87MOL   H17627868   2.202   1.311   3.774 -1.1075 -0.3676  1.1576
   87MOL   H17727869   2.201   1.215   3.626  0.8105 -0.8430  1.5817
   87MOL   C17827870   2.467   1.588   3.767 -1.2056 -0.2661  0.5854
   87MOL   C17927871   2.486   1.580   3.921  0.1222  0.8389  0.8982
   87MOL   C18027872   2.346   1.540   3.974  0.5288  0.2781  0.4284
   87MOL   O18127873   2.255   1.628   3.977 -0.3179  0.6958  0.6573
   87MOL   N18227874   2.327   1.423   4.029 -0.5156  0.8975  0.3812
   87MOL   C18327875   2.197   1.381   4.079 -0.8162  0.0769  0.2427
   87MOL   C18427876   2.423   1.312   4.052  0.6928  0.0004 -0.0702
   87MOL   H18527877   2.571   1.596   3.734 -2.0402 -0.4362 -2.2143
   87MOL   H18627878   2.419   1.684   3.749  1.0237  0.5885 -1.1346
   87MOL   H18727879   2.556   1.498   3.938 -0.0127  0.5281 -0.0265
   87MOL   H18827880   2.151   1.311   4.009 -1.1526  0.3687  0.1679
   87MOL   H18927881   2.219   1.334   4.174  0.2101 -1.1709 -0.5929
   87MOL   H19027882   2.127   1.465   4.087  0.3096  0.9709  0.8197
   87MOL   H19127883   2.388   1.217   4.092  1.5651 -0.3813 -0.1878
   87MOL   H19227884   2.499   1.338   4.126 -0.6082 -0.8787  1.6129
   87MOL   H19327885   2.477   1.275   3.965  1.3118 -0.5670  0.5499
   87MOL   C19427886   2.543   1.700   3.988 -0.5050 -0.0503  0.2124
   87MOL   C19527887   2.699   1.718   3.984 -0.2692  0.5045 -0.4695
   87MOL   C19627888   2.754   1.771   3.852 -0.1830 -0.3650  0.2126
   87MOL   O19727889   2.776   1.694   3.756  0.0972  0.4808 -0.3314
   87MOL   N19827890   2.797   1.897   3.845 -0.3035  0.3184 -0.0659
   87MOL   C19927891   2.877   1.948   3.731  0.6267  0.1408  0.0107
   87MOL   C20027892   2.771   1.998   3.942 -0.4352 -0.8342 -0.3212
   87MOL   H20127893   2.498   1.785   3.935 -2.4238 -1.0827  0.1365
   87MOL   H20227894   2.518   1.696   4.094 -2.5692  1.4577 -0.1801
   87MOL   H20327895   2.708   1.784   4.070  0.8741  2.1715 -1.8394
   87MOL   H20427896   2.901   2.054   3.742  0.4365  0.0599  1.3139
   87MOL   H20527897   2.968   1.894   3.709  0.5806  0.4045 -0.8275
   87MOL   H20627898   2.816   1.943   3.640  1.9796 -2.9772 -0.7660
   87MOL   H20727899   2.674   1.996   3.992  0.8810 -1.0816  2.2886
   87MOL   H20827900   2.763   2.099   3.902 -1.2684 -0.5225  0.6014
   87MOL   H20927901   2.839   1.992   4.027 -0.4127  0.7170 -0.2093
   87MOL   C21027902   2.775   1.588   4.030  0.0096  0.6714  0.0977
   87MOL   C21127903   2.913   1.598   4.096 -0.7650 -0.0409 -0.0841
   87MOL   C21227904   2.909   1.686   4.224  0.2009 -0.1565  0.6520
   87MOL   O21327905   2.899   1.807   4.212 -0.4411  0.0329  0.3558
   87MOL   N21427906   2.921   1.632   4.348 -0.0085  0.1073 -0.2359
   87MOL   C21527907   2.903   1.711   4.472  0.1610 -0.4755 -0.3915
   87MOL   C21627908   2.954   1.488   4.378 -0.6583  0.7079  0.1265
   87MOL   H21727909   2.718   1.540   4.110 -1.0775  0.0163 -1.0501
   87MOL   H21827910   2.778   1.507   3.957  2.8332  0.5048  0.3599
   87MOL   H21927911   2.938   1.498   4.133 -0.2384 -0.9034 -2.6304
   87MOL   H22027912   2.849   1.803   4.454  1.6409  0.2319 -1.3055
   87MOL   H22127913   2.840   1.655   4.541  1.1667 -0.0523  0.8932
   87MOL   H22227914   2.995   1.747   4.518  0.0939 -0.9475  0.1273
   87MOL   H22327915   3.059   1.463   4.362 -1.0353 -1.0075  0.2206
   87MOL   H22427916   2.898   1.415   4.321  1.9426  0.0672 -1.7107
   87MOL   H22527917   2.927   1.454   4.478 -1.7441  1.0718 -0.0404
   87MOL   C22627918   3.021   1.643   3.993 -0.1193  0.3096  0.5840
   87MOL   C22727919   3.166   1.597   4.021 -0.8332 -0.1483  0.2757
   87MOL   C22827920   3.174   1.438   4.031  0.9632  0.1168 -0.0194
   87MOL   O22927921   3.147   1.387   4.139 -0.0672 -0.1113 -0.2601
   87MOL   N23027922   3.201   1.371   3.915  0.0792  0.3996 -0.7120
   87MOL   C23127923   3.222   1.433   3.777  0.1732 -0.6141  0.3796
   87MOL   C23227924   3.183   1.220   3.905  0.1588  0.6817  0.8900
   87MOL   H23327925   2.984   1.602   3.899  0.8400 -3.4023  1.7425
   87MOL   H23427926   3.025   1.751   3.979 -0.3655  0.2873  0.3296
   87MOL   H23527927   3.230   1.623   3.937 -0.5488 -2.1212 -0.1580
   87MOL   H23627928   3.251   1.356   3.706 -1.5583 -0.8886 -0.0492
   87MOL   H23727929   3.141   1.496   3.739  0.3230 -0.9817 -0.5607
   87MOL   H23827930   3.315   1.490   3.780  0.5447 -1.1020 -1.4901
   87MOL   H23927931   3.270   1.171   3.863 -1.1539 -0.5378 -0.4711
   87MOL   H24027932   3.102   1.209   3.832  0.4716  1.4176  0.4308
   87MOL   H24127933   3.154   1.175   4.000 -0.8330  1.2238  0.8537
   87MOL   C24227934   3.228   1.661   4.151  0.0116 -0.5321  0.1288
   87MOL   C24327935   3.237   1.815   4.150  0.1877 -0.2669  0.7336
   87MOL   C24427936   3.379   1.871   4.101 -0.7843 -0.2198  0.4609
   87MOL   O24527937   3.473   1.863   4.182 -0.3356 -0.1852 -0.1411
   87MOL   N24627938   3.391   1.934   3.977  0.3568  0.0247  0.2980
   87MOL   C24727939   3.288   1.930   3.872 -0.0011  0.2729  0.0764
   87MOL   C24827940   3.526   1.984   3.942  0.0389 -0.6544  0.9559
   87MOL   H24927941   3.182   1.628   4.244  0.6057  0.3672  0.7398
   87MOL   H25027942   3.327   1.615   4.154  0.0433 -0.6600 -1.8775
   87MOL   H25127943   3.156   1.858   4.091 -0.9558 -1.4256  1.4404
   87MOL   H25227944   3.264   1.825   3.851  0.6133 -0.3305  2.3248
   87MOL   H25327945   3.199   1.986   3.900 -0.5665 -0.4745 -0.1900
   87MOL   H25427946   3.333   1.968   3.780 -1.5177 -0.0120 -0.7933
   87MOL   H25527947   3.542   2.058   3.864  1.5162 -1.4014  0.5274
   87MOL   H25627948   3.587   1.899   3.909  1.5336  0.6654  0.2797
   87MOL   H25727949   3.572   2.039   4.024 -0.1293 -1.5167  1.6391
   87MOL   C25827950   3.209   1.874   4.283  0.1741  0.0012 -0.0115
   87MOL   C25927951   3.197   2.028   4.297  0.3427 -0.8764  0.8715
   87MOL   C26027952   3.184   2.063   4.448  0.3589  0.8652  0.2471
   87MOL   O26127953   3.090   2.018   4.512  0.1547 -0.3697  0.0117
   87MOL   N26227954   3.283   2.137   4.503 -0.0478 -0.5984  0.4468
   87MOL   C26327955   3.289   2.164   4.648  0.0457  0.5812 -0.1385
   87MOL   C26427956   3.390   2.217   4.431  0.1395 -0.0120 -0.4308
   87MOL   H26527957   3.122   1.831   4.331 -0.2403 -0.7940 -1.4646
   87MOL   H26627958   3.291   1.840   4.347  1.6383  1.2961 -1.1436
   87MOL   H26727959   3.288   2.071   4.257 -0.8454  0.2128 -0.7204
   87MOL   H26827960   3.387   2.150   4.694 -0.9438  1.4698  2.3229
   87MOL   H26927961   3.258   2.266   4.670 -0.5320  0.6406 -1.1856
   87MOL   H27027962   3.233   2.089   4.704  0.0785  0.0696 -0.7754
   87MOL   H27127963   3.452   2.138   4.389  0.7600  0.3400 -0.1860
   87MOL   H27227964   3.458   2.284   4.485  0.7699  0.6571 -2.0243
   87MOL   H27327965   3.354   2.284   4.353  0.6840  0.1351 -0.5582
   87MOL   C27427966   3.076   2.084   4.216  0.4365  0.7347 -0.0709
   87MOL   C27527967   3.094   2.236   4.177  0.0259  0.2727  0.3242
   87MOL   C27627968   2.966   2.285   4.116  0.3074 -0.0540  0.4362
   87MOL   O27727969   2.954   2.264   3.995 -0.2000 -0.3216  0.4457
   87MOL   N27827970   2.878   2.343   4.197  1.0161 -0.2017 -0.0767
   87MOL   C27927971   2.745   2.382   4.139 -0.0234  0.3602 -0.1405
   87MOL   C28027972   2.896   2.377   4.345 -0.7522  0.2553  0.1086
   87MOL   H28127973   3.059   2.035   4.120  1.3346 -0.4085  0.3442
   87MOL   H28227974   2.984   2.060   4.269  0.5022 -0.7622 -0.5914
   87MOL   H28327975   3.110   2.292   4.269 -2.7846 -0.9642  1.6274
   87MOL   H28427976   2.676   2.298   4.146  2.8399 -2.0377 -0.0014
   87MOL   H28527977   2.693   2.463   4.192 -0.6941  0.0624 -0.3315
   87MOL   H28627978   2.755   2.423   4.039  2.6652  1.9312  0.7302
   87MOL   H28727979   2.982   2.441   4.365 -1.4250  0.5767  2.0062
   87MOL   H28827980   2.919   2.285   4.397  0.6551  0.0440 -0.8618
   87MOL   H28927981   2.813   2.426   4.396  0.4916  2.3452  0.2092
   87MOL   C29027982   3.213   2.266   4.073 -0.2881 -0.8145 -0.1069
   87MOL   C29127983   3.220   2.414   4.015  0.6682  0.0119 -0.3002
   87MOL   C29227984   3.322   2.414   3.899  0.1185  0.2004 -0.2434
   87MOL   O29327985   3.438   2.442   3.919 -0.0649  0.1006 -0.2455
   87MOL   N29427986   3.282   2.399   3.774  0.0040 -0.3786 -0.3812
   87MOL   C29527987   3.386   2.402   3.672  0.2861 -0.1403 -0.0815
   87MOL   C29627988   3.150   2.370   3.718  0.1028  0.2992 -0.3003
   87MOL   H29727989   3.312   2.242   4.110 -0.4192 -0.7647  0.2812
   87MOL   H29827990   3.194   2.195   3.993 -0.9818 -2.2894  1.3242
   87MOL   H29927991   3.126   2.442   3.968 -0.0381  1.3976  1.8689
   87MOL   H30027992   3.409   2.508   3.660 -1.6423  0.7614  3.4587
   87MOL   H30127993   3.486   2.365   3.692 -0.0804 -1.5057 -0.6514
   87MOL   H30227994   3.346   2.352   3.584 -1.0299  0.4998  0.1379
   87MOL   H30327995   3.065   2.413   3.771 -0.4916 -2.0535  0.7144
   87MOL   H30427996   3.125   2.265   3.704  1.5826 -0.2876  1.2454
   87MOL   H30527997   3.133   2.416   3.621  1.2896 -0.2014 -0.7596
   87MOL   C30627998   3.259   2.518   4.124 -0.2815 -0.5256  0.2327
   87MOL   C30727999   3.289   2.669   4.079 -0.3338  0.1446 -0.4372
   87MOL   C30828000   3.164   2.742   4.047  0.0764 -0.3048  0.5087
   87MOL   O30928001   3.050   2.692   4.081  0.1924  0.5127  0.2445
   87MOL   N31028002   3.176   2.868   4.001 -0.6258 -0.4897 -0.3147
   87MOL   C31128003   3.059   2.958   3.987 -0.1114 -0.2595 -0.2932
   87MOL   C31228004   3.306   2.928   3.977  0.1409 -0.5334  0.3481
   87MOL   H31328005   3.187   2.513   4.206 -0.3264 -0.4467  0.1987
   87MOL   H31428006   3.354   2.485   4.166 -0.9996 -1.9710  0.7501
   87MOL   H31528007   3.343   2.723   4.157  0.3872  0.5819 -1.2389
   87MOL   H31628008   3.049   3.023   4.074  3.2256  0.6667 -0.5604
   87MOL   H31728009   3.066   3.025   3.902 -1.0882  1.0671  0.6348
   87MOL   H31828010   2.965   2.901   3.984  0.6827 -1.7566  1.9029
   87MOL   H31928011   3.302   3.036   3.964 -1.1392 -0.8024 -1.6843
   87MOL   H32028012   3.359   2.889   3.890  0.6313 -1.5747  1.1097
   87MOL   H32128013   3.368   2.918   4.066 -1.1046 -1.6361  1.1144
   87MOL   H32228014   3.344   2.671   3.985  2.2908  0.0135  1.0408
   88MOL     C128015   5.115   6.333   1.180  0.0724 -0.3279 -0.3928
   88MOL     C228016   5.256   6.275   1.226  0.2095  0.4579 -0.6462
   88MOL     C328017   5.274   6.125   1.181  0.2381 -0.2303 -0.0718
   88MOL     O428018   5.173   6.058   1.186 -0.0926 -0.0091 -0.2741
   88MOL     N528019   5.398   6.076   1.138 -0.6953 -0.7398 -0.6509
   88MOL     C628020   5.420   5.928   1.106 -0.8753  0.1922  0.6907
   88MOL     C728021   5.522   6.157   1.134 -0.2084 -0.1031 -0.1839
   88MOL     H828022   5.108   6.438   1.209 -0.3828 -0.6306  0.6115
   88MOL     H928023   5.047   6.267   1.233  1.2592 -1.0504  0.2439
   88MOL    H1028024   5.325   6.335   1.166  0.9057 -1.3798 -1.7316
   88MOL    H1128025   5.430   5.868   1.196 -1.0671  0.1063  0.6567
   88MOL    H1228026   5.342   5.881   1.046  0.7129  1.5719 -2.6033
   88MOL    H1328027   5.515   5.906   1.057 -0.6260  2.7265 -0.0531
   88MOL    H1428028   5.554   6.161   1.238 -0.1475  0.3758 -0.2237
   88MOL    H1528029   5.510   6.251   1.081 -0.6338  0.2293  0.4954
   88MOL    H1628030   5.603   6.099   1.090  1.1098  2.7835 -1.6254
   88MOL    H1728031   5.123   6.329   1.071 -0.0299 -0.6721 -0.3858
   88MOL    C1828032   5.270   6.297   1.383 -0.0303  0.5196 -0.1354
   88MOL    C1928033   5.325   6.437   1.413 -0.3712  0.8491 -0.3679
   88MOL    C2028034   5.465   6.454   1.347 -0.7896  0.3522 -0.4836
   88MOL    O2128035   5.558   6.390   1.394  0.1983  0.3394 -0.3031
   88MOL    N2228036   5.472   6.534   1.237 -0.0962  0.1461 -0.1519
   88MOL    C2328037   5.589   6.535   1.150  0.1081 -0.7653  0.2936
   88MOL    C2428038   5.372   6.637   1.196 -0.1609 -0.5164 -0.6882
   88MOL    H2528039   5.180   6.262   1.433  0.3803 -0.3904 -0.0197
   88MOL    H2628040   5.343   6.226   1.422  0.3076  1.0818  0.2621
   88MOL    H2728041   5.251   6.512   1.387 -0.8069 -0.7306 -3.9726
   88MOL    H2828042   5.575   6.538   1.042 -0.4146  0.5769  0.3943
   88MOL    H2928043   5.640   6.627   1.180  0.2518  0.0037 -2.1415
   88MOL    H3028044   5.654   6.450   1.170  1.3735  0.4042  1.2417
   88MOL    H3128045   5.297   6.601   1.127  0.9337 -1.2639 -1.4966
   88MOL    H3228046   5.432   6.694   1.125 -0.3831 -0.3076 -0.7081
   88MOL    H3328047   5.331   6.689   1.283 -1.1870 -0.3351 -1.2782
   88MOL    C3428048   5.333   6.464   1.566 -0.8062 -0.2944  0.8594
   88MOL    C3528049   5.374   6.601   1.630  0.0709 -0.5313 -0.2117
   88MOL    C3628050   5.420   6.568   1.773  0.0830 -0.4484 -0.0349
   88MOL    O3728051   5.324   6.557   1.858 -0.2148 -0.0262  0.0857
   88MOL    N3828052   5.544   6.551   1.803 -0.5749 -0.5552  0.1110
   88MOL    C3928053   5.657   6.565   1.707 -0.4588 -0.7853  0.6958
   88MOL    C4028054   5.584   6.505   1.934  0.3040  0.0524 -0.2000
   88MOL    H4128055   5.242   6.432   1.618  1.0450 -4.7432  1.6172
   88MOL    H4228056   5.404   6.389   1.602 -2.3857 -2.0425  0.4334
   88MOL    H4328057   5.457   6.641   1.573 -1.8361  0.8180 -2.1128
   88MOL    H4428058   5.635   6.540   1.603 -0.3332  0.2954  0.4062
   88MOL    H4528059   5.719   6.654   1.717  0.4392 -1.3418  0.1574
   88MOL    H4628060   5.728   6.487   1.735 -0.7009 -2.4214 -2.9366
   88MOL    H4728061   5.499   6.503   2.002 -1.3691  0.1265 -2.2693
   88MOL    H4828062   5.653   6.579   1.975 -0.2298 -0.4365  1.6418
   88MOL    H4928063   5.628   6.407   1.957  0.7643  0.3035  0.0006
   88MOL    C5028064   5.257   6.698   1.639 -0.1611 -0.2882 -0.4480
   88MOL    C5128065   5.274   6.836   1.703  0.1399 -0.0041  0.2860
   88MOL    C5228066   5.129   6.897   1.735  0.5902 -0.1867  0.3927
   88MOL    O5328067   5.071   6.951   1.633 -0.2396  0.5792 -0.2074
   88MOL    N5428068   5.076   6.889   1.859 -0.1337  0.1707  0.3237
   88MOL    C5528069   4.935   6.933   1.861 -0.2395 -0.0239  0.3778
   88MOL    C5628070   5.140   6.820   1.969  0.0876  0.1748 -0.9631
   88MOL    H5728071   5.241   6.720   1.533  2.0741 -2.2640 -1.2385
   88MOL    H5828072   5.164   6.652   1.673 -1.4736  1.5041 -1.5194
   88MOL    H5928073   5.314   6.805   1.799 -0.9847 -1.9621  0.1521
   88MOL    H6028074   4.921   7.038   1.835 -1.2707 -0.2352  0.0699
   88MOL    H6128075   4.867   6.875   1.798  0.9038  1.2414 -2.0784
   88MOL    H6228076   4.896   6.925   1.962  0.1356 -1.3114  0.4356
   88MOL    H6328077   5.074   6.813   2.056  1.0873 -0.5235 -0.2540
   88MOL    H6428078   5.234   6.869   1.995 -0.6346  1.9495 -1.5892
   88MOL    H6528079   5.151   6.714   1.946  1.1327  0.5206 -2.1143
   88MOL    C6628080   5.360   6.938   1.620 -0.4917 -0.3811  0.6517
   88MOL    C6728081   5.500   6.984   1.680 -0.4025 -0.1043  0.5701
   88MOL    C6828082   5.475   7.050   1.819 -0.3331  0.5354  0.0354
   88MOL    O6928083   5.390   7.131   1.817  0.3365  0.0605  0.2966
   88MOL    N7028084   5.529   7.010   1.935 -0.9926  0.3060 -0.0645
   88MOL    C7128085   5.495   7.069   2.069  0.2470 -0.0296 -0.0819
   88MOL    C7228086   5.601   6.882   1.939  0.5016 -0.1700  0.1754
   88MOL    H7328087   5.380   6.893   1.523  0.7245  0.3080  0.5689
   88MOL    H7428088   5.305   7.030   1.601  1.7139  0.9233  0.2902
   88MOL    H7528089   5.545   6.888   1.707 -0.7335 -0.5052 -0.2949
   88MOL    H7628090   5.481   7.175   2.052 -1.8365 -0.1179  1.0250
   88MOL    H7728091   5.409   7.031   2.123 -0.1433  1.4632  0.3433
   88MOL    H7828092   5.577   7.077   2.141  2.3237 -1.0817 -2.2376
   88MOL    H7928093   5.644   6.872   2.039  0.1888  1.0508  0.4331
   88MOL    H8028094   5.682   6.872   1.866 -0.0175  0.4594 -0.4893
   88MOL    H8128095   5.529   6.802   1.923  1.6326 -1.3454  0.8106
   88MOL    C8228096   5.574   7.083   1.587 -0.4352 -0.1940 -0.9743
   88MOL    C8328097   5.646   7.024   1.456 -0.7683 -0.3446  0.5226
   88MOL    C8428098   5.787   6.976   1.494  0.4951  0.2498  0.1577
   88MOL    O8528099   5.865   7.065   1.519 -0.7525 -0.3284 -0.5965
   88MOL    N8628100   5.825   6.849   1.501  0.1288  0.0068  0.4841
   88MOL    C8728101   5.951   6.814   1.583 -0.1720  0.0842  0.4778
   88MOL    C8828102   5.771   6.739   1.416 -0.1669 -0.0781 -0.2805
   88MOL    H8928103   5.517   7.170   1.554  2.3626  0.7257 -3.5738
   88MOL    H9028104   5.636   7.151   1.646 -3.1662  1.5845 -0.0627
   88MOL    H9128105   5.593   6.936   1.417 -0.3325 -0.7239  0.7801
   88MOL    H9228106   6.026   6.775   1.514 -0.4482 -0.2154  0.3468
   88MOL    H9328107   5.998   6.897   1.635  1.3943  1.0737 -2.3846
   88MOL    H9428108   5.920   6.746   1.663 -0.0355 -2.2329 -1.3581
   88MOL    H9528109   5.810   6.643   1.449  1.9776 -0.6409 -4.1297
   88MOL    H9628110   5.793   6.755   1.310  0.6414  0.2318 -0.0617
   88MOL    H9728111   5.664   6.723   1.435 -0.6243  0.6721 -2.0747
   88MOL    C9828112   5.638   7.144   1.348  0.2893  0.4610  0.0678
   88MOL    C9928113   5.643   7.115   1.191 -0.0304  0.0489 -0.1035
   88MOL   C10028114   5.516   7.040   1.141  0.6596 -0.3941  0.9544
   88MOL   O10128115   5.481   6.941   1.203 -0.0246  0.1903 -0.0228
   88MOL   N10228116   5.443   7.085   1.033 -0.2956  0.1786 -0.1896
   88MOL   C10328117   5.308   7.039   1.000 -0.1496  0.1549 -0.3149
   88MOL   C10428118   5.480   7.197   0.948 -0.3905 -1.1033  0.1759
   88MOL   H10528119   5.544   7.199   1.359 -0.4580 -0.6976 -0.3905
   88MOL   H10628120   5.713   7.218   1.376  0.7409 -0.1772  0.5502
   88MOL   H10728121   5.650   7.210   1.138  0.8958  0.1866  0.2581
   88MOL   H10828122   5.275   7.049   0.897  2.7838 -0.2136 -1.3270
   88MOL   H10928123   5.308   6.938   1.042 -0.7204  0.1152 -0.3997
   88MOL   H11028124   5.240   7.092   1.068  0.0105 -0.1138  0.0580
   88MOL   H11128125   5.397   7.224   0.883 -1.3095 -2.4128  0.7793
   88MOL   H11228126   5.561   7.172   0.879  1.1720  0.7518  1.2721
   88MOL   H11328127   5.510   7.287   1.002 -2.1318 -0.5366  0.2399
   88MOL   C11428128   5.765   7.017   1.153 -0.5188 -0.1009 -0.1440
   88MOL   C11528129   5.800   7.008   1.007 -0.3654 -0.1716  0.1087
   88MOL   C11628130   5.885   6.878   0.984  0.0265 -0.9316  0.6965
   88MOL   O11728131   6.005   6.875   1.005  0.2578 -0.1927  0.8649
   88MOL   N11828132   5.822   6.767   0.948 -0.1318 -1.0534  0.2796
   88MOL   C11928133   5.891   6.637   0.963 -0.6784 -0.3187 -0.6037
   88MOL   C12028134   5.694   6.763   0.876 -0.6243 -0.0454 -0.1060
   88MOL   H12128135   5.850   7.044   1.215 -0.0987 -1.8032  0.0568
   88MOL   H12228136   5.728   6.922   1.190  1.0829 -0.1535  1.3791
   88MOL   H12328137   5.709   6.987   0.951  0.0669 -1.2684 -0.2085
   88MOL   H12428138   5.873   6.615   1.069  1.4682 -1.3322 -0.4045
   88MOL   H12528139   5.856   6.552   0.906  1.2988 -0.7267 -1.2641
   88MOL   H12628140   5.999   6.638   0.948 -0.5987 -1.5095 -0.1983
   88MOL   H12728141   5.699   6.830   0.790 -2.7554  0.7118  0.3325
   88MOL   H12828142   5.614   6.791   0.943 -1.5416 -0.7928 -0.8713
   88MOL   H12928143   5.675   6.664   0.833  2.4144 -0.4153 -0.7731
   88MOL   C13028144   5.859   7.131   0.936 -0.7934  0.3968 -0.5137
   88MOL   C13128145   5.995   7.195   0.985 -0.5979 -0.4107 -0.2523
   88MOL   C13228146   5.982   7.265   1.124  1.1266 -0.2472 -0.2528
   88MOL   O13328147   5.892   7.357   1.134 -0.2935 -0.1120 -0.0975
   88MOL   N13428148   6.048   7.227   1.233 -0.8135  0.2943  0.2389
   88MOL   C13528149   6.037   7.301   1.357  0.4268 -0.5195  0.3380
   88MOL   C13628150   6.136   7.107   1.244 -0.3167  0.1785  0.3510
   88MOL   H13728151   5.870   7.101   0.832 -1.5484  0.4692 -0.6151
   88MOL   H13828152   5.781   7.206   0.945  0.5961  1.8651 -0.5711
   88MOL   H13928153   6.048   7.106   1.018 -1.9322 -0.0932  2.8890
   88MOL   H14028154   5.930   7.299   1.375 -0.0289  1.8790 -1.8852
   88MOL   H14128155   6.096   7.271   1.444 -0.0965  1.9178  1.5626
   88MOL   H14228156   6.055   7.405   1.333 -1.7418 -0.4235 -0.9344
   88MOL   H14328157   6.087   7.011   1.222  0.7679 -0.6180  1.3511
   88MOL   H14428158   6.179   7.095   1.344  1.3333 -1.0735 -0.4908
   88MOL   H14528159   6.219   7.115   1.174 -0.8835 -0.5539 -0.4128
   88MOL   C14628160   6.074   7.276   0.883 -0.2699 -0.1021 -0.0951
   88MOL   C14728161   6.029   7.423   0.874  0.1198 -0.3168  0.8497
   88MOL   C14828162   5.894   7.436   0.804 -0.2764 -0.3006 -0.5438
   88MOL   O14928163   5.872   7.359   0.706  0.4800  0.3609 -0.2434
   88MOL   N15028164   5.795   7.515   0.859 -0.3804 -0.4775 -0.0591
   88MOL   C15128165   5.667   7.522   0.797  0.0263 -0.7447  0.6280
   88MOL   C15228166   5.824   7.627   0.955 -0.0230 -0.3816  0.1469
   88MOL   H15328167   6.175   7.259   0.918 -0.1227  1.1542  0.1207
   88MOL   H15428168   6.066   7.230   0.784  1.8772 -3.7765  1.3641
   88MOL   H15528169   6.028   7.456   0.977 -2.1289 -0.4363  0.8907
   88MOL   H15628170   5.633   7.434   0.742 -2.1162 -0.0702  0.8127
   88MOL   H15728171   5.590   7.532   0.874  0.3228  0.4781  0.7653
   88MOL   H15828172   5.662   7.614   0.740 -0.1888 -0.8156  0.5310
   88MOL   H15928173   5.748   7.706   0.957 -1.8746 -2.0470 -1.8374
   88MOL   H16028174   5.921   7.666   0.924  0.0815 -1.2920 -0.7239
   88MOL   H16128175   5.834   7.593   1.058  0.0683 -0.2149  0.1928
   88MOL   C16228176   6.134   7.513   0.794  0.3912  0.0055 -0.1701
   88MOL   C16328177   6.259   7.550   0.865  0.0780 -0.2869 -0.9195
   88MOL   C16428178   6.227   7.643   0.981 -0.6440 -0.1909 -0.2138
   88MOL   O16528179   6.181   7.752   0.955  0.3112 -0.2869  0.0864
   88MOL   N16628180   6.256   7.605   1.112 -0.3280  0.4356 -0.5485
   88MOL   C16728181   6.196   7.684   1.228  0.4079 -0.0401  0.6792
   88MOL   C16828182   6.314   7.475   1.150  0.1240 -0.4722 -0.6846
   88MOL   H16928183   6.165   7.451   0.709 -0.5312 -1.2372  0.3786
   88MOL   H17028184   6.082   7.596   0.747 -0.7098 -1.7237 -2.1258
   88MOL   H17128185   6.315   7.463   0.899 -0.2502 -0.4798 -0.8722
   88MOL   H17228186   6.105   7.638   1.265  0.3041 -0.3486  0.0480
   88MOL   H17328187   6.264   7.688   1.313 -0.0409  0.2306  1.0279
   88MOL   H17428188   6.172   7.789   1.209  1.0945 -0.3361 -2.1092
   88MOL   H17528189   6.402   7.449   1.092  0.4934  0.5415 -0.5932
   88MOL   H17628190   6.243   7.393   1.159 -0.3073  0.2233  2.9412
   88MOL   H17728191   6.349   7.472   1.253  0.4921 -0.8682 -0.8230
   88MOL   C17828192   6.354   7.614   0.759 -0.0959 -0.0202 -0.1707
   88MOL   C17928193   6.495   7.670   0.810 -0.4352  0.2713  0.0053
   88MOL   C18028194   6.536   7.770   0.702  0.3105  0.4502 -0.0980
   88MOL   O18128195   6.634   7.747   0.631 -0.5243 -0.4033 -0.4426
   88MOL   N18228196   6.477   0.038   0.689  0.9107  0.6039  0.0281
   88MOL   C18328197   6.494   0.120   0.571 -0.5042  0.4448  0.2045
   88MOL   C18428198   6.388   0.104   0.790  0.3363 -0.7525 -0.2006
   88MOL   H18528199   6.375   7.552   0.672 -1.5571 -1.3154  0.3706
   88MOL   H18628200   6.295   7.694   0.715 -0.3512 -0.1733 -0.1021
   88MOL   H18728201   6.482   7.719   0.906 -1.0291 -0.6013  0.3779
   88MOL   H18828202   6.600   0.144   0.557 -0.0619  0.7620  3.7436
   88MOL   H18928203   6.460   0.066   0.483  0.9020  0.0007 -0.0849
   88MOL   H19028204   6.440   0.214   0.577 -0.4504  0.5095 -0.2889
   88MOL   H19128205   6.389   0.055   0.888  1.8326 -0.3613 -0.0124
   88MOL   H19228206   6.284   0.110   0.760  0.5841  0.1873 -0.8814
   88MOL   H19328207   6.407   0.210   0.805 -0.2616 -0.7065  0.2389
   88MOL   C19428208   6.599   7.557   0.839 -0.2765 -0.0548 -0.3667
   88MOL   C19528209   6.733   7.605   0.895  0.0733 -0.6249  0.1577
   88MOL   C19628210   6.837   7.493   0.900  0.9332  0.5422 -0.2516
   88MOL   O19728211   6.814   7.390   0.965  0.2385 -0.7142 -0.2303
   88MOL   N19828212   6.959   7.513   0.841  0.2665  0.0031 -0.2522
   88MOL   C19928213   7.061   7.410   0.855 -0.2503  0.5197 -0.3333
   88MOL   C20028214   6.990   7.618   0.739 -0.6472 -0.4529  0.3478
   88MOL   H20128215   6.551   7.486   0.907  0.4914 -1.7094 -1.5144
   88MOL   H20228216   6.621   7.496   0.752 -1.2348  1.0875 -1.4163
   88MOL   H20328217   6.770   7.681   0.826 -1.7729  3.4978  3.5025
   88MOL   H20428218   7.114   7.422   0.949  0.3035 -1.7588 -0.3314
   88MOL   H20528219   7.023   7.308   0.859  0.8510  0.0986 -0.4805
   88MOL   H20628220   7.152   7.417   0.795 -0.0243 -0.4649 -0.1141
   88MOL   H20728221   7.096   7.626   0.713 -0.1100  1.9957  2.8776
   88MOL   H20828222   6.972   7.719   0.777 -1.8717 -1.1997  1.8381
   88MOL   H20928223   6.928   7.606   0.651  0.8378  0.3898 -0.8290
   88MOL   C21028224   6.747   7.679   1.032 -0.0722  0.1723  0.4142
   88MOL   C21128225   6.888   7.726   1.085 -0.0588 -0.3508 -0.1404
   88MOL   C21228226   6.963   7.612   1.167 -0.6397 -0.7285 -0.6947
   88MOL   O21328227   6.894   7.538   1.239 -1.2030  0.2703  0.3053
   88MOL   N21428228   7.099   7.608   1.176  0.7483 -0.2943  0.4306
   88MOL   C21528229   7.167   7.525   1.266  0.2806  0.3338 -0.2252
   88MOL   C21628230   7.188   7.692   1.082  0.0724  0.1612  0.1775
   88MOL   H21728231   6.684   7.767   1.039  0.8240  1.0812 -2.5385
   88MOL   H21828232   6.695   7.620   1.108 -0.4858  0.5000  0.3848
   88MOL   H21928233   6.948   7.750   0.997  0.2664 -0.4504  0.0510
   88MOL   H22028234   7.111   7.434   1.285  0.7517  0.0828 -0.0402
   88MOL   H22128235   7.265   7.510   1.220  0.8490  3.5223 -0.1799
   88MOL   H22228236   7.188   7.563   1.366  1.1743 -0.6238 -0.0367
   88MOL   H22328237   7.151   7.672   0.982  0.5247 -0.0132  0.0466
   88MOL   H22428238   7.292   7.661   1.079  0.1485  0.2017  1.9686
   88MOL   H22528239   7.189   7.795   1.117 -0.4152  0.0625  0.5073
   88MOL   C22628240   6.880   0.015   1.156  0.2928 -0.0802  0.0224
   88MOL   C22728241   6.799   0.002   1.284 -0.1269 -0.1172  0.3703
   88MOL   C22828242   6.705   0.125   1.288 -0.9767 -0.0769 -0.5676
   88MOL   O22928243   6.759   0.235   1.308 -0.9060  0.0916 -0.8707
   88MOL   N23028244   6.572   0.121   1.266  0.1292 -0.4284  0.2997
   88MOL   C23128245   6.493   0.005   1.229 -0.0881  0.4809 -0.3853
   88MOL   C23228246   6.488   0.241   1.291  0.0753  0.1927  0.8649
   88MOL   H23328247   6.982   0.039   1.188  0.8972 -1.1085 -1.0573
   88MOL   H23428248   6.840   0.087   1.086 -0.0636  0.8498  1.1818
   88MOL   H23528249   6.732   7.770   1.278 -0.1842  0.0593 -2.1338
   88MOL   H23628250   6.545   7.771   1.188 -2.1516 -0.5281 -0.9384
   88MOL   H23728251   6.429   7.818   1.307 -0.7377  2.6476  0.2104
   88MOL   H23828252   6.432   0.029   1.142 -0.7869 -0.3431 -0.1298
   88MOL   H23928253   6.418   0.247   1.208 -1.8414  1.5366  2.5276
   88MOL   H24028254   6.535   0.339   1.283  1.8308 -0.5210  1.8671
   88MOL   H24128255   6.431   0.227   1.383 -0.9685  1.2520  0.3791
   88MOL   C24228256   6.872   0.006   1.427 -1.1096 -0.1799 -0.4150
   88MOL   C24328257   6.773   7.838   1.547  0.6675  0.5048 -0.0900
   88MOL   C24428258   6.829   0.022   1.688  0.1350  0.1690  0.3122
   88MOL   O24528259   6.879   7.788   1.759  0.0262  0.2405 -0.1983
   88MOL   N24628260   6.792   0.139   1.741 -0.5058  0.2046  0.1231
   88MOL   C24728261   6.804   0.163   1.887  1.3211  0.3591  0.0078
   88MOL   C24828262   6.752   0.261   1.656  0.1479 -0.2411 -0.3706
   88MOL   H24928263   6.940   7.774   1.426 -1.3052 -0.3434 -1.5966
   88MOL   H25028264   6.923   0.101   1.442  1.1279 -1.3108 -0.5894
   88MOL   H25128265   6.689   0.053   1.535  0.2554 -0.1918 -1.2406
   88MOL   H25228266   6.748   0.088   1.942  1.3945  0.1405 -0.2148
   88MOL   H25328267   6.907   0.167   1.923  1.3915  0.2477 -0.1757
   88MOL   H25428268   6.750   0.253   1.915 -0.1011 -0.2823 -0.6234
   88MOL   H25528269   6.644   0.262   1.641  0.0547  0.1992  0.2959
   88MOL   H25628270   6.796   0.255   1.556 -0.9638 -0.6181 -0.8378
   88MOL   H25728271   6.803   0.347   1.700 -1.7580  0.7178 -0.0209
   88MOL   C25828272   6.713   7.692   1.553 -0.6470 -0.3802 -0.7021
   88MOL   C25928273   6.593   7.659   1.649 -0.3817 -0.4891 -0.7750
   88MOL   C26028274   6.601   7.516   1.705  0.1281 -0.7152 -1.0487
   88MOL   O26128275   6.582   7.421   1.629 -0.5495  0.1418  0.1777
   88MOL   N26228276   6.617   7.494   1.838  0.1170  0.0849  0.3976
   88MOL   C26328277   6.628   7.358   1.891 -0.1501  0.3220 -0.4307
   88MOL   C26428278   6.608   7.606   1.936  0.2949 -0.0588 -0.2564
   88MOL   H26528279   6.699   7.650   1.454 -0.6634 -2.9748  0.3554
   88MOL   H26628280   6.781   7.617   1.594 -0.5442  1.7084  3.2420
   88MOL   H26728281   6.602   7.735   1.728 -0.8116 -0.4481 -0.7651
   88MOL   H26828282   6.638   7.361   1.999 -1.0614 -0.7589 -0.3127
   88MOL   H26928283   6.532   7.310   1.872  0.9779 -1.4200 -1.9639
   88MOL   H27028284   6.698   7.298   1.834 -1.9532 -1.2028 -1.1038
   88MOL   H27128285   6.654   7.570   2.028 -0.7185 -0.3620  0.1356
   88MOL   H27228286   6.506   7.638   1.956  0.3411  0.3051 -0.5715
   88MOL   H27328287   6.672   7.692   1.913  0.3467  0.3529  1.3526
   88MOL   C27428288   6.456   7.684   1.572 -0.1533  0.2769  0.3113
   88MOL   C27528289   6.323   7.678   1.656 -0.0917  0.1848 -0.4642
   88MOL   C27628290   6.264   7.538   1.657  0.6003 -0.2978  0.4408
   88MOL   O27728291   6.238   7.490   1.548  0.4483 -0.0711  0.1070
   88MOL   N27828292   6.228   7.470   1.772 -0.1064  0.0562  0.8818
   88MOL   C27928293   6.182   7.335   1.757  0.4810 -0.4174  0.0381
   88MOL   C28028294   6.249   7.505   1.911 -0.4237 -0.1171  0.0752
   88MOL   H28128295   6.472   7.775   1.514  0.3990 -0.4893 -0.7524
   88MOL   H28228296   6.445   7.609   1.493  1.6320 -0.4345  0.7219
   88MOL   H28328297   6.339   7.710   1.759 -1.5432 -0.0173 -0.1706
   88MOL   H28428298   6.095   7.331   1.691  0.1036  1.2170  0.4075
   88MOL   H28528299   6.258   7.279   1.702  1.7585  0.9802  0.3585
   88MOL   H28628300   6.163   7.281   1.849 -0.2972 -1.4718 -0.7264
   88MOL   H28728301   6.278   7.610   1.919  0.7153 -0.3584 -0.7873
   88MOL   H28828302   6.329   7.451   1.963 -0.0604  0.8429  0.5286
   88MOL   H28928303   6.160   7.500   1.974  0.3042 -2.0988  1.0155
   88MOL   C29028304   6.222   7.783   1.597 -0.5497  0.0809  0.4316
   88MOL   C29128305   6.077   7.799   1.664  0.5869  0.3372 -0.5095
   88MOL   C29228306   5.971   7.724   1.573  0.5422  0.2370  0.1374
   88MOL   O29328307   5.963   7.756   1.453 -0.4536  0.1738 -0.0813
   88MOL   N29428308   5.892   7.632   1.629 -0.3374 -0.0250 -0.4449
   88MOL   C29528309   5.820   7.526   1.552  0.2219 -0.4114 -0.0942
   88MOL   C29628310   5.893   7.606   1.771 -0.1836 -0.1504  0.4816
   88MOL   H29728311   6.272   0.026   1.590  0.8989 -0.6883  0.0756
   88MOL   H29828312   6.199   7.758   1.493 -2.0071  0.2142  0.7177
   88MOL   H29928313   6.081   7.755   1.764  1.1167 -2.4895 -1.7342
   88MOL   H30028314   5.715   7.521   1.582  0.1222  2.9565  0.2611
   88MOL   H30128315   5.822   7.547   1.445 -0.1606 -1.7250 -0.3720
   88MOL   H30228316   5.863   7.430   1.581 -0.2244 -1.0592 -1.5167
   88MOL   H30328317   5.817   7.533   1.798 -0.8528  0.1060 -0.6875
   88MOL   H30428318   5.870   7.694   1.830  2.1213  0.5512  0.3864
   88MOL   H30528319   5.992   7.575   1.807  0.7211 -1.2575 -2.7297
   88MOL   C30628320   6.042   0.097   1.685  0.1408  0.9323  0.3420
   88MOL   C30728321   5.920   0.109   1.784 -0.1280  0.1743  0.2305
   88MOL   C30828322   5.891   0.260   1.791 -0.3017  0.0153 -0.0749
   88MOL   O30928323   5.839   0.303   1.687  0.4556 -0.1426 -0.2812
   88MOL   N31028324   5.923   0.335   1.898 -0.5596  0.2990 -0.3635
   88MOL   C31128325   5.873   0.471   1.910 -0.3627 -0.6372 -0.4316
   88MOL   C31228326   6.031   0.303   1.993  0.5525 -0.5148 -0.4505
   88MOL   H31328327   6.135   0.139   1.724 -0.1918  0.7341  1.3536
   88MOL   H31428328   6.027   0.138   1.585  3.0756 -1.0061 -0.9623
   88MOL   H31528329   5.834   0.060   1.737  0.6297 -0.3660 -0.6216
   88MOL   H31628330   5.764   0.469   1.908 -0.3563 -1.8134 -0.4217
   88MOL   H31728331   5.911   0.515   2.002 -1.8381 -1.3674  0.5418
   88MOL   H31828332   5.906   0.532   1.826 -0.4953 -0.3819 -0.2981
   88MOL   H31928333   6.125   0.298   1.938  0.3810  0.7806 -0.8991
   88MOL   H32028334   6.024   0.212   2.052 -1.1282 -0.2452 -0.1847
   88MOL   H32128335   6.035   0.378   2.072 -2.6009 -1.6776  0.9123
   88MOL   H32228336   5.946   0.065   1.880 -0.0551  1.8743  1.0053
   89MOL     C128337   3.093   3.570   1.836  0.1058 -0.0137  0.2636
   89MOL     C228338   3.077   3.457   1.940 -0.1225  0.7557 -0.4306
   89MOL     C328339   3.212   3.377   1.948  0.3137 -0.4934 -0.7776
   89MOL     O428340   3.243   3.326   1.840 -0.1253  0.7329  0.0845
   89MOL     N528341   3.279   3.359   2.061 -0.0080 -0.0941 -0.1299
   89MOL     C628342   3.225   3.407   2.190 -0.9208  0.2187 -0.0956
   89MOL     C728343   3.407   3.278   2.072  0.6357  0.5826 -0.1495
   89MOL     H828344   3.183   3.629   1.852 -0.0256 -0.4453  2.8352
   89MOL     H928345   3.017   3.648   1.841  0.4958  0.6173 -2.7903
   89MOL    H1028346   3.059   3.513   2.032  2.0038 -0.6923  0.8934
   89MOL    H1128347   3.118   3.388   2.201 -0.9966 -0.8136 -2.2703
   89MOL    H1228348   3.291   3.370   2.268 -1.0485 -1.9273 -0.9562
   89MOL    H1328349   3.226   3.516   2.191  1.5543  0.2213  1.3475
   89MOL    H1428350   3.376   3.177   2.101 -0.3946  0.5231 -1.4128
   89MOL    H1528351   3.473   3.327   2.143  1.0870  0.1212 -0.2397
   89MOL    H1628352   3.454   3.270   1.973 -0.9132 -0.7376 -0.8097
   89MOL    H1728353   3.117   3.536   1.736  0.4651  1.7091 -0.2494
   89MOL    C1828354   2.949   3.370   1.914  0.0682  0.1142 -0.1849
   89MOL    C1928355   2.933   3.244   2.011 -0.1132 -0.6669  0.3892
   89MOL    C2028356   2.860   3.132   1.933 -0.0618  0.6690 -0.0637
   89MOL    O2128357   2.738   3.137   1.920 -0.0036 -0.3496 -0.1919
   89MOL    N2228358   2.931   3.023   1.888  0.5386  1.0527 -0.3839
   89MOL    C2328359   2.858   2.902   1.835  1.0896  0.6800 -0.5518
   89MOL    C2428360   3.074   3.032   1.846  0.4433  0.6467 -0.1643
   89MOL    H2528361   2.857   3.428   1.906 -0.6562 -1.5022 -4.8703
   89MOL    H2628362   2.952   3.342   1.809 -0.8823  1.1404 -0.5026
   89MOL    H2728363   3.027   3.207   2.051  0.8278  0.3583 -0.8353
   89MOL    H2828364   2.815   2.844   1.916  0.6479 -0.2862 -1.4713
   89MOL    H2928365   2.775   2.940   1.776  0.2052 -2.5678 -1.4513
   89MOL    H3028366   2.914   2.842   1.763 -1.7732 -4.2841  1.1795
   89MOL    H3128367   3.089   3.122   1.786 -5.6196  2.4985  0.6822
   89MOL    H3228368   3.089   2.948   1.777  2.5101  0.0550  0.9841
   89MOL    H3328369   3.158   3.028   1.915 -0.0499 -0.0017  0.4035
   89MOL    C3428370   2.850   3.294   2.133 -0.1254  0.6075  0.5027
   89MOL    C3528371   2.822   3.190   2.246  0.1922 -0.0931  0.7395
   89MOL    C3628372   2.690   3.229   2.320  0.4566 -0.1843  0.5009
   89MOL    O3728373   2.700   3.324   2.396 -0.1554 -0.7832  0.0278
   89MOL    N3828374   2.572   3.158   2.305  0.0363 -0.5876 -0.0967
   89MOL    C3928375   2.449   3.206   2.378  1.4410 -0.1700 -0.3412
   89MOL    C4028376   2.568   3.033   2.232 -0.2664 -0.1462  1.1697
   89MOL    H4128377   2.900   3.377   2.182  0.4132 -1.0182  2.7636
   89MOL    H4228378   2.753   3.324   2.092  0.2991  1.4719  0.0964
   89MOL    H4328379   2.811   3.093   2.199  0.4965  0.7666 -1.1432
   89MOL    H4428380   2.397   3.130   2.436  0.3179  0.0409 -1.0554
   89MOL    H4528381   2.469   3.296   2.437  2.2681 -0.0591 -0.7785
   89MOL    H4628382   2.368   3.237   2.312  0.4872  0.1873  1.0001
   89MOL    H4728383   2.471   2.984   2.228 -0.8341  0.8587  2.2932
   89MOL    H4828384   2.636   2.955   2.265 -1.5956 -2.0327 -0.4051
   89MOL    H4928385   2.586   3.061   2.129 -3.5413  0.5240  0.7115
   89MOL    C5028386   2.948   3.162   2.329 -0.3607  0.0574 -0.6112
   89MOL    C5128387   2.945   3.058   2.449  0.5509 -0.0713 -0.0588
   89MOL    C5228388   2.883   3.121   2.575  0.0254  0.5506  0.2892
   89MOL    O5328389   2.939   3.223   2.620  0.1123  0.0802  0.4065
   89MOL    N5428390   2.767   3.076   2.630  0.1243  0.3663 -0.1138
   89MOL    C5528391   2.690   2.958   2.589 -0.7346 -0.5436 -0.2282
   89MOL    C5628392   2.705   3.160   2.742 -0.0286  0.2315 -0.0559
   89MOL    H5728393   3.022   3.128   2.256 -1.5870 -3.0813 -0.4585
   89MOL    H5828394   2.992   3.256   2.364  2.3440 -1.0068 -1.0499
   89MOL    H5928395   2.886   2.972   2.419 -2.9857  1.6306  1.6689
   89MOL    H6028396   2.649   2.979   2.491  0.4310  0.1391 -0.5854
   89MOL    H6128397   2.769   2.883   2.595  0.6236  0.7812 -1.0678
   89MOL    H6228398   2.609   2.946   2.661 -1.5566  1.6092 -0.7651
   89MOL    H6328399   2.657   3.256   2.725 -1.9695 -0.2556  2.3274
   89MOL    H6428400   2.776   3.181   2.822  0.2190 -0.0054 -0.2128
   89MOL    H6528401   2.633   3.096   2.793  3.4781 -2.8131  1.2534
   89MOL    C6628402   3.088   3.012   2.481 -0.1445 -0.5428  0.1392
   89MOL    C6728403   3.140   2.909   2.374 -0.0649 -0.4691 -0.0253
   89MOL    C6828404   3.045   2.782   2.379  0.1354 -0.8164  0.5762
   89MOL    O6928405   3.024   2.722   2.481 -0.3934 -0.4257  0.3978
   89MOL    N7028406   2.983   2.743   2.260 -0.2487  0.2328 -0.8454
   89MOL    C7128407   2.865   2.646   2.259 -0.0438 -0.3967  0.0605
   89MOL    C7228408   3.016   2.790   2.129 -0.5273  0.0510 -0.1052
   89MOL    H7328409   3.154   3.099   2.484 -1.6532  0.6072  0.1574
   89MOL    H7428410   3.083   2.970   2.581 -0.6328  2.4111  1.4006
   89MOL    H7528411   3.129   2.962   2.279  1.4227 -1.8869 -1.0017
   89MOL    H7628412   2.866   2.575   2.342  0.8060 -1.9410 -1.2518
   89MOL    H7728413   2.774   2.701   2.282  0.6582  1.4321 -1.3572
   89MOL    H7828414   2.855   2.589   2.167  2.6984 -1.3494  0.2904
   89MOL    H7928415   2.973   2.724   2.054 -2.2342 -0.4465  1.2910
   89MOL    H8028416   3.124   2.785   2.112 -0.5215 -1.0679  0.2566
   89MOL    H8128417   2.985   2.895   2.134 -0.0783  0.1509  0.8283
   89MOL    C8228418   3.290   2.873   2.391 -0.3004  0.8635 -0.0747
   89MOL    C8328419   3.357   2.778   2.287  0.2970  0.3023 -0.2708
   89MOL    C8428420   3.480   2.714   2.353  0.2762 -0.2143 -0.3439
   89MOL    O8528421   3.578   2.787   2.369  0.3043  0.6845 -0.1467
   89MOL    N8628422   3.475   2.581   2.387 -0.2351  1.1864  0.1463
   89MOL    C8728423   3.588   2.496   2.407 -0.3537 -0.2143 -0.0296
   89MOL    C8828424   3.347   2.512   2.415  0.3243  0.2041 -0.0965
   89MOL    H8928425   3.354   2.962   2.393  2.2330 -0.9269  0.6270
   89MOL    H9028426   3.311   2.840   2.493  0.4844 -1.5758 -0.9984
   89MOL    H9128427   3.274   2.716   2.253 -0.1669  0.9195 -0.2701
   89MOL    H9228428   3.632   2.502   2.507  1.8460  1.1142 -1.0357
   89MOL    H9328429   3.561   2.394   2.378  2.3283 -0.6044 -1.3070
   89MOL    H9428430   3.668   2.526   2.340 -2.4963  1.2942 -1.9981
   89MOL    H9528431   3.300   2.500   2.317  0.6645  0.6123 -0.3138
   89MOL    H9628432   3.276   2.574   2.469  1.2167 -0.5626  2.0028
   89MOL    H9728433   3.355   2.423   2.478 -0.0695  1.8259  2.2974
   89MOL    C9828434   3.394   2.858   2.159 -0.2759 -0.1890 -0.0693
   89MOL    C9928435   3.451   2.790   2.027  0.5922  0.0539 -0.0543
   89MOL   C10028436   3.437   2.885   1.905  0.0222  0.0691  0.4691
   89MOL   O10128437   3.329   2.874   1.851  0.4880  0.1458  0.1927
   89MOL   N10228438   3.532   2.971   1.862  0.1194  0.3066  0.4763
   89MOL   C10328439   3.660   2.999   1.931 -0.1187 -0.6145 -0.5464
   89MOL   C10428440   3.515   3.031   1.724  0.4157  0.5506 -0.9949
   89MOL   H10528441   3.306   2.912   2.127  0.9459  3.3555  2.2482
   89MOL   H10628442   3.462   2.939   2.187 -1.7735  0.4543  1.7722
   89MOL   H10728443   3.557   2.788   2.054  0.3681  0.2195  0.8488
   89MOL   H10828444   3.651   2.997   2.040  1.9676  0.3211 -0.3286
   89MOL   H10928445   3.730   2.920   1.905  1.9853  1.7656 -2.3303
   89MOL   H11028446   3.697   3.098   1.906 -0.6483 -1.0376 -3.1292
   89MOL   H11128447   3.561   2.963   1.652  2.8642  1.6369 -0.5164
   89MOL   H11228448   3.570   3.125   1.717 -1.6792  1.8031 -1.1677
   89MOL   H11328449   3.413   3.042   1.687  0.0447 -1.2048 -0.5481
   89MOL   C11428450   3.414   2.642   1.997 -0.5584 -0.8095 -0.6015
   89MOL   C11528451   3.529   2.562   1.937 -0.1193 -0.4090 -0.6799
   89MOL   C11628452   3.592   2.622   1.813  0.0479 -0.1897 -0.1160
   89MOL   O11728453   3.524   2.636   1.711  0.5192  0.5820 -0.1666
   89MOL   N11828454   3.722   2.669   1.808  0.4105 -0.4901 -0.0258
   89MOL   C11928455   3.767   2.741   1.692 -0.2447  0.0728  0.2545
   89MOL   C12028456   3.815   2.634   1.908 -0.0198  0.2788 -0.5485
   89MOL   H12128457   3.384   2.588   2.088 -1.8305 -1.6133 -1.4752
   89MOL   H12228458   3.325   2.638   1.934 -0.2633  4.1014 -1.4884
   89MOL   H12328459   3.596   2.564   2.023  0.7707  1.1834 -1.3918
   89MOL   H12428460   3.734   2.843   1.716 -2.2847 -0.1735 -1.3351
   89MOL   H12528461   3.876   2.741   1.697 -0.1227  2.4132 -1.4732
   89MOL   H12628462   3.727   2.709   1.597  0.6048 -1.7945  0.5069
   89MOL   H12728463   3.848   2.530   1.905 -0.8880 -0.0085 -0.3094
   89MOL   H12828464   3.782   2.642   2.012  1.5699 -1.0846  0.0883
   89MOL   H12928465   3.903   2.699   1.907  1.2546 -1.4065 -1.0463
   89MOL   C13028466   3.495   2.408   1.925  0.1108  0.0207  0.0387
   89MOL   C13128467   3.374   2.373   1.831  0.1294  0.3971 -0.3010
   89MOL   C13228468   3.248   2.361   1.921  0.1068 -0.5110  0.1466
   89MOL   O13328469   3.253   2.279   2.006 -0.3950  0.3016 -0.3175
   89MOL   N13428470   3.133   2.435   1.905  0.0529 -0.7058 -0.2227
   89MOL   C13528471   3.092   2.509   1.783  0.0876  0.0503 -0.8050
   89MOL   C13628472   3.017   2.405   1.989  0.6342  0.0158 -0.2151
   89MOL   H13728473   3.579   2.358   1.878  0.1199 -0.3210  0.4167
   89MOL   H13828474   3.488   2.359   2.022 -2.0544  1.2302  0.5314
   89MOL   H13928475   3.356   2.458   1.764 -1.0650  0.2281 -0.2160
   89MOL   H14028476   3.165   2.499   1.702  0.5529 -0.5273 -0.3189
   89MOL   H14128477   2.999   2.472   1.739  0.6072 -2.2743 -0.0093
   89MOL   H14228478   3.076   2.612   1.814  1.3839  0.1152 -0.3358
   89MOL   H14328479   2.975   2.309   1.960  0.3300  0.0995 -0.0492
   89MOL   H14428480   2.933   2.474   1.981  1.7517  1.3702 -0.4566
   89MOL   H14528481   3.036   2.399   2.096 -0.1662 -0.6769 -0.1105
   89MOL   C14628482   3.411   2.238   1.748  0.4437  0.8044 -0.0584
   89MOL   C14728483   3.375   2.241   1.602  0.8046 -0.1549  0.0180
   89MOL   C14828484   3.336   2.100   1.559 -0.2583  0.3856 -0.4191
   89MOL   O14928485   3.427   2.015   1.571 -0.2876 -0.2226  0.4922
   89MOL   N15028486   3.210   2.062   1.519 -0.2238  0.5196  0.1824
   89MOL   C15128487   3.089   2.150   1.501 -0.5841 -0.1128  0.1759
   89MOL   C15228488   3.185   1.915   1.497  0.2148 -0.0284 -0.8293
   89MOL   H15328489   3.514   2.203   1.762  0.3579 -0.3994 -2.1295
   89MOL   H15428490   3.361   2.153   1.795  2.0390 -0.5851 -0.8023
   89MOL   H15528491   3.288   2.306   1.600 -0.4848 -1.8613  0.0246
   89MOL   H15628492   3.061   2.189   1.598  0.7206  1.6110 -0.1046
   89MOL   H15728493   3.085   2.220   1.417  0.0111 -1.0500 -0.6502
   89MOL   H15828494   3.006   2.086   1.471 -1.8705  2.1648 -1.2877
   89MOL   H15928495   3.199   1.884   1.393 -0.2590 -1.4457 -0.4770
   89MOL   H16028496   3.086   1.893   1.536 -0.2967  0.3568 -1.8727
   89MOL   H16128497   3.251   1.854   1.559  2.4886  1.9149 -1.2493
   89MOL   C16228498   3.497   2.297   1.525 -0.1301 -0.4974 -0.0003
   89MOL   C16328499   3.481   2.311   1.370  0.6410 -0.7068 -0.4939
   89MOL   C16428500   3.606   2.364   1.299  0.4863 -0.1985  0.1619
   89MOL   O16528501   3.664   2.460   1.346  0.2813  0.1375 -0.5570
   89MOL   N16628502   3.663   2.299   1.195 -0.4193  0.1314  1.0572
   89MOL   C16728503   3.802   2.314   1.168  0.4197 -0.4362  0.6148
   89MOL   C16828504   3.604   2.179   1.125  0.1353  0.6334  0.0492
   89MOL   H16928505   3.522   2.395   1.564 -1.2664  0.5029 -1.7511
   89MOL   H17028506   3.582   2.229   1.528  0.3053  0.0625  0.4305
   89MOL   H17128507   3.463   2.210   1.333 -1.3202 -0.3310 -0.6642
   89MOL   H17228508   3.850   2.310   1.266  1.1614 -2.4203  0.1810
   89MOL   H17328509   3.836   2.229   1.109  1.8777 -0.7678  1.9009
   89MOL   H17428510   3.827   2.406   1.115 -0.4617  0.0991  1.1183
   89MOL   H17528511   3.662   2.156   1.036  0.1222  1.9776 -0.3114
   89MOL   H17628512   3.503   2.203   1.093  0.7538  1.3019 -1.4497
   89MOL   H17728513   3.607   2.099   1.200  1.8952  1.1572  0.5472
   89MOL   C17828514   3.350   2.391   1.332 -0.2801  0.2596  0.8483
   89MOL   C17928515   3.359   2.545   1.321 -0.1990  0.5016 -0.3556
   89MOL   C18028516   3.239   2.607   1.402  0.3016  0.4084  0.4872
   89MOL   O18128517   3.126   2.549   1.413  0.0591 -0.4980  0.4261
   89MOL   N18228518   3.257   2.731   1.454  0.5722 -0.0170 -0.0802
   89MOL   C18328519   3.373   2.816   1.453 -0.1873 -0.8827  0.4416
   89MOL   C18428520   3.151   2.779   1.541 -0.9058  0.5127 -1.0764
   89MOL   H18528521   3.318   2.349   1.237  0.8910  1.1348  0.0500
   89MOL   H18628522   3.272   2.371   1.405 -0.5427  2.6821  1.2546
   89MOL   H18728523   3.447   2.574   1.379  0.8314 -2.7831 -0.1556
   89MOL   H18828524   3.413   2.825   1.352  0.8283  0.1457  0.9288
   89MOL   H18928525   3.351   2.913   1.496 -1.0799 -0.4146 -1.0431
   89MOL   H19028526   3.456   2.771   1.508 -0.1488  0.7327  1.7096
   89MOL   H19128527   3.187   2.840   1.624 -0.6646 -0.8245 -0.1788
   89MOL   H19228528   3.088   2.698   1.579  0.7656 -0.2639  0.1062
   89MOL   H19328529   3.085   2.836   1.476  0.2449  1.9721 -0.9773
   89MOL   C19428530   3.366   2.597   1.178 -0.4047  1.0385  0.6005
   89MOL   C19528531   3.239   2.616   1.094 -0.4739 -0.2842  0.2480
   89MOL   C19628532   3.195   2.479   1.033  0.2137  0.1128  0.1512
   89MOL   O19728533   3.275   2.416   0.962  0.0333 -0.2000  1.0263
   89MOL   N19828534   3.080   2.423   1.080 -0.1254  0.2841 -0.0442
   89MOL   C19928535   2.970   2.507   1.117 -0.1027 -1.3246  0.2197
   89MOL   C20028536   3.073   2.280   1.096  0.2007 -0.2536  0.2295
   89MOL   H20128537   3.411   2.696   1.180 -0.1286  0.8749  2.4643
   89MOL   H20228538   3.435   2.531   1.125 -1.1499  0.1717  0.6805
   89MOL   H20328539   3.166   2.661   1.161 -1.0082 -0.0170 -0.5110
   89MOL   H20428540   2.968   2.605   1.070 -1.9759 -0.2928  2.3145
   89MOL   H20528541   2.879   2.453   1.088 -1.6344  0.5854  1.3120
   89MOL   H20628542   2.966   2.532   1.223 -1.8781  0.3194 -0.2037
   89MOL   H20728543   2.972   2.243   1.111 -0.9252  2.1211 -1.1677
   89MOL   H20828544   3.126   2.245   1.185 -0.1302  0.7764  0.8429
   89MOL   H20928545   3.120   2.226   1.014  0.7043 -1.4568  1.3019
   89MOL   C21028546   3.265   2.718   0.978 -0.9108  0.6025 -0.1782
   89MOL   C21128547   3.288   2.873   1.005  0.1857 -0.3984  0.2856
   89MOL   C21228548   3.154   2.952   1.012 -0.5663  0.1189  0.5406
   89MOL   O21328549   3.087   2.952   0.907  0.5044 -0.3433  0.9645
   89MOL   N21428550   3.121   3.026   1.121 -0.2261  0.6372 -0.3240
   89MOL   C21528551   3.193   3.033   1.252  0.2240  0.5664  0.1899
   89MOL   C21628552   3.015   3.127   1.102  0.4780  0.0668  0.8213
   89MOL   H21728553   3.343   2.679   0.912  0.5870  2.1436  0.6476
   89MOL   H21828554   3.172   2.712   0.922 -1.5838  1.4999  0.8331
   89MOL   H21928555   3.332   2.890   1.103  2.5902  0.3390 -0.8763
   89MOL   H22028556   3.301   3.021   1.248  0.1987 -0.1586  1.4367
   89MOL   H22128557   3.181   3.126   1.308 -0.8973 -0.6490  2.0120
   89MOL   H22228558   3.141   2.961   1.314  0.2451  0.6535  0.3087
   89MOL   H22328559   2.944   3.100   1.024 -0.9634  0.9826  1.8113
   89MOL   H22428560   3.056   3.226   1.082 -1.0933  0.3696 -1.0634
   89MOL   H22528561   2.962   3.125   1.197 -1.8057  2.4323 -0.3400
   89MOL   C22628562   3.380   2.936   0.898  0.0713  0.5702  0.2576
   89MOL   C22728563   3.527   2.879   0.885  0.7595  0.3372 -0.1863
   89MOL   C22828564   3.591   2.863   1.022  1.4305  0.0272  0.5254
   89MOL   O22928565   3.584   2.961   1.097  0.0370  0.5848  0.0128
   89MOL   N23028566   3.655   2.750   1.053  0.0301 -0.1357 -0.4033
   89MOL   C23128567   3.718   2.735   1.186  0.0990 -0.4604  0.0534
   89MOL   C23228568   3.683   2.641   0.962 -1.0178 -0.8898  0.2519
   89MOL   H23328569   3.332   2.937   0.801  0.4340  0.2999  0.0743
   89MOL   H23428570   3.394   3.039   0.931  0.5272  1.6249 -3.0495
   89MOL   H23528571   3.525   2.783   0.833 -3.0018  1.5218 -2.3912
   89MOL   H23628572   3.765   2.832   1.198 -1.1846  0.4454 -1.9066
   89MOL   H23728573   3.649   2.717   1.269  1.4003  0.7631  1.4296
   89MOL   H23828574   3.790   2.654   1.195 -0.7928 -1.3981 -1.1150
   89MOL   H23928575   3.597   2.577   0.943 -0.1683 -2.5597  1.8028
   89MOL   H24028576   3.766   2.575   0.990  0.4935  0.8882  0.0704
   89MOL   H24128577   3.705   2.680   0.863 -1.1686 -1.4213  0.0062
   89MOL   C24228578   3.624   2.971   0.807  0.3461  0.5381 -0.9396
   89MOL   C24328579   3.572   3.026   0.671 -0.1110  0.0029 -0.2629
   89MOL   C24428580   3.525   2.913   0.571  0.4385 -0.7390 -0.3032
   89MOL   O24528581   3.600   2.814   0.563 -0.3406 -0.3153  0.1132
   89MOL   N24628582   3.404   2.921   0.506  0.7852  0.4238 -0.1356
   89MOL   C24728583   3.315   3.039   0.509  0.0743  0.1352 -0.3680
   89MOL   C24828584   3.361   2.802   0.432 -0.2066  0.1809 -0.5231
   89MOL   H24928585   3.631   3.065   0.862 -0.4480 -0.1808  0.3996
   89MOL   H25028586   3.724   2.929   0.796  0.3579  0.0462  0.8456
   89MOL   H25128587   3.484   3.084   0.698  0.0833  0.7603 -1.2096
   89MOL   H25228588   3.264   3.055   0.605  1.9226  1.2074  0.4549
   89MOL   H25328589   3.371   3.133   0.501 -0.0985  0.1239 -1.8361
   89MOL   H25428590   3.232   3.027   0.439 -0.8207 -1.0894  0.8782
   89MOL   H25528591   3.310   2.821   0.338  1.8153 -0.3408 -1.7697
   89MOL   H25628592   3.289   2.760   0.502 -0.6441  0.5953 -0.7271
   89MOL   H25728593   3.441   2.735   0.401 -0.8592 -0.0895 -1.6188
   89MOL   C25828594   3.684   3.114   0.611 -0.2474 -0.7903  0.4789
   89MOL   C25928595   3.711   3.249   0.677 -0.0820  0.0287 -0.1967
   89MOL   C26028596   3.583   3.336   0.713  0.2331 -0.3734 -0.3389
   89MOL   O26128597   3.501   3.355   0.622  0.1258 -0.4201 -0.4089
   89MOL   N26228598   3.565   3.388   0.838 -0.4088 -0.6933  0.6146
   89MOL   C26328599   3.438   3.430   0.891 -0.4405 -0.1999  0.3580
   89MOL   C26428600   3.681   3.398   0.928  0.7126 -0.0529 -0.2150
   89MOL   H26528601   3.776   3.056   0.603 -0.1285 -0.3257 -2.3252
   89MOL   H26628602   3.667   3.122   0.503  0.9980 -0.7231  0.2780
   89MOL   H26728603   3.752   3.230   0.777  0.1947 -0.9812 -0.4909
   89MOL   H26828604   3.434   3.531   0.932 -0.5935 -0.3488  0.7162
   89MOL   H26928605   3.358   3.447   0.818 -0.8122 -0.8840  0.5990
   89MOL   H27028606   3.406   3.366   0.973 -1.9347 -0.1525 -0.1653
   89MOL   H27128607   3.655   3.489   0.983  0.3906  0.5851 -1.4191
   89MOL   H27228608   3.773   3.417   0.872 -0.5712 -2.1111 -3.1371
   89MOL   H27328609   3.677   3.319   1.004  1.7440  0.8008  0.7484
   89MOL   C27428610   3.819   3.338   0.612 -0.2713  0.5044 -0.4814
   89MOL   C27528611   3.809   3.367   0.454 -0.0170 -0.4036 -0.3900
   89MOL   C27628612   3.826   3.249   0.361  0.4880 -0.2539  1.3754
   89MOL   O27728613   3.928   3.183   0.384  0.0728 -0.1145  0.0573
   89MOL   N27828614   3.740   3.219   0.259  0.2163 -0.3381 -0.1840
   89MOL   C27928615   3.602   3.271   0.248  0.3463  0.3587 -0.4024
   89MOL   C28028616   3.765   3.103   0.173  0.1765  0.4993  0.0628
   89MOL   H28128617   3.818   3.439   0.653 -2.1869  1.2660 -2.3665
   89MOL   H28228618   3.915   3.292   0.639 -0.4353 -0.5444 -1.6153
   89MOL   H28328619   3.718   3.424   0.435  0.5288  0.6366  0.0400
   89MOL   H28428620   3.557   3.228   0.159  0.3311  2.2238 -1.3168
   89MOL   H28528621   3.549   3.232   0.335 -2.2382  0.1690 -2.0245
   89MOL   H28628622   3.606   3.379   0.232  1.2535  0.3808 -0.0542
   89MOL   H28728623   3.708   3.101   0.080  1.0047  1.5145 -0.4919
   89MOL   H28828624   3.731   3.026   0.242  0.5084 -1.2344 -1.6651
   89MOL   H28928625   3.873   3.093   0.160  0.6136  1.9105  2.3558
   89MOL   C29028626   3.916   3.475   0.417 -0.2881  0.6157  0.7983
   89MOL   C29128627   3.914   3.537   0.272  0.1112  0.1530 -0.7098
   89MOL   C29228628   4.063   3.539   0.222 -0.0828 -0.3866  0.0542
   89MOL   O29328629   4.150   3.602   0.288  0.5827  0.2039  0.0717
   89MOL   N29428630   4.096   3.469   0.112  0.1234  0.3179  0.1504
   89MOL   C29528631   4.232   3.464   0.059 -0.0392  0.4964 -0.2199
   89MOL   C29628632   4.004   3.378   0.032 -0.3356 -0.3894 -0.0786
   89MOL   H29728633   3.921   3.542   0.503  1.4930  0.5233  0.7721
   89MOL   H29828634   4.009   3.420   0.429 -0.4036  0.2714  0.1783
   89MOL   H29928635   3.850   3.477   0.207 -0.7630  1.2801 -0.8970
   89MOL   H30028636   4.292   3.547   0.097 -0.0939  1.1747 -1.5915
   89MOL   H30128637   4.279   3.366   0.065 -1.8490 -0.4273 -0.8965
   89MOL   H30228638   4.223   3.499   7.810 -0.7531 -0.5129 -0.5072
   89MOL   H30328639   4.065   3.313   7.823 -1.3088 -0.3250 -1.1263
   89MOL   H30428640   3.930   3.436   7.830  1.2131  1.7363  0.0355
   89MOL   H30528641   3.950   3.302   0.089 -0.4714 -0.0697  0.2228
   89MOL   C30628642   3.871   3.689   0.276  0.6530 -0.5469  0.8135
   89MOL   C30728643   3.716   3.714   0.313  0.6533  0.5944 -0.3527
   89MOL   C30828644   3.685   3.725   0.461 -0.4177 -0.2360  0.2001
   89MOL   O30928645   3.776   3.744   0.539  0.0671 -0.2764  0.0954
   89MOL   N31028646   3.562   3.693   0.503  0.7207  0.1282  0.0293
   89MOL   C31128647   3.533   3.667   0.644  0.0718  0.2640 -0.1492
   89MOL   C31228648   3.448   3.681   0.413  0.1600  0.3311  0.1170
   89MOL   H31328649   3.929   3.735   0.356 -0.4847 -0.6660  1.7368
   89MOL   H31428650   3.882   3.743   0.183 -1.4727 -0.2351  0.7004
   89MOL   H31528651   3.686   3.809   0.269  0.0826 -0.2644 -1.8597
   89MOL   H31628652   3.507   3.760   0.694  0.7907  1.4361 -1.9249
   89MOL   H31728653   3.443   3.606   0.657  0.0200  0.4370  0.3153
   89MOL   H31828654   3.618   3.622   0.695  0.3350 -0.8956 -1.5703
   89MOL   H31928655   3.354   3.716   0.455  0.1866 -0.3876  0.7894
   89MOL   H32028656   3.431   3.579   0.379 -1.6988  0.9637 -0.9362
   89MOL   H32128657   3.457   3.740   0.322 -0.5800 -0.1560 -0.2779
   89MOL   H32228658   3.660   3.631   0.269 -1.0482  2.3275 -1.5309
   90MOL     C128659   3.988   4.412   6.155 -0.2291 -0.5191 -0.8656
   90MOL     C228660   3.956   4.465   6.304 -0.0037  0.3208 -0.0312
   90MOL     C328661   4.073   4.428   6.399 -0.4663 -0.3766  0.4144
   90MOL     O428662   4.136   4.326   6.382 -0.3976  0.0499 -0.1621
   90MOL     N528663   4.104   4.509   6.502  0.3897 -1.0221 -0.2521
   90MOL     C628664   4.051   4.644   6.520  0.3426  0.1351 -0.8292
   90MOL     C728665   4.212   4.478   6.598  0.0940  0.6689 -0.6357
   90MOL     H828666   4.092   4.439   6.132  0.3277 -1.0849  0.8867
   90MOL     H928667   3.917   4.449   6.082 -1.5180 -1.6577 -0.2096
   90MOL    H1028668   3.943   4.573   6.301  0.2664  0.3053 -2.8881
   90MOL    H1128669   4.067   4.707   6.432 -0.1878 -1.3036 -1.9636
   90MOL    H1228670   3.946   4.645   6.548  1.1164  0.9469  2.2103
   90MOL    H1328671   4.108   4.703   6.591  0.5227 -1.4389  0.3602
   90MOL    H1428672   4.312   4.498   6.558  0.2004 -0.4359 -0.9519
   90MOL    H1528673   4.219   4.371   6.618  2.1050  0.4028 -2.5077
   90MOL    H1628674   4.199   4.532   6.691 -1.5955 -0.2569 -0.3150
   90MOL    H1728675   3.984   4.304   6.143 -2.2330 -0.8145  2.0709
   90MOL    C1828676   3.823   4.413   6.362 -0.0853  1.0433 -0.6262
   90MOL    C1928677   3.690   4.448   6.288 -0.1039  0.7095 -0.5173
   90MOL    C2028678   3.643   4.594   6.321 -0.1508 -0.6593  0.8828
   90MOL    O2128679   3.643   4.616   6.445 -0.0723 -0.2217  0.5654
   90MOL    N2228680   3.623   4.688   6.224  0.0996 -0.1137 -0.3159
   90MOL    C2328681   3.610   4.656   6.081  0.2097  0.0033  0.4833
   90MOL    C2428682   3.590   4.823   6.262 -0.2100 -0.3111 -0.3986
   90MOL    H2528683   3.833   4.305   6.373  0.8980  1.3684  2.1347
   90MOL    H2628684   3.823   4.442   6.468  0.9063 -0.7188 -0.1201
   90MOL    H2728685   3.713   4.451   6.181  1.9880  3.6669 -0.0544
   90MOL    H2828686   3.709   4.649   6.034 -0.0168 -0.1657  0.0275
   90MOL    H2928687   3.563   4.558   6.086  0.0378 -0.0878 -2.1086
   90MOL    H3028688   3.550   4.723   6.019  0.8272 -0.1915 -0.3347
   90MOL    H3128689   3.676   4.888   6.246  0.4274 -1.5865 -2.3329
   90MOL    H3228690   3.563   4.836   6.367  1.9574  0.1087  0.1304
   90MOL    H3328691   3.504   4.860   6.205 -0.5635  0.5911  0.6906
   90MOL    C3428692   3.572   4.349   6.312  0.0125  0.2300  0.4985
   90MOL    C3528693   3.582   4.216   6.227  1.1678  0.1443  0.6230
   90MOL    C3628694   3.547   4.229   6.081  0.3678  0.2595 -0.0556
   90MOL    O3728695   3.452   4.301   6.050 -0.0703  0.0786 -0.3224
   90MOL    N3828696   3.613   4.164   5.985  0.6934 -0.0175 -0.1845
   90MOL    C3928697   3.609   4.205   5.838  0.2114  1.0437  0.0051
   90MOL    C4028698   3.713   4.067   6.015 -0.3123  0.0199  0.2977
   90MOL    H4128699   3.557   4.330   6.418 -0.2620  2.2075  0.8280
   90MOL    H4228700   3.475   4.392   6.288  1.5296  1.6543 -3.6728
   90MOL    H4328701   3.691   4.204   6.228  0.9611 -1.8408  2.4176
   90MOL    H4428702   3.710   4.226   5.803  0.6317 -1.4860 -0.3923
   90MOL    H4528703   3.561   4.124   5.783 -0.0849  1.6075 -0.5654
   90MOL    H4628704   3.545   4.291   5.818  0.1669  0.4572 -2.5819
   90MOL    H4728705   3.784   4.051   5.933 -0.3643  2.9724 -0.3692
   90MOL    H4828706   3.667   3.975   6.052  0.3127 -0.3327  0.2048
   90MOL    H4928707   3.785   4.107   6.086 -1.6753 -0.4368  1.9752
   90MOL    C5028708   3.513   4.096   6.287  0.2574  1.1321 -0.1232
   90MOL    C5128709   3.570   4.043   6.428 -0.0115  0.1583  0.5934
   90MOL    C5228710   3.717   4.007   6.419 -0.2161 -0.2986 -0.5498
   90MOL    O5328711   3.762   3.966   6.314 -0.2406  0.1659  0.4777
   90MOL    N5428712   3.807   4.040   6.518 -0.1196  0.1383  0.6493
   90MOL    C5528713   3.770   4.056   6.658 -0.1812 -0.3577  0.4633
   90MOL    C5628714   3.942   4.038   6.486  0.2419 -0.4891  0.5164
   90MOL    H5728715   3.408   4.117   6.305  0.3991  0.8020  1.1347
   90MOL    H5828716   3.500   4.015   6.215 -1.4393 -1.2081  2.7034
   90MOL    H5928717   3.566   4.132   6.492 -2.1829  0.1362  0.5129
   90MOL    H6028718   3.848   4.008   6.717 -0.1297 -0.9207 -0.0460
   90MOL    H6128719   3.765   4.160   6.689  2.6232  0.2354 -0.9085
   90MOL    H6228720   3.691   3.990   6.694  1.4438 -1.6310  1.7675
   90MOL    H6328721   3.974   4.091   6.396  1.1864 -0.7460  0.6978
   90MOL    H6428722   3.986   3.938   6.492  1.3528 -0.0235  0.3239
   90MOL    H6528723   3.995   4.101   6.558 -0.5862 -0.3440  1.0116
   90MOL    C6628724   3.477   3.932   6.478  0.2819  0.4847  0.5912
   90MOL    C6728725   3.337   3.966   6.544  0.2780 -0.2958 -0.6887
   90MOL    C6828726   3.359   4.009   6.693  0.2874 -0.7537 -0.1335
   90MOL    O6928727   3.389   3.924   6.779 -0.0708  0.1451  1.0587
   90MOL    N7028728   3.353   4.140   6.738 -0.5872  0.5170 -0.4324
   90MOL    C7128729   3.384   4.182   6.867 -0.2587  0.3371  0.6831
   90MOL    C7228730   3.319   4.249   6.648 -0.5526  0.6596  0.1665
   90MOL    H7328731   3.460   3.868   6.391  1.3976 -0.1252  0.8055
   90MOL    H7428732   3.518   3.859   6.548 -0.8366 -2.1158 -1.3410
   90MOL    H7528733   3.291   4.048   6.488 -0.2936 -1.1778 -1.5181
   90MOL    H7628734   3.432   4.279   6.858  0.1934  0.2496  1.9858
   90MOL    H7728735   3.293   4.179   6.927 -0.8804 -0.1801 -0.2689
   90MOL    H7828736   3.468   4.125   6.908  1.4566  3.3984  1.5506
   90MOL    H7928737   3.321   4.345   6.699 -1.1217  0.5686  0.3550
   90MOL    H8028738   3.213   4.245   6.625 -0.5201 -0.0293  0.1369
   90MOL    H8128739   3.381   4.256   6.559 -0.1748 -3.4760  0.0249
   90MOL    C8228740   3.240   3.847   6.528 -0.8385 -0.0597  0.5477
   90MOL    C8328741   3.098   3.865   6.594 -0.4902 -0.0905 -0.1237
   90MOL    C8428742   3.065   3.749   6.682 -0.4219 -0.2814 -0.3918
   90MOL    O8528743   3.036   3.645   6.620 -0.0607  0.9831  0.0906
   90MOL    N8628744   3.050   3.760   6.816  0.2123 -0.9878 -0.3300
   90MOL    C8728745   3.015   3.887   6.884 -0.1194 -0.4095 -0.6043
   90MOL    C8828746   3.031   3.643   6.897  0.4390  0.3296 -0.1240
   90MOL    H8928747   3.233   3.831   6.421 -0.5531  0.3208  0.4726
   90MOL    H9028748   3.297   3.765   6.572 -1.4535  0.2091  1.8911
   90MOL    H9128749   3.107   3.953   6.659 -0.1518 -2.1371  2.6705
   90MOL    H9228750   2.970   3.880   6.983  2.9050 -0.6459  0.8019
   90MOL    H9328751   3.106   3.946   6.898 -0.7793  0.5479 -0.2856
   90MOL    H9428752   2.947   3.952   6.828 -0.8577  0.6292  1.4395
   90MOL    H9528753   2.981   3.664   6.992 -0.3398  1.0841 -0.7016
   90MOL    H9628754   3.120   3.580   6.910 -0.4150 -0.7880  0.4229
   90MOL    H9728755   2.953   3.585   6.847  0.6619  0.4677 -0.6305
   90MOL    C9828756   2.985   3.896   6.492  0.6373 -0.1423 -0.0061
   90MOL    C9928757   2.961   4.046   6.439  0.2647  0.2455  0.1380
   90MOL   C10028758   2.927   4.153   6.544 -0.1355  0.3465 -0.5387
   90MOL   O10128759   2.864   4.116   6.644  0.1762 -0.7167  0.5083
   90MOL   N10228760   2.968   4.283   6.537  0.0205  0.3230  0.4216
   90MOL   C10328761   3.057   4.326   6.424  0.2504  0.1931 -0.6027
   90MOL   C10428762   2.939   4.381   6.654 -0.1047  1.2296 -0.1069
   90MOL   H10528763   3.001   3.829   6.407  1.1484 -0.5186  0.3845
   90MOL   H10628764   2.892   3.870   6.542 -1.4619  1.0232 -3.1487
   90MOL   H10728765   3.049   4.078   6.384 -0.0587  0.3451 -0.3304
   90MOL   H10828766   3.092   4.428   6.442 -0.2539  1.0790 -4.3395
   90MOL   H10928767   3.151   4.272   6.418 -0.4095 -1.4781  2.6798
   90MOL   H11028768   2.995   4.335   6.335  0.0201  1.4544 -0.3322
   90MOL   H11128769   2.871   4.349   6.732 -0.4363  1.0796 -0.4568
   90MOL   H11228770   2.901   4.479   6.625  0.3952  1.6861  0.7737
   90MOL   H11328771   3.031   4.400   6.709 -0.0064 -0.8990  0.4975
   90MOL   C11428772   2.841   4.051   6.338  0.7373  0.4497 -0.5690
   90MOL   C11528773   2.887   3.991   6.203 -0.0498 -0.0183  0.2234
   90MOL   C11628774   2.929   4.112   6.111 -0.3529 -0.0207 -0.0004
   90MOL   O11728775   2.838   4.190   6.072  0.3240 -1.1675 -0.2984
   90MOL   N11828776   3.059   4.139   6.071  0.7894  0.0766  0.3261
   90MOL   C11928777   3.167   4.046   6.093  0.2596  0.3448  0.0828
   90MOL   C12028778   3.091   4.250   5.985 -0.6011  0.3060  0.0322
   90MOL   H12128779   2.766   3.990   6.389  0.8297  1.6962  1.1030
   90MOL   H12228780   2.784   4.144   6.336 -0.1121 -0.0048  1.2870
   90MOL   H12328781   2.966   3.919   6.222 -1.9601 -2.2393  0.0165
   90MOL   H12428782   3.192   4.039   6.199  1.7561 -1.5944 -0.3605
   90MOL   H12528783   3.140   3.946   6.060 -0.1865  1.0609 -1.7855
   90MOL   H12628784   3.259   4.075   6.041  1.1462 -1.4653  0.6090
   90MOL   H12728785   3.168   4.226   5.912  0.4323 -0.7819  1.4526
   90MOL   H12828786   3.113   4.342   6.038 -0.1250  0.4638 -0.4281
   90MOL   H12928787   3.000   4.276   5.930  0.8129  3.0614 -1.0780
   90MOL   C13028788   2.761   3.915   6.144 -0.8635 -0.3348 -0.2780
   90MOL   C13128789   2.786   3.832   6.016  0.0009 -0.3282 -0.4680
   90MOL   C13228790   2.885   3.710   6.033 -0.2031 -0.1567 -0.1052
   90MOL   O13328791   3.001   3.735   6.022 -0.0632  0.2968 -0.4147
   90MOL   N13428792   2.847   3.585   6.060  0.2177 -0.2960 -0.7363
   90MOL   C13528793   2.934   3.470   6.049 -0.2802  0.1788  0.3243
   90MOL   C13628794   2.705   3.544   6.077  0.5712  0.0245  0.2163
   90MOL   H13728795   2.727   3.846   6.221  3.5511 -3.1849 -0.6394
   90MOL   H13828796   2.678   3.985   6.135 -1.3315 -0.9352 -0.7218
   90MOL   H13928797   2.684   3.795   6.004 -1.0396  2.5657 -1.0334
   90MOL   H14028798   2.930   3.421   5.952  0.6367  1.8553 -0.5877
   90MOL   H14128799   3.040   3.482   6.070 -0.6991 -0.9488  3.2534
   90MOL   H14228800   2.895   3.391   6.113 -1.2825  1.8239  1.7860
   90MOL   H14328801   2.707   3.452   6.137 -1.5470 -0.4670 -0.4327
   90MOL   H14428802   2.665   3.529   5.977 -2.6013  0.7416  1.3278
   90MOL   H14528803   2.644   3.609   6.140  0.5130  0.9605 -0.8045
   90MOL   C14628804   2.810   3.923   5.891  0.1782  0.0265  0.0827
   90MOL   C14728805   2.751   3.849   5.769  0.1566  0.1181  0.4019
   90MOL   C14828806   2.849   3.840   5.648 -0.2643 -0.0484  0.3078
   90MOL   O14928807   2.936   3.923   5.635 -0.2467 -0.6511  0.6225
   90MOL   N15028808   2.844   3.734   5.564 -0.5492  0.1014 -0.0276
   90MOL   C15128809   2.735   3.636   5.540 -0.0859 -0.0790 -0.1542
   90MOL   C15228810   2.967   3.697   5.499  0.4952  0.4006  0.2813
   90MOL   H15328811   2.754   4.013   5.913 -0.5493 -0.6809  1.1964
   90MOL   H15428812   2.918   3.934   5.876  0.1983 -0.6570 -0.3080
   90MOL   H15528813   2.731   3.745   5.795 -1.2381  0.4410  0.6728
   90MOL   H15628814   2.652   3.666   5.604  0.6818  1.8525 -0.0255
   90MOL   H15728815   2.700   3.639   5.437 -0.6462 -3.9225 -0.1451
   90MOL   H15828816   2.763   3.537   5.576  2.7968  0.7265 -0.0488
   90MOL   H15928817   2.967   3.630   5.413 -0.9035  0.2375  0.4046
   90MOL   H16028818   3.033   3.662   5.579  1.8107  0.3909 -0.7930
   90MOL   H16128819   3.009   3.787   5.455 -2.1621  0.6840 -1.7755
   90MOL   C16228820   2.622   3.920   5.708 -0.2164  0.0253 -0.8763
   90MOL   C16328821   2.502   3.917   5.810  0.0926 -0.1580  0.6683
   90MOL   C16428822   2.449   3.780   5.852 -0.0040  0.0327 -0.0157
   90MOL   O16528823   2.455   3.693   5.766  0.4373  0.0870  0.1518
   90MOL   N16628824   2.392   3.752   5.972 -0.4552  0.2172  0.2100
   90MOL   C16728825   2.310   3.632   6.008  0.7548  0.1480 -0.2660
   90MOL   C16828826   2.382   3.852   6.080 -0.3609  0.0040  1.3463
   90MOL   H16928827   2.641   4.027   5.695 -2.2450  0.7389  1.4785
   90MOL   H17028828   2.587   3.885   5.611 -1.5457  0.0883 -0.4361
   90MOL   H17128829   2.547   3.956   5.901  0.6023  1.2198 -0.1548
   90MOL   H17228830   2.375   3.554   6.047  0.5191  0.6214  1.0935
   90MOL   H17328831   2.220   3.653   6.067  1.5596  0.5820  0.8109
   90MOL   H17428832   2.268   3.601   5.912 -0.3866  1.2542 -0.1391
   90MOL   H17528833   2.305   3.925   6.057  0.8909  1.0289  0.3788
   90MOL   H17628834   2.476   3.903   6.100 -0.0588  0.0879 -0.2596
   90MOL   H17728835   2.363   3.802   6.175 -0.8704  0.4627  1.4897
   90MOL   C17828836   2.389   4.023   5.767 -0.8778 -0.4961 -0.0288
   90MOL   C17928837   2.309   3.989   5.640  0.1820 -0.2272  0.5908
   90MOL   C18028838   2.265   4.118   5.571  0.3592 -0.6895 -0.0212
   90MOL   O18128839   2.173   4.177   5.625  0.4318 -0.0777 -0.0332
   90MOL   N18228840   2.326   4.164   5.464  0.6191  0.2879  0.4766
   90MOL   C18328841   2.443   4.101   5.399  0.0208  0.3917 -0.0890
   90MOL   C18428842   2.274   4.277   5.393  0.0505 -0.4265 -0.1062
   90MOL   H18528843   2.322   4.053   5.849 -0.7420  0.7051 -0.3414
   90MOL   H18628844   2.442   4.117   5.749 -0.2979 -0.9288 -0.5771
   90MOL   H18728845   2.363   3.924   5.571  2.0225 -0.3750  2.1262
   90MOL   H18828846   2.396   4.022   5.341  1.3498  0.5551 -1.4230
   90MOL   H18928847   2.491   4.171   5.331  0.6135  0.3797  0.3087
   90MOL   H19028848   2.521   4.057   5.461  0.4982 -1.5067 -1.9566
   90MOL   H19128849   2.248   4.372   5.440 -1.7408  0.2477 -2.3519
   90MOL   H19228850   2.183   4.243   5.343 -0.2731 -0.4556  0.4913
   90MOL   H19328851   2.340   4.317   5.316 -2.0627  0.0781 -1.6863
   90MOL   C19428852   2.191   3.907   5.685  0.0924 -0.2502 -0.0286
   90MOL   C19528853   2.163   3.773   5.611  0.4316 -0.6926 -0.2979
   90MOL   C19628854   2.146   3.804   5.462  0.2249 -0.4498  0.2286
   90MOL   O19728855   2.063   3.880   5.415  0.0812  0.6177 -0.3967
   90MOL   N19828856   2.234   3.746   5.365  0.2102  0.3211 -0.6177
   90MOL   C19928857   2.214   3.760   5.212  0.0569  1.2710 -0.5389
   90MOL   C20028858   2.333   3.648   5.392  0.4760 -0.0805 -0.5732
   90MOL   H20128859   2.193   3.877   5.790 -0.9322 -0.0152  0.0555
   90MOL   H20228860   2.096   3.959   5.680 -0.6398 -1.6311 -0.8861
   90MOL   H20328861   2.244   3.700   5.617  0.9624 -0.0041  1.2877
   90MOL   H20428862   2.309   3.790   5.168  1.7378 -1.8088  0.8126
   90MOL   H20528863   2.173   3.669   5.167 -3.0120  2.0927  0.4866
   90MOL   H20628864   2.156   3.845   5.175 -0.7123  1.9598  2.1485
   90MOL   H20728865   2.275   3.559   5.415 -0.1301  0.4523 -0.0224
   90MOL   H20828866   2.401   3.680   5.471  1.2863 -0.4894 -1.1018
   90MOL   H20928867   2.407   3.635   5.313 -0.5448 -1.5450 -1.2936
   90MOL   C21028868   2.035   3.713   5.673  0.7524  0.3173  0.7321
   90MOL   C21128869   2.002   3.565   5.646 -0.2228  0.2538  0.3524
   90MOL   C21228870   1.845   3.545   5.654 -0.1318 -0.2679 -0.9476
   90MOL   O21328871   1.807   3.559   5.767  0.5077 -0.0357  0.5708
   90MOL   N21428872   1.772   3.538   5.542 -0.6274  0.6456  0.4112
   90MOL   C21528873   1.827   3.545   5.410  0.2929 -0.4577 -0.1331
   90MOL   C21628874   1.625   3.532   5.548  0.3634 -0.0913  0.6773
   90MOL   H21728875   2.048   3.717   5.781  0.0438  0.9899  0.8018
   90MOL   H21828876   1.952   3.783   5.657 -1.1194 -2.0876 -0.3487
   90MOL   H21928877   2.033   3.542   5.544 -2.4649  1.0354 -0.5394
   90MOL   H22028878   1.891   3.630   5.385  1.0481 -0.1969  2.5193
   90MOL   H22128879   1.874   3.447   5.398 -0.5314 -1.2025  2.3423
   90MOL   H22228880   1.747   3.537   5.336 -0.7791  0.8135  0.8777
   90MOL   H22328881   1.589   3.442   5.498 -1.7420  0.0049  1.9608
   90MOL   H22428882   1.590   3.616   5.487 -0.3381 -0.7485  0.1627
   90MOL   H22528883   1.575   3.543   5.645 -2.2189  1.0390 -0.7075
   90MOL   C22628884   2.087   3.467   5.736  0.3019 -0.2107 -0.3570
   90MOL   C22728885   2.048   3.315   5.722  0.8552 -0.2556  0.5104
   90MOL   C22828886   2.088   3.237   5.851 -0.2302  0.4022  0.6290
   90MOL   O22928887   2.200   3.260   5.894 -0.2437  0.1362  0.1097
   90MOL   N23028888   2.004   3.144   5.912 -0.0036 -0.1361  0.1394
   90MOL   C23128889   2.043   3.071   6.029 -0.3993 -0.1979 -0.0371
   90MOL   C23228890   1.860   3.135   5.880  0.0057  0.2597  0.5954
   90MOL   H23328891   2.195   3.483   5.731 -0.0190  1.6433 -2.2999
   90MOL   H23428892   2.054   3.494   5.837  1.0873  2.7291 -0.8400
   90MOL   H23528893   1.940   3.311   5.711  0.7835  1.4982  0.4080
   90MOL   H23628894   2.139   3.108   6.064 -1.5615  2.5117  0.4494
   90MOL   H23728895   1.971   3.089   6.109 -0.4142 -0.4369  0.0043
   90MOL   H23828896   2.047   2.964   6.010 -1.6953 -0.0869 -1.0216
   90MOL   H23928897   1.837   3.150   5.775  2.1494  0.2756  0.1047
   90MOL   H24028898   1.813   3.204   5.950 -0.9633  0.0394  0.1735
   90MOL   H24128899   1.816   3.037   5.898  1.5809 -0.6655 -0.5180
   90MOL   C24228900   2.114   3.259   5.585  0.7676  0.7870 -0.4560
   90MOL   C24328901   2.252   3.193   5.583 -0.0975 -0.3122  0.4843
   90MOL   C24428902   2.366   3.291   5.612 -0.1836 -0.1244 -0.1664
   90MOL   O24528903   2.378   3.388   5.532 -0.1383 -0.1702 -1.2996
   90MOL   N24628904   2.461   3.267   5.706 -1.0234 -0.1701 -0.3681
   90MOL   C24728905   2.474   3.163   5.806  0.0328  0.3297 -0.0158
   90MOL   C24828906   2.578   3.357   5.712  0.1015 -0.4105  0.2501
   90MOL   H24928907   2.052   3.178   5.547  3.2824 -0.7692 -1.3368
   90MOL   H25028908   2.112   3.344   5.516 -0.4750  0.9834 -0.1959
   90MOL   H25128909   2.259   3.109   5.652  1.4260 -1.4256 -0.9942
   90MOL   H25228910   2.566   3.104   5.806  0.1474  0.5100 -0.2106
   90MOL   H25328911   2.448   3.200   5.905 -0.7231  1.5921 -0.6779
   90MOL   H25428912   2.406   3.080   5.784 -0.4274  0.0614  2.3018
   90MOL   H25528913   2.552   3.461   5.697 -0.3116 -0.4768  0.5016
   90MOL   H25628914   2.651   3.329   5.636 -1.4490 -1.4146 -0.9012
   90MOL   H25728915   2.633   3.358   5.807 -1.9650  1.3120  1.4721
   90MOL   C25828916   2.274   3.135   5.443 -0.9050 -0.6439 -0.6071
   90MOL   C25928917   2.407   3.057   5.421  0.6199  0.1435  0.1521
   90MOL   C26028918   2.500   3.132   5.318  0.1893  0.6495 -0.2980
   90MOL   O26128919   2.458   3.153   5.203 -0.5307  0.2331 -0.2722
   90MOL   N26228920   2.627   3.160   5.346  0.5258  1.1741 -0.1666
   90MOL   C26328921   2.694   3.264   5.274  0.4206 -0.4921  0.1120
   90MOL   C26428922   2.705   3.091   5.446 -0.1896 -0.8367 -0.3741
   90MOL   H26528923   2.188   3.069   5.428 -0.1364 -1.3855 -1.8502
   90MOL   H26628924   2.273   3.223   5.379 -0.3030  0.0782  0.3480
   90MOL   H26728925   2.455   3.054   5.519 -0.6032 -1.6172  0.7116
   90MOL   H26828926   2.645   3.294   5.181  1.8005 -0.4542 -0.6156
   90MOL   H26928927   2.714   3.352   5.335  4.0271 -0.1186 -1.5032
   90MOL   H27028928   2.792   3.223   5.248  0.1200 -1.0669 -0.1353
   90MOL   H27128929   2.700   3.137   5.545  0.4423  3.0961 -2.0902
   90MOL   H27228930   2.810   3.086   5.417  0.3791  1.2988  1.2369
   90MOL   H27328931   2.671   2.989   5.468 -0.2647 -0.7598 -0.1335
   90MOL   C27428932   2.379   2.911   5.377  0.3210 -0.0058  0.3485
   90MOL   C27528933   2.327   2.799   5.482 -0.2338 -0.1076  0.1736
   90MOL   C27628934   2.415   2.796   5.609 -0.6520  1.1893  1.3709
   90MOL   O27728935   2.535   2.770   5.594 -0.2239 -0.4217  0.0008
   90MOL   N27828936   2.372   2.807   5.734 -0.1194 -0.0020  0.4003
   90MOL   C27928937   2.466   2.779   5.849 -0.5473  0.0340  0.0725
   90MOL   C28028938   2.232   2.853   5.784 -0.3156  0.3162  0.0834
   90MOL   H28128939   2.311   2.920   5.292 -0.3079  0.9382  0.9505
   90MOL   H28228940   2.472   2.869   5.338 -0.0791 -0.2454 -0.3682
   90MOL   H28328941   2.228   2.829   5.516  0.0528  1.3096 -0.2054
   90MOL   H28428942   2.540   2.857   5.866  0.5665 -1.1313  0.5956
   90MOL   H28528943   2.402   2.775   5.937  0.7175  0.9625  1.0528
   90MOL   H28628944   2.515   2.684   5.831 -0.0192  0.2638  0.2905
   90MOL   H28728945   2.171   2.766   5.806 -0.4304  0.3077 -0.2610
   90MOL   H28828946   2.178   2.917   5.714 -1.3943 -1.2484 -0.5214
   90MOL   H28928947   2.236   2.910   5.877 -0.1438  1.7947 -0.8051
   90MOL   C29028948   2.309   2.666   5.415 -0.1875 -0.3465 -0.5279
   90MOL   C29128949   2.275   2.539   5.501  0.4518 -0.4915 -1.1003
   90MOL   C29228950   2.271   2.427   5.394  0.1881  0.0831 -0.4049
   90MOL   O29328951   2.186   2.434   5.304  0.7420 -0.0657 -0.5085
   90MOL   N29428952   2.364   2.327   5.395 -0.7604  0.6858  0.0971
   90MOL   C29528953   2.365   2.218   5.298  0.6266  0.4301  0.1369
   90MOL   C29628954   2.500   2.321   5.473  1.2395  0.1235 -0.2517
   90MOL   H29728955   2.246   2.682   5.328  0.2523  1.4585 -0.5374
   90MOL   H29828956   2.402   2.641   5.364 -0.9945 -0.3058 -2.0305
   90MOL   H29928957   2.352   2.516   5.574 -0.1524 -0.7781 -0.5460
   90MOL   H30028958   2.413   2.252   5.207 -0.8241 -1.4838 -1.3753
   90MOL   H30128959   2.420   2.139   5.348  1.1051  1.9429  2.0702
   90MOL   H30228960   2.260   2.190   5.282  1.1582 -1.2748 -0.4820
   90MOL   H30328961   2.540   2.422   5.474  1.4880  0.0201  2.5631
   90MOL   H30428962   2.583   2.260   5.438  0.4453 -1.0776 -0.0980
   90MOL   H30528963   2.478   2.307   5.579 -1.7601  1.9938 -0.5467
   90MOL   C30628964   2.141   2.553   5.578 -0.2342  0.7373  0.2481
   90MOL   C30728965   2.094   2.427   5.666 -0.1698  0.0512 -0.1065
   90MOL   C30828966   2.202   2.399   5.774  0.4053  0.5479 -0.3451
   90MOL   O30928967   2.242   2.495   5.845 -1.2480  0.6550 -0.0455
   90MOL   N31028968   2.239   2.270   5.798  0.6189  0.3759 -0.6863
   90MOL   C31128969   2.314   2.237   5.921  0.1803  0.0444  0.1518
   90MOL   C31228970   2.214   2.161   5.708 -0.1439 -0.3578  0.0304
   90MOL   H31328971   2.149   2.642   5.640 -1.9760  1.8529 -1.0395
   90MOL   H31428972   2.060   2.574   5.508 -0.5291 -1.8073 -0.2196
   90MOL   H31528973   2.009   2.468   5.719 -0.2934  0.4011 -0.5733
   90MOL   H31628974   2.366   2.142   5.921  0.4234  0.1767  0.3775
   90MOL   H31728975   2.399   2.305   5.911  0.5755 -0.0991  2.1598
   90MOL   H31828976   2.262   2.261   6.014  0.9550  2.0341  0.0866
   90MOL   H31928977   2.108   2.138   5.700 -0.3302 -0.5990  2.7806
   90MOL   H32028978   2.283   2.078   5.721  1.3206  0.8512  0.1257
   90MOL   H32128979   2.245   2.188   5.607 -0.7529 -2.4577 -0.7398
   90MOL   H32228980   2.063   2.346   5.600  0.0391 -0.7339  0.7464
   91MOL     C128981   0.546   4.764   6.665 -0.1667 -0.1797 -0.4383
   91MOL     C228982   0.485   4.622   6.644  0.5007 -0.1027  0.0330
   91MOL     C328983   0.594   4.533   6.585  0.5530 -0.2842  0.7111
   91MOL     O428984   0.638   4.559   6.471 -0.4733  0.4352  0.4165
   91MOL     N528985   0.640   4.423   6.649  0.0747  0.4610  0.0083
   91MOL     C628986   0.737   4.340   6.576  0.3224  0.5261  0.0699
   91MOL     C728987   0.597   4.370   6.780 -0.0771 -0.6625  0.3794
   91MOL     H828988   0.614   4.757   6.750 -1.0851 -0.9418  0.2440
   91MOL     H928989   0.466   4.833   6.693 -1.2305 -1.1531 -1.0490
   91MOL    H1028990   0.437   4.582   6.734  1.8674 -1.3126  0.2397
   91MOL    H1128991   0.808   4.400   6.519 -0.4912  0.9404 -0.5030
   91MOL    H1228992   0.793   4.278   6.647 -1.1323 -1.3977 -0.4188
   91MOL    H1328993   0.675   4.280   6.509 -0.8285  1.8091 -0.0127
   91MOL    H1428994   0.490   4.349   6.781  0.2341 -2.4325 -0.0889
   91MOL    H1528995   0.608   4.447   6.855  0.2694  1.6110 -1.9535
   91MOL    H1628996   0.650   4.280   6.811  0.0139 -0.7379  0.0172
   91MOL    H1728997   0.601   4.809   6.582 -1.1155  1.4496 -0.2059
   91MOL    C1828998   0.374   4.638   6.536  0.3084  0.3067  0.2276
   91MOL    C1928999   0.238   4.559   6.540  0.2047  0.0545  0.4309
   91MOL    C2029000   0.173   4.573   6.676  0.2833  0.0108  0.0731
   91MOL    O2129001   0.211   4.492   6.759 -0.1418 -0.1176 -0.3314
   91MOL    N2229002   0.090   4.676   6.711  0.0784  0.2165  0.4680
   91MOL    C2329003   0.041   4.695   6.853 -0.3275 -0.3974  0.1430
   91MOL    C2429004   0.064   4.796   6.625 -0.6112 -0.4323  0.2028
   91MOL    H2529005   0.355   4.743   6.514  1.0157  0.1268 -1.3110
   91MOL    H2629006   0.398   4.627   6.430  1.5547  1.2678  0.4045
   91MOL    H2729007   0.169   4.589   6.461 -1.5440 -1.3379  1.4037
   91MOL    H2829008   0.061   4.612   6.922  0.7625 -0.6624 -0.4873
   91MOL    H2929009   0.104   4.771   6.899  0.1713  0.4186 -1.8511
   91MOL    H3029010   7.789   4.722   6.853 -0.6970 -1.6432  2.5802
   91MOL    H3129011   0.129   4.881   6.649  1.1446 -1.4022 -0.9713
   91MOL    H3229012   7.817   4.827   6.651  0.5465  1.4227  2.7074
   91MOL    H3329013   0.077   4.778   6.518 -0.2373 -0.4161  0.2430
   91MOL    C3429014   0.265   4.413   6.499  0.3399 -0.1106 -0.1681
   91MOL    C3529015   0.291   4.393   6.349  0.3674 -0.0077  0.1516
   91MOL    C3629016   0.164   4.371   6.263 -0.5929  0.0466 -0.3041
   91MOL    O3729017   0.079   4.283   6.299 -0.1120  0.3875 -0.1429
   91MOL    N3829018   0.138   4.436   6.145 -0.1901  0.0161  0.1195
   91MOL    C3929019   0.211   4.553   6.106  0.7000 -0.0085 -0.1146
   91MOL    C4029020   0.032   4.387   6.064 -0.1555  0.3511 -0.2035
   91MOL    H4129021   0.341   4.358   6.555 -0.5604 -0.2989  0.8915
   91MOL    H4229022   0.176   4.354   6.523 -1.2004  1.6539 -1.3618
   91MOL    H4329023   0.354   4.469   6.303 -0.9392  0.6024 -0.6592
   91MOL    H4429024   0.308   4.538   6.059 -0.0752 -0.1916 -1.6860
   91MOL    H4529025   0.150   4.609   6.035  0.3803 -0.6296 -0.3395
   91MOL    H4629026   0.226   4.616   6.194  0.4059 -2.4016  1.6996
   91MOL    H4729027   0.058   4.295   6.012 -3.1752 -2.0245  2.2839
   91MOL    H4829028   0.011   4.467   5.993  2.7324  0.7471 -0.6388
   91MOL    H4929029   7.791   4.388   6.120 -0.1335  2.9552 -0.1193
   91MOL    C5029030   0.381   4.267   6.329  0.4114 -0.9483  0.0523
   91MOL    C5129031   0.412   4.206   6.186  0.4085 -0.2411  0.4411
   91MOL    C5229032   0.484   4.065   6.216  1.5069  0.2485  0.0305
   91MOL    O5329033   0.605   4.063   6.224 -0.4698  0.2520 -0.2730
   91MOL    N5429034   0.419   3.951   6.214  0.1666  1.6021 -0.4088
   91MOL    C5529035   0.270   3.938   6.191 -0.1075  0.6987 -0.5245
   91MOL    C5629036   0.490   3.826   6.200 -0.2759  0.0060 -0.6889
   91MOL    H5729037   0.478   4.291   6.373 -0.3935  0.2880  1.1966
   91MOL    H5829038   0.318   4.198   6.384  2.4574 -1.1393  2.2229
   91MOL    H5929039   0.314   4.185   6.144 -1.1791 -0.8315  4.2580
   91MOL    H6029040   0.233   3.836   6.203 -0.5579  0.8574 -0.5818
   91MOL    H6129041   0.212   4.001   6.258  0.3088 -0.1712  0.6821
   91MOL    H6229042   0.247   3.978   6.092 -1.2125 -1.5166 -1.1941
   91MOL    H6329043   0.599   3.826   6.195 -0.2824 -0.2897 -0.8478
   91MOL    H6429044   0.462   3.768   6.112 -0.2748  1.1004 -1.4198
   91MOL    H6529045   0.464   3.763   6.284 -1.6040  2.9173  1.1640
   91MOL    C6629046   0.503   4.297   6.088  0.0192 -0.3941  0.1528
   91MOL    C6729047   0.511   4.265   5.937  1.0076  0.1884  0.4674
   91MOL    C6829048   0.362   4.282   5.882 -0.4910  0.3968 -0.1445
   91MOL    O6929049   0.280   4.190   5.902  0.4183 -0.4654  0.4600
   91MOL    N7029050   0.330   4.399   5.807 -0.4229  0.9656 -0.1918
   91MOL    C7129051   0.420   4.498   5.771  0.1036  0.3391  0.4751
   91MOL    C7229052   0.215   4.388   5.723 -0.6202  0.5352 -0.0633
   91MOL    H7329053   0.463   4.396   6.107  0.2922 -0.4944  1.3414
   91MOL    H7429054   0.601   4.309   6.134 -0.4699  0.3728  1.0094
   91MOL    H7529055   0.578   4.339   5.894  0.6337 -0.3321 -1.0578
   91MOL    H7629056   0.373   4.588   5.732  2.4631  0.9997 -0.9496
   91MOL    H7729057   0.480   4.523   5.858  1.6897  0.1621 -0.5473
   91MOL    H7829058   0.486   4.457   5.694 -0.8208 -2.2863  1.0451
   91MOL    H7929059   0.190   4.475   5.662 -3.2334  2.4363  3.4649
   91MOL    H8029060   0.125   4.367   5.782  0.9808 -0.7571  1.9840
   91MOL    H8129061   0.231   4.295   5.669  0.9526  1.4175 -1.1347
   91MOL    C8229062   0.571   4.121   5.900  0.0806  0.3137  0.1827
   91MOL    C8329063   0.566   4.073   5.752 -0.4600  0.3038 -0.3134
   91MOL    C8429064   0.614   3.926   5.748 -0.6687 -0.4101  1.3996
   91MOL    O8529065   0.731   3.904   5.723  0.3809 -0.1389 -0.4375
   91MOL    N8629066   0.524   3.824   5.778 -0.2930  0.6326 -0.1865
   91MOL    C8729067   0.393   3.847   5.829 -0.1820 -0.1073  0.2405
   91MOL    C8829068   0.562   3.685   5.780 -0.1975  0.6119  0.3939
   91MOL    H8929069   0.673   4.112   5.937  0.3890 -1.7343 -1.0647
   91MOL    H9029070   0.520   4.049   5.965 -0.3050  0.7408  0.3567
   91MOL    H9129071   0.463   4.074   5.718 -0.5852  0.7813  0.0707
   91MOL    H9229072   0.341   3.892   5.745 -0.9956 -0.8014  0.3667
   91MOL    H9329073   0.351   3.748   5.848  0.5658 -1.2600 -3.5525
   91MOL    H9429074   0.398   3.902   5.923 -0.9213  0.8292 -0.2601
   91MOL    H9529075   0.638   3.657   5.707 -0.2401  0.7855  0.2818
   91MOL    H9629076   0.485   3.609   5.765  1.0490 -1.0349  2.1405
   91MOL    H9729077   0.612   3.665   5.875 -0.7411 -0.7303  0.4018
   91MOL    C9829078   0.646   4.165   5.656  0.9569  0.2582 -0.0444
   91MOL    C9929079   0.625   4.129   5.510  0.5198 -0.1808  0.7645
   91MOL   C10029080   0.732   4.205   5.428 -0.2605  0.7378  0.1572
   91MOL   O10129081   0.718   4.328   5.415 -0.4079 -0.1037 -0.1796
   91MOL   N10229082   0.850   4.149   5.394 -0.8076 -0.5263  0.1619
   91MOL   C10329083   0.878   4.004   5.424  0.0991 -0.0608 -0.7546
   91MOL   C10429084   0.960   4.219   5.322 -0.3562 -0.0165 -0.1041
   91MOL   H10529085   0.617   4.267   5.681 -1.1450 -0.4237  0.3996
   91MOL   H10629086   0.753   4.145   5.664  0.9255  0.1067 -0.0060
   91MOL   H10729087   0.646   4.024   5.490  2.4569  0.3760 -0.3054
   91MOL   H10829088   0.974   3.966   5.391  0.8110  0.2433  0.9537
   91MOL   H10929089   0.862   3.978   5.528 -2.9785  0.8296 -0.9464
   91MOL   H11029090   0.803   3.953   5.362 -3.9580  1.8969  2.2967
   91MOL   H11129091   1.004   4.151   5.250  0.8818 -0.1472  0.7541
   91MOL   H11229092   1.044   4.243   5.388  0.0845 -1.1146 -0.2455
   91MOL   H11329093   0.936   4.309   5.266  2.3463  2.3328  2.3686
   91MOL   C11429094   0.481   4.158   5.456 -0.3620  0.1632 -0.2583
   91MOL   C11529095   0.467   4.155   5.301  0.4197  0.2088 -0.6648
   91MOL   C11629096   0.334   4.223   5.270 -0.7752 -0.1054  0.6258
   91MOL   O11729097   0.226   4.160   5.282 -0.7334  0.4754 -0.3636
   91MOL   N11829098   0.328   4.349   5.226  1.0551  0.1526  0.0359
   91MOL   C11929099   0.441   4.444   5.217  0.7958 -0.6072  0.6558
   91MOL   C12029100   0.205   4.413   5.181  0.1125  0.0416 -0.6827
   91MOL   H12129101   0.405   4.093   5.499  1.1134 -3.2948 -2.6869
   91MOL   H12229102   0.468   4.262   5.486  2.7349  0.1043  1.5703
   91MOL   H12329103   0.535   4.221   5.248  1.4791 -0.6871 -0.4592
   91MOL   H12429104   0.544   4.411   5.234  1.3328  0.9731  0.5743
   91MOL   H12529105   0.440   4.498   5.123 -0.3216  1.4370  1.8149
   91MOL   H12629106   0.432   4.523   5.292  2.1854 -0.7747  1.0176
   91MOL   H12729107   0.192   4.371   5.082  0.9393  0.9105 -1.1677
   91MOL   H12829108   0.200   4.522   5.182 -2.2046 -0.0536 -0.8073
   91MOL   H12929109   0.118   4.386   5.241  0.8396  0.9828  0.8426
   91MOL   C13029110   0.478   4.017   5.229 -0.1399  0.1777  0.9189
   91MOL   C13129111   0.522   4.021   5.083  0.5196  0.1934 -0.1610
   91MOL   C13229112   0.470   3.898   4.998  0.1733  0.0534 -0.4975
   91MOL   O13329113   0.545   3.805   4.988 -0.1767  0.2130 -1.1049
   91MOL   N13429114   0.351   3.908   4.939  0.4489 -0.1610  0.4229
   91MOL   C13529115   0.247   4.002   4.964 -0.8056  0.0509  0.0109
   91MOL   C13629116   0.304   3.801   4.845  0.1051  0.1459  0.5315
   91MOL   H13729117   0.546   3.953   5.284 -1.6871 -1.6270  0.7862
   91MOL   H13829118   0.386   3.961   5.246 -0.3637  0.1923 -0.1724
   91MOL   H13929119   0.472   4.113   5.051 -1.2320 -0.4161  0.7472
   91MOL   H14029120   0.154   3.968   4.920 -1.2186  0.7737  0.3225
   91MOL   H14129121   0.224   4.020   5.069 -1.9488  0.8548 -0.3731
   91MOL   H14229122   0.276   4.101   4.929  0.4409 -0.4641 -0.4602
   91MOL   H14329123   0.264   3.853   4.758 -0.3246 -1.2515 -0.1132
   91MOL   H14429124   0.225   3.743   4.892  0.1061  1.8944  2.7882
   91MOL   H14529125   0.380   3.729   4.815 -1.3671 -0.0126 -3.0189
   91MOL   C14629126   0.677   4.051   5.080  0.4001  0.0558  0.6454
   91MOL   C14729127   0.724   4.100   4.946  0.4943 -0.9791  0.1327
   91MOL   C14829128   0.866   4.064   4.913 -0.3568 -0.4033  0.0723
   91MOL   O14929129   0.956   4.127   4.977  0.0506 -0.2427 -0.1946
   91MOL   N15029130   0.892   3.958   4.836 -0.2430  0.5485  0.4835
   91MOL   C15129131   0.799   3.867   4.763  0.0299 -0.2788  0.1097
   91MOL   C15229132   1.030   3.925   4.812 -0.0305 -0.4530  0.2942
   91MOL   H15329133   0.709   4.127   5.152  2.1447  0.1019 -0.1302
   91MOL   H15429134   0.725   3.955   5.100 -0.3317 -0.7175 -1.2312
   91MOL   H15529135   0.657   4.049   4.877  1.2510 -4.7398  2.0216
   91MOL   H15629136   0.755   3.932   4.687  1.3841  0.6169  0.0770
   91MOL   H15729137   0.851   3.784   4.716  2.4489 -0.5719  3.1520
   91MOL   H15829138   0.722   3.830   4.831  1.8438 -0.8618  1.8876
   91MOL   H15929139   1.038   3.829   4.760  1.4683 -0.0839 -0.1727
   91MOL   H16029140   1.087   3.916   4.905  1.8414 -1.7559 -0.9437
   91MOL   H16129141   1.089   3.995   4.753  0.6121 -2.6759 -1.7884
   91MOL   C16229142   0.705   4.257   4.934 -0.3409  0.1363 -0.2388
   91MOL   C16329143   0.685   4.317   4.794  0.1517  0.3765  0.1955
   91MOL   C16429144   0.556   4.265   4.719  0.6647 -0.2914  0.1087
   91MOL   O16529145   0.548   4.153   4.661 -0.3338 -0.7220 -0.4405
   91MOL   N16629146   0.453   4.352   4.722  1.1766 -0.0652 -0.4265
   91MOL   C16729147   0.447   4.486   4.793 -0.0558  0.1096  0.5024
   91MOL   C16829148   0.329   4.309   4.656 -0.1584  0.3705 -0.2035
   91MOL   H16929149   0.612   4.277   4.988 -1.5747 -2.8268 -1.1804
   91MOL   H17029150   0.771   4.321   4.992 -0.6942  1.0090 -0.7824
   91MOL   H17129151   0.680   4.424   4.815  2.2775  0.2318  1.6801
   91MOL   H17229152   0.461   4.490   4.901  1.9567 -0.0048  0.2698
   91MOL   H17329153   0.517   4.548   4.736  2.3907 -1.1168  2.0721
   91MOL   H17429154   0.349   4.526   4.769 -0.4284 -0.6203  0.8011
   91MOL   H17529155   0.238   4.355   4.695 -0.9644 -1.6317  0.3486
   91MOL   H17629156   0.318   4.202   4.675 -1.4142  0.6238  0.5229
   91MOL   H17729157   0.339   4.334   4.551  1.5381 -0.0560 -0.1610
   91MOL   C17829158   0.808   4.300   4.703 -0.3985 -0.9121 -0.3973
   91MOL   C17929159   0.805   4.367   4.559 -0.1288 -0.5695 -0.7568
   91MOL   C18029160   0.877   4.275   4.462 -0.4940  0.1456  0.7367
   91MOL   O18129161   0.976   4.213   4.500 -0.5797 -0.1000 -0.0080
   91MOL   N18229162   0.827   4.255   4.337  0.4334 -0.3428  0.8541
   91MOL   C18329163   0.757   4.364   4.265 -0.3455  0.2686  0.3877
   91MOL   C18429164   0.894   4.163   4.241 -0.6758  1.3451  0.4415
   91MOL   H18529165   0.897   4.341   4.749 -1.1666  1.2937 -0.8373
   91MOL   H18629166   0.816   4.192   4.691 -0.1717 -0.8645 -0.6799
   91MOL   H18729167   0.703   4.383   4.522  0.1355  2.6545 -0.2356
   91MOL   H18829168   0.656   4.385   4.301 -0.4770 -2.6047  1.8214
   91MOL   H18929169   0.817   4.454   4.274  0.4277  0.1037 -2.5705
   91MOL   H19029170   0.752   4.360   4.156  0.2739 -3.6137  0.4458
   91MOL   H19129171   0.829   4.129   4.160  0.3477 -1.3147  0.6791
   91MOL   H19229172   0.917   4.068   4.289  0.8845  0.9126 -1.1008
   91MOL   H19329173   0.983   4.213   4.204  0.5779 -1.5985 -0.7129
   91MOL   C19429174   0.879   4.506   4.551 -0.5967 -0.1485  0.3057
   91MOL   C19529175   0.796   4.639   4.580  0.1503  0.2348 -0.4597
   91MOL   C19629176   0.703   4.679   4.476  0.0790  0.3438 -0.5908
   91MOL   O19729177   0.585   4.643   4.490  0.3839 -0.1820  0.0420
   91MOL   N19829178   0.745   4.756   4.375  0.1661  0.4031  0.5239
   91MOL   C19929179   0.880   4.787   4.327  0.2762 -0.0673  0.3851
   91MOL   C20029180   0.653   4.813   4.277 -0.4011  0.0560  0.2573
   91MOL   H20129181   0.955   4.496   4.628  0.9477  0.0410 -1.1679
   91MOL   H20229182   0.927   4.531   4.457 -1.2285  1.5875  0.4081
   91MOL   H20329183   0.727   4.592   4.651  0.9342 -1.7538 -0.9992
   91MOL   H20429184   0.966   4.756   4.386 -1.0757 -0.1363  2.3682
   91MOL   H20529185   0.905   4.761   4.224  2.4689  0.8193  0.6839
   91MOL   H20629186   0.881   4.895   4.340 -1.2183 -0.0743  0.6621
   91MOL   H20729187   0.610   4.906   4.316 -1.4256  0.5380 -1.9306
   91MOL   H20829188   0.583   4.736   4.246 -0.9250  0.4800  0.3762
   91MOL   H20929189   0.701   4.853   4.188  2.0586  1.3168  2.0793
   91MOL   C21029190   0.879   4.743   4.652 -0.2202  0.8498 -0.4121
   91MOL   C21129191   0.806   4.812   4.775  0.2176  0.0983  1.0602
   91MOL   C21229192   0.798   4.728   4.901  0.7842  0.8899 -0.9291
   91MOL   O21329193   0.689   4.677   4.932  0.3322 -0.7162  0.1566
   91MOL   N21429194   0.915   4.695   4.965 -0.2658  0.3253 -0.5027
   91MOL   C21529195   0.913   4.592   5.069 -0.3119 -0.2853 -0.3195
   91MOL   C21629196   1.047   4.750   4.938  0.1103  0.1053  0.2963
   91MOL   H21729197   0.973   4.703   4.688  0.3062  2.5165  0.1186
   91MOL   H21829198   0.923   4.817   4.585  1.7333  1.0111  1.0213
   91MOL   H21929199   0.863   4.904   4.789 -0.8561  1.2608 -1.8649
   91MOL   H22029200   0.818   4.538   5.068 -0.1118 -0.7565  2.6782
   91MOL   H22129201   0.993   4.520   5.052 -0.1257 -0.0440 -0.4647
   91MOL   H22229202   0.922   4.641   5.166 -0.0208 -1.5010  0.2728
   91MOL   H22329203   1.074   4.776   5.041 -0.8290 -2.0242  1.1173
   91MOL   H22429204   1.053   4.847   4.889  0.2520  1.1252  2.2611
   91MOL   H22529205   1.107   4.680   4.881 -0.6532  0.0823 -0.4900
   91MOL   C22629206   0.670   4.875   4.741  0.0646  0.4079 -0.3776
   91MOL   C22729207   0.595   4.960   4.855  0.1616  0.3360  0.4106
   91MOL   C22829208   0.443   4.951   4.826 -0.1287 -0.3061  0.4075
   91MOL   O22929209   0.394   5.006   4.724  0.1899  0.0930  0.1258
   91MOL   N23029210   0.361   4.879   4.909  0.4254 -0.2291 -0.0104
   91MOL   C23129211   0.228   4.839   4.870  0.7048 -0.1306  0.0163
   91MOL   C23229212   0.397   4.834   5.044  0.1508  0.3004  0.2805
   91MOL   H23329213   0.685   4.930   4.649  1.7381  0.0037 -0.3664
   91MOL   H23429214   0.593   4.802   4.718 -0.5723  1.1189 -0.5031
   91MOL   H23529215   0.612   4.922   4.955 -1.5472  0.9603  0.9563
   91MOL   H23629216   0.220   4.736   4.835  2.2156 -0.3987  0.4036
   91MOL   H23729217   0.165   4.861   4.956  0.7389 -0.6258  0.1670
   91MOL   H23829218   0.180   4.903   4.796 -1.4808 -0.3911  1.1437
   91MOL   H23929219   0.432   4.914   5.110  0.3260  0.5157 -0.0729
   91MOL   H24029220   0.474   4.758   5.049 -0.5398 -0.4536 -0.3062
   91MOL   H24129221   0.312   4.791   5.098  1.8200 -2.5772  0.7097
   91MOL   C24229222   0.645   5.108   4.851  0.0742 -0.2622  0.0658
   91MOL   C24329223   0.600   5.198   4.965 -0.1933 -0.1978 -0.5276
   91MOL   C24429224   0.607   5.349   4.930 -0.4812  0.0841 -0.0633
   91MOL   O24529225   0.722   5.384   4.900  0.0547 -0.1233  0.1188
   91MOL   N24629226   0.495   5.432   4.923  0.2398  0.1726 -0.0418
   91MOL   C24729227   0.513   5.571   4.894 -0.0914 -0.3064  0.1517
   91MOL   C24829228   0.360   5.387   4.929  0.4255 -0.5449 -0.5566
   91MOL   H24929229   0.753   5.116   4.836  0.0537  1.0304  0.5581
   91MOL   H25029230   0.610   5.151   4.757  1.2040  1.8008  0.5549
   91MOL   H25129231   0.495   5.170   4.973  0.1692 -1.3646  0.2488
   91MOL   H25229232   0.421   5.624   4.919 -1.2071 -2.2225  0.2201
   91MOL   H25329233   0.590   5.619   4.954  0.8779 -0.5139 -0.9013
   91MOL   H25429234   0.542   5.583   4.790 -1.3288  0.6817 -0.0970
   91MOL   H25529235   0.335   5.366   5.033 -1.5237  0.2291 -0.8579
   91MOL   H25629236   0.330   5.302   4.867 -0.9635 -0.8939  0.5758
   91MOL   H25729237   0.284   5.461   4.907 -0.5943 -1.1291  0.9197
   91MOL   C25829238   0.659   5.158   5.096 -0.4327  0.5770 -0.5773
   91MOL   C25929239   0.798   5.213   5.154 -0.5336  0.3705  0.5987
   91MOL   C26029240   0.919   5.153   5.069 -0.5744 -0.2763  0.0216
   91MOL   O26129241   0.913   5.036   5.039 -0.4771 -0.0074 -0.1245
   91MOL   N26229242   1.036   5.216   5.042  0.1208  0.0723 -0.8780
   91MOL   C26329243   1.040   5.364   5.042 -0.2050 -0.7025 -0.0284
   91MOL   C26429244   1.156   5.142   4.989 -0.0339  0.2380  0.4524
   91MOL   H26529245   0.583   5.196   5.165  0.2347  2.0630 -0.6313
   91MOL   H26629246   0.650   5.051   5.113  4.0736  0.1636 -0.4449
   91MOL   H26729247   0.800   5.321   5.143 -4.3469  0.3486 -1.0651
   91MOL   H26829248   1.131   5.413   5.007 -1.3143  0.6180 -1.1155
   91MOL   H26929249   0.955   5.406   4.989 -1.5144 -1.8346  1.1357
   91MOL   H27029250   1.041   5.387   5.149 -1.0622 -2.0850  0.2816
   91MOL   H27129251   1.255   5.166   5.029  1.0253 -0.8502 -1.4618
   91MOL   H27229252   1.160   5.180   4.887  1.4043  1.1681  0.8372
   91MOL   H27329253   1.155   5.034   5.001  0.6289  0.0735 -0.8878
   91MOL   C27429254   0.810   5.198   5.301  0.0408  0.0189  0.1181
   91MOL   C27529255   0.829   5.058   5.370 -0.3211 -0.5266 -0.2937
   91MOL   C27629256   0.692   5.012   5.423  0.0659 -0.4586 -1.2079
   91MOL   O27729257   0.640   5.086   5.507 -0.8686 -0.4097 -0.0671
   91MOL   N27829258   0.635   4.897   5.394  0.0594  0.4731  0.2684
   91MOL   C27929259   0.506   4.862   5.435 -0.1400  0.7202  0.4414
   91MOL   C28029260   0.708   4.790   5.323  0.6065 -0.7866 -1.2081
   91MOL   H28129261   0.892   5.260   5.338 -0.8361  1.0768  0.2883
   91MOL   H28229262   0.740   5.267   5.346 -0.6556 -1.1916  0.9132
   91MOL   H28329263   0.858   4.981   5.298 -1.7266 -2.5400  1.2283
   91MOL   H28429264   0.497   4.830   5.539  1.0889 -0.5243  0.1691
   91MOL   H28529265   0.444   4.948   5.408  0.8185  0.9241 -1.1198
   91MOL   H28629266   0.462   4.782   5.376  1.9753 -0.9198  1.0527
   91MOL   H28729267   0.813   4.775   5.348  0.5921  2.7824  1.2713
   91MOL   H28829268   0.695   4.819   5.218 -1.2132  1.1444 -0.4684
   91MOL   H28929269   0.650   4.698   5.333  0.9950 -0.9471 -0.4705
   91MOL   C29029270   0.927   5.058   5.486 -0.9743  0.2136 -0.2366
   91MOL   C29129271   1.070   4.996   5.459 -0.2816  0.2697 -0.4105
   91MOL   C29229272   1.076   4.841   5.471  0.1053 -0.0437  0.2703
   91MOL   O29329273   1.011   4.788   5.563 -0.1113  0.1924 -0.2725
   91MOL   N29429274   1.148   4.767   5.382 -0.4290  0.4315 -0.1687
   91MOL   C29529275   1.228   4.819   5.273  0.3358 -0.1739 -0.3252
   91MOL   C29629276   1.137   4.617   5.386  0.1535 -0.9489  0.4521
   91MOL   H29729277   0.933   5.158   5.527 -0.0950 -0.1792  0.5866
   91MOL   H29829278   0.882   5.009   5.572  1.6662 -2.8552 -0.5334
   91MOL   H29929279   1.099   5.022   5.357  0.6794 -0.7170 -0.3919
   91MOL   H30029280   1.328   4.839   5.311  0.1305 -1.4950  0.9795
   91MOL   H30129281   1.259   4.756   5.190 -0.7912 -1.2883  0.0836
   91MOL   H30229282   1.174   4.899   5.222  2.5351  0.0397 -2.4235
   91MOL   H30329283   1.064   4.579   5.458  0.1015  0.4784  1.1732
   91MOL   H30429284   1.231   4.564   5.403  0.5655 -0.7718 -1.1641
   91MOL   H30529285   1.100   4.577   5.292  0.0828  1.5383 -0.6010
   91MOL   C30629286   1.178   5.051   5.570  0.0089 -0.3123 -0.9770
   91MOL   C30729287   1.274   5.165   5.538  0.0966  0.1230 -0.0215
   91MOL   C30829288   1.212   5.306   5.536 -0.4428 -0.6949  0.0483
   91MOL   O30929289   1.140   5.336   5.634  0.0399  0.7186 -0.8268
   91MOL   N31029290   1.232   5.388   5.433  0.0320  0.4178 -0.2306
   91MOL   C31129291   1.162   5.522   5.424  0.2677 -0.3142 -0.6663
   91MOL   C31229292   1.343   5.361   5.342  1.0353 -0.3987 -0.6456
   91MOL   H31329293   1.127   5.078   5.662 -1.6849 -0.9017 -1.7198
   91MOL   H31429294   1.238   4.971   5.614 -0.8619  0.1600  1.1200
   91MOL   H31529295   1.349   5.177   5.616 -0.5915 -1.7041  0.9601
   91MOL   H31629296   1.111   5.539   5.329 -2.3035  2.5605  1.1773
   91MOL   H31729297   1.081   5.523   5.496 -1.1628  0.9910 -2.2440
   91MOL   H31829298   1.220   5.608   5.457 -0.4546  0.5250 -1.5554
   91MOL   H31929299   1.380   5.442   5.278  0.7475 -0.9148 -1.4616
   91MOL   H32029300   1.313   5.292   5.264  0.8344 -1.2389  0.1700
   91MOL   H32129301   1.434   5.327   5.392  1.1108  1.9771  0.9365
   91MOL   H32229302   1.325   5.137   5.445 -1.5574 -1.0935 -0.5901
   92MOL     C129303   5.201   5.427   4.031  0.7685  0.1898 -0.3268
   92MOL     C229304   5.230   5.329   3.911  0.5014  1.0888  0.0867
   92MOL     C329305   5.351   5.375   3.834 -0.0109  0.2668  0.3292
   92MOL     O429306   5.339   5.483   3.773  0.0055 -0.3315  0.0590
   92MOL     N529307   5.464   5.295   3.828  0.7605 -0.7749 -0.3406
   92MOL     C629308   5.596   5.346   3.775 -0.0867 -0.1520  0.4405
   92MOL     C729309   5.470   5.155   3.868 -0.2366 -0.3706 -0.4810
   92MOL     H829310   5.149   5.517   3.998  0.3257  0.6873  1.7100
   92MOL     H929311   5.290   5.469   4.078 -0.5295 -0.7372  3.0653
   92MOL    H1029312   5.242   5.235   3.964  0.2724  1.0128  0.0031
   92MOL    H1129313   5.592   5.448   3.737 -1.1306 -0.4584 -0.3013
   92MOL    H1229314   5.677   5.339   3.847  0.5705  1.1245 -0.1727
   92MOL    H1329315   5.631   5.276   3.699  3.5267  2.4260 -0.3595
   92MOL    H1429316   5.564   5.107   3.840 -0.3730 -1.1349  0.3519
   92MOL    H1529317   5.397   5.107   3.803  0.8828  2.1088 -3.7595
   92MOL    H1629318   5.452   5.137   3.974  0.2387 -1.1523 -0.5339
   92MOL    H1729319   5.148   5.376   4.111 -1.7772  1.4311 -1.1526
   92MOL    C1829320   5.099   5.302   3.824  0.1785  0.4224  0.1352
   92MOL    C1929321   5.096   5.192   3.708  0.1967 -0.1089  0.5345
   92MOL    C2029322   4.978   5.217   3.606 -0.2562  0.2068  0.5432
   92MOL    O2129323   4.863   5.183   3.636 -0.0736  0.4924 -0.2435
   92MOL    N2229324   4.997   5.276   3.486  0.2049 -0.1558  0.4125
   92MOL    C2329325   5.118   5.343   3.457  0.1418 -0.4700  0.3051
   92MOL    C2429326   4.890   5.274   3.387 -0.4490 -0.2417  0.3956
   92MOL    H2529327   5.022   5.282   3.898 -0.8331  0.0925 -0.9793
   92MOL    H2629328   5.072   5.400   3.784  2.1415  1.3553  1.0485
   92MOL    H2729329   5.188   5.200   3.650 -0.3482 -1.1116 -0.4875
   92MOL    H2829330   5.184   5.280   3.396 -2.2050 -1.5270 -1.2009
   92MOL    H2929331   5.102   5.424   3.385 -0.7236 -1.2085 -0.3471
   92MOL    H3029332   5.165   5.390   3.543  1.1064 -1.7269  0.4726
   92MOL    H3129333   4.792   5.242   3.422  0.2501 -0.4690  2.1636
   92MOL    H3229334   4.927   5.210   3.306  1.0316  0.1982  0.7176
   92MOL    H3329335   4.882   5.381   3.368  1.1132 -0.3749 -1.1768
   92MOL    C3429336   5.094   5.041   3.773  0.4762  0.2611  0.2459
   92MOL    C3529337   5.109   4.921   3.677  0.0242  0.0103  0.1262
   92MOL    C3629338   5.059   4.792   3.743  0.4289 -0.6570  0.1079
   92MOL    O3729339   5.131   4.747   3.833  0.0459 -0.3432  0.6648
   92MOL    N3829340   4.943   4.733   3.695 -0.1565  0.1530 -0.4426
   92MOL    C3929341   4.847   4.815   3.617  0.3144  0.4052 -0.0145
   92MOL    C4029342   4.900   4.600   3.741  0.5070  0.5103 -0.2499
   92MOL    H4129343   5.183   5.039   3.836  0.5525  3.6200  0.3793
   92MOL    H4229344   5.006   5.026   3.835  0.3328 -0.7658 -0.2051
   92MOL    H4329345   5.052   4.941   3.586 -0.5380  0.1990  0.5159
   92MOL    H4429346   4.866   4.820   3.510  2.9294 -1.9727  0.2896
   92MOL    H4529347   4.747   4.772   3.629 -0.3630  2.0836  0.6013
   92MOL    H4629348   4.833   4.913   3.663 -0.2141  1.2541 -1.9287
   92MOL    H4729349   4.987   4.534   3.746  1.7945  2.2493  1.1609
   92MOL    H4829350   4.815   4.565   3.682  0.1491 -0.7560  1.0100
   92MOL    H4929351   4.857   4.608   3.841  0.2990 -1.1996 -0.1989
   92MOL    C5029352   5.258   4.909   3.618  0.0685  0.3832  0.0046
   92MOL    C5129353   5.253   4.918   3.455 -0.1930  0.4740 -0.6140
   92MOL    C5229354   5.206   4.782   3.392 -0.7191 -0.6181 -0.2578
   92MOL    O5329355   5.250   4.675   3.434  0.8761  0.0834  0.1051
   92MOL    N5429356   5.112   4.781   3.295 -0.0253 -0.3460 -0.9055
   92MOL    C5529357   5.048   4.906   3.248  0.2059  0.9844  0.3807
   92MOL    C5629358   5.061   4.662   3.235 -0.8432 -0.1174 -0.2658
   92MOL    H5729359   5.304   5.004   3.646  0.6935 -0.6265  2.5638
   92MOL    H5829360   5.317   4.829   3.663  2.4166  1.0896 -1.7359
   92MOL    H5929361   5.182   4.997   3.434 -0.1330  1.2663  1.9841
   92MOL    H6029362   4.985   4.894   3.160 -0.1496  0.1761  0.7455
   92MOL    H6129363   4.980   4.943   3.324  1.3910 -2.0709  3.0448
   92MOL    H6229364   5.126   4.980   3.226  1.7451 -0.3587  1.2350
   92MOL    H6329365   4.992   4.602   3.294 -1.1176 -0.0131 -0.4860
   92MOL    H6429366   5.143   4.592   3.217 -1.2505 -0.6534 -0.0478
   92MOL    H6529367   5.013   4.678   3.138  1.3554 -0.6254 -1.4782
   92MOL    C6629368   5.384   4.970   3.387 -0.0028  0.3648  0.2614
   92MOL    C6729369   5.517   4.897   3.419 -0.1923 -0.0505 -0.3993
   92MOL    C6829370   5.631   4.993   3.420 -0.0985  0.1964  0.3903
   92MOL    O6929371   5.639   5.069   3.324  0.4698 -0.3656  0.0281
   92MOL    N7029372   5.722   5.007   3.522 -0.1819 -0.4249 -0.0848
   92MOL    C7129373   5.830   5.095   3.505  0.0818 -0.5481  0.0722
   92MOL    C7229374   5.695   4.961   3.654 -0.2795 -0.3456  0.2726
   92MOL    H7329375   5.367   4.980   3.280 -0.0237 -0.4010  0.1898
   92MOL    H7429376   5.387   5.074   3.418  1.7493  0.7496 -1.1176
   92MOL    H7529377   5.507   4.841   3.512  0.1801  1.4537  0.5615
   92MOL    H7629378   5.797   5.188   3.458 -0.9278 -0.7803  0.2978
   92MOL    H7729379   5.883   5.133   3.592  2.1623 -2.3950 -0.3580
   92MOL    H7829380   5.899   5.047   3.436 -0.2392  0.2009 -0.7853
   92MOL    H7929381   5.751   5.016   3.729 -0.7107  0.2536  0.1528
   92MOL    H8029382   5.743   4.864   3.671  0.1881 -0.2394 -0.4386
   92MOL    H8129383   5.590   4.945   3.677  0.0216 -2.2403  0.4230
   92MOL    C8229384   5.553   4.798   3.312 -0.7078 -0.5247 -0.2098
   92MOL    C8329385   5.634   4.663   3.334 -0.2502  0.4227  0.1808
   92MOL    C8429386   5.586   4.577   3.453  1.2942 -0.2847 -0.6056
   92MOL    O8529387   5.614   4.617   3.570  0.3977  0.1904  0.2734
   92MOL    N8629388   5.510   4.469   3.432  0.1146 -0.4742 -0.4328
   92MOL    C8729389   5.483   4.386   3.544  0.1367  0.1722 -0.3975
   92MOL    C8829390   5.453   4.418   3.304  0.5390 -0.1190  0.5182
   92MOL    H8929391   5.457   4.767   3.272  0.4362  0.1015 -3.6441
   92MOL    H9029392   5.592   4.860   3.230 -0.9853  1.5628  1.2016
   92MOL    H9129393   5.627   4.602   3.243  0.3312 -1.7384  1.5443
   92MOL    H9229394   5.441   4.290   3.512 -0.4850  0.0263  0.8090
   92MOL    H9329395   5.577   4.384   3.599  0.1200  0.3784 -0.3622
   92MOL    H9429396   5.409   4.435   3.607  0.5759  0.9146 -0.4504
   92MOL    H9529397   5.416   4.316   3.316  0.4390 -0.1415  0.0305
   92MOL    H9629398   5.527   4.421   3.224 -0.8070 -0.3354 -0.7563
   92MOL    H9729399   5.360   4.470   3.281  0.6937 -0.7206 -1.5123
   92MOL    C9829400   5.789   4.692   3.328  0.2748 -0.7101  0.1291
   92MOL    C9929401   5.883   4.593   3.263  0.5228  0.4232 -1.0106
   92MOL   C10029402   5.882   4.609   3.113 -0.0968  1.3350  0.0599
   92MOL   O10129403   5.788   4.562   3.050 -0.1056 -0.8213  0.3518
   92MOL   N10229404   5.983   4.670   3.044  0.3395 -0.7398 -0.9683
   92MOL   C10329405   6.084   4.751   3.111 -0.4327 -0.1721  0.2095
   92MOL   C10429406   6.008   4.637   2.904  0.5475 -0.2539  0.2877
   92MOL   H10529407   5.804   4.791   3.283  0.5721 -0.2188  1.2853
   92MOL   H10629408   5.818   4.721   3.429 -1.1996 -0.8822  0.6188
   92MOL   H10729409   5.982   4.618   3.301  0.5172  2.2540 -2.1365
   92MOL   H10829410   6.128   4.823   3.042  0.0575 -0.2604  0.4284
   92MOL   H10929411   6.038   4.802   3.196  0.2182  1.2850 -0.2983
   92MOL   H11029412   6.161   4.691   3.158 -0.4179 -1.2859 -1.1956
   92MOL   H11129413   6.005   4.529   2.899  0.5999 -0.2498  0.1700
   92MOL   H11229414   6.099   4.682   2.864  0.2445  0.9234  0.8898
   92MOL   H11329415   5.934   4.666   2.828 -0.3873 -1.6828  0.6370
   92MOL   C11429416   5.846   4.447   3.303 -0.3077 -0.4144  0.7341
   92MOL   C11529417   5.958   4.338   3.269 -0.6529  0.2570 -0.6041
   92MOL   C11629418   5.905   4.201   3.225  0.5346  0.4246 -0.2195
   92MOL   O11729419   5.844   4.132   3.306  0.0071  0.3815 -0.4182
   92MOL   N11829420   5.929   4.144   3.106 -0.2445 -0.4611 -0.5067
   92MOL   C11929421   5.972   4.230   2.992  0.1522 -0.5216  0.1765
   92MOL   C12029422   5.920   3.999   3.090 -0.3847 -0.2105 -0.2279
   92MOL   H12129423   5.811   4.439   3.406 -1.8634 -1.5202  0.1374
   92MOL   H12229424   5.760   4.412   3.246 -0.1918  0.3564  0.0776
   92MOL   H12329425   6.033   4.382   3.203 -0.1214  0.7758  0.3267
   92MOL   H12429426   5.920   4.202   2.901  0.5209  0.2577 -0.2827
   92MOL   H12529427   5.943   4.334   3.008 -0.5621 -1.1065  2.9115
   92MOL   H12629428   6.078   4.227   2.966 -0.3503 -2.4318 -1.7825
   92MOL   H12729429   5.822   3.958   3.067 -0.5985 -0.9904  2.0336
   92MOL   H12829430   5.965   3.939   3.168  0.1749  0.9525  0.3551
   92MOL   H12929431   5.981   3.970   3.004  3.4772 -0.8061  2.5814
   92MOL   C13029432   6.042   4.322   3.398 -0.8472  0.1525 -0.3496
   92MOL   C13129433   6.156   4.216   3.404 -0.0604 -0.3701  0.1057
   92MOL   C13229434   6.229   4.244   3.537 -0.1715 -0.1824  0.2766
   92MOL   O13329435   6.322   4.323   3.539 -0.1983  0.2137 -0.1080
   92MOL   N13429436   6.194   4.171   3.652 -0.5218  0.0520 -0.0172
   92MOL   C13529437   6.285   4.171   3.771  0.0972  0.4575  0.5079
   92MOL   C13629438   6.060   4.102   3.670  0.0523  0.3022  0.2384
   92MOL   H13729439   6.087   4.417   3.424  0.0177 -0.7226  1.4187
   92MOL   H13829440   5.964   4.298   3.470 -1.6872 -0.9151 -1.5997
   92MOL   H13929441   6.116   4.116   3.419  2.0619 -1.4303 -1.2163
   92MOL   H14029442   6.228   4.174   3.864  1.3004  3.3856  1.2080
   92MOL   H14129443   6.337   4.076   3.764 -0.2391  0.3325 -0.4849
   92MOL   H14229444   6.357   4.252   3.766 -0.9294  1.4320  1.2019
   92MOL   H14329445   6.007   4.089   3.576  1.0203 -0.9830 -0.1528
   92MOL   H14429446   5.999   4.154   3.744 -1.0284 -1.3322  0.5108
   92MOL   H14529447   6.069   4.001   3.711  0.4158  0.0839 -0.3760
   92MOL   C14629448   6.259   4.223   3.283  0.7246 -0.3095 -0.2333
   92MOL   C14729449   6.348   4.100   3.266  0.4398 -0.1793  0.4032
   92MOL   C14829450   6.473   4.135   3.184  0.1841  0.3316  0.1306
   92MOL   O14929451   6.464   4.129   3.059 -0.0396 -0.0492 -0.3562
   92MOL   N15029452   6.587   4.181   3.243 -0.0591 -0.4207  0.1685
   92MOL   C15129453   6.613   4.208   3.394 -0.5734  0.2860 -0.0350
   92MOL   C15229454   6.679   4.259   3.164 -0.2734  0.1482  0.2998
   92MOL   H15329455   6.203   4.246   3.192  0.1364  2.2634  0.7189
   92MOL   H15429456   6.323   4.311   3.294 -0.7175  0.7263  0.0567
   92MOL   H15529457   6.385   4.068   3.364 -1.0898  0.4008  1.1922
   92MOL   H15629458   6.546   4.287   3.427  0.3490 -0.0792  2.8178
   92MOL   H15729459   6.586   4.118   3.449 -0.2722  0.3608  0.2338
   92MOL   H15829460   6.717   4.237   3.412 -0.0133 -0.9930 -1.0559
   92MOL   H15929461   6.630   4.306   3.079  0.5578  1.3229  0.4451
   92MOL   H16029462   6.767   4.204   3.131  0.2688 -0.4667  2.6217
   92MOL   H16129463   6.725   4.346   3.211 -0.1522  0.0539  0.3555
   92MOL   C16229464   6.261   3.981   3.205  0.7429 -0.1816 -0.1810
   92MOL   C16329465   6.333   3.846   3.158 -0.0944 -0.2712  0.1397
   92MOL   C16429466   6.239   3.756   3.079 -0.1428  0.1721 -0.7998
   92MOL   O16529467   6.179   3.672   3.143 -0.8530  0.2206 -0.5930
   92MOL   N16629468   6.230   3.757   2.945  0.3659 -0.5507  0.3485
   92MOL   C16729469   6.139   3.677   2.865  0.3258 -0.3352 -0.0503
   92MOL   C16829470   6.308   3.853   2.873  0.1490  0.8611  0.6771
   92MOL   H16929471   6.179   3.964   3.275  1.6942  0.4805  1.1044
   92MOL   H17029472   6.202   4.022   3.122  1.3717  1.1310  0.0011
   92MOL   H17129473   6.415   3.871   3.091  0.2080 -2.9739 -0.5462
   92MOL   H17229474   6.087   3.590   2.906 -0.9223  0.0348 -0.8233
   92MOL   H17329475   6.069   3.751   2.825  0.0000 -1.5838 -1.8800
   92MOL   H17429476   6.199   3.644   2.780  1.5720 -1.9792  1.4371
   92MOL   H17529477   6.412   3.820   2.878 -0.2101 -0.1749  1.4740
   92MOL   H17629478   6.298   3.959   2.899  0.8685  1.0740  0.0902
   92MOL   H17729479   6.276   3.861   2.769  2.1955  3.1644  0.1607
   92MOL   C17829480   6.418   3.794   3.278  0.2251  0.3707 -0.3033
   92MOL   C17929481   6.512   3.668   3.257  0.6617  0.1801  0.1112
   92MOL   C18029482   6.486   3.553   3.360 -0.4349 -0.3289 -0.0734
   92MOL   O18129483   6.451   3.582   3.469 -0.5989 -0.8762  0.4834
   92MOL   N18229484   6.502   3.420   3.329  0.0631 -0.6401  0.0373
   92MOL   C18329485   6.569   3.361   3.204 -0.2458 -0.7033  0.2559
   92MOL   C18429486   6.495   3.334   3.442  0.6294 -0.1256 -0.1982
   92MOL   H18529487   6.476   3.880   3.311 -1.4681  0.7223  1.8528
   92MOL   H18629488   6.342   3.769   3.352  0.0452 -0.7037 -0.8396
   92MOL   H18729489   6.488   3.637   3.155 -1.0073  1.1994  0.1721
   92MOL   H18829490   6.539   3.419   3.118  3.0552 -0.4855 -0.8154
   92MOL   H18929491   6.677   3.371   3.214 -0.5794  1.6327  1.9253
   92MOL   H19029492   6.539   3.261   3.171 -1.6312  0.1349 -1.0434
   92MOL   H19129493   6.397   3.333   3.491  1.0357 -0.9320  0.5981
   92MOL   H19229494   6.558   3.374   3.521 -1.2984  1.7610  0.4328
   92MOL   H19329495   6.520   3.231   3.417  1.2495  0.2668 -1.2436
   92MOL   C19429496   6.662   3.717   3.265  0.3096 -0.3056 -0.5348
   92MOL   C19529497   6.710   3.805   3.145  0.0947 -0.3760 -0.1910
   92MOL   C19629498   6.725   3.728   3.009 -0.2391 -0.3071 -0.1156
   92MOL   O19729499   6.764   3.611   3.013 -0.9368 -0.1070 -0.1176
   92MOL   N19829500   6.684   3.791   2.891 -0.0963  0.7970 -1.0246
   92MOL   C19929501   6.672   3.719   2.761 -0.4924  0.2422  0.2793
   92MOL   C20029502   6.676   3.932   2.875 -0.6256  0.5131 -0.6522
   92MOL   H20129503   6.680   3.755   3.366 -1.7168 -1.5956  0.3455
   92MOL   H20229504   6.720   3.624   3.265  0.0900 -0.4422 -0.1420
   92MOL   H20329505   6.645   3.892   3.136  2.0804  1.1227 -0.3133
   92MOL   H20429506   6.770   3.694   2.720 -1.4167  1.5396 -2.8234
   92MOL   H20529507   6.618   3.628   2.789 -0.1490  0.1838  0.7766
   92MOL   H20629508   6.610   3.765   2.684 -1.6385 -2.9260 -0.7697
   92MOL   H20729509   6.721   3.955   2.778  0.8741 -1.3698 -0.4324
   92MOL   H20829510   6.720   3.996   2.952 -0.7860 -1.3810  1.0621
   92MOL   H20929511   6.576   3.975   2.883 -0.6288  0.7374 -1.7755
   92MOL   C21029512   6.845   3.875   3.181  0.3383  0.0378 -0.3108
   92MOL   C21129513   6.964   3.783   3.196  0.0207  0.5645  0.1689
   92MOL   C21229514   6.968   3.731   3.349  0.0872 -0.0627  0.1740
   92MOL   O21329515   6.934   3.808   3.439  0.3309  0.0639  0.4922
   92MOL   N21429516   7.026   3.608   3.369  0.1744 -0.7863  0.7970
   92MOL   C21529517   7.079   3.525   3.263  0.1041 -0.2313  0.1452
   92MOL   C21629518   7.073   3.570   3.508 -0.0227  0.0381  0.4061
   92MOL   H21729519   6.875   3.954   3.112  1.3438 -0.2556 -0.2198
   92MOL   H21829520   6.828   3.927   3.275 -2.0052 -1.8241  0.3541
   92MOL   H21929521   6.957   3.703   3.122 -0.2331  0.5948  0.1612
   92MOL   H22029522   7.137   3.439   3.297  0.2453 -0.6829 -1.1935
   92MOL   H22129523   7.015   3.511   3.176  0.9632 -2.3443 -0.1701
   92MOL   H22229524   7.168   3.570   3.217 -0.1978 -0.1204 -0.3305
   92MOL   H22329525   7.167   3.513   3.506  0.1659  0.3284  1.0024
   92MOL   H22429526   7.006   3.507   3.566 -0.5769  0.1665 -0.0943
   92MOL   H22529527   7.091   3.659   3.568  2.0924  0.6157 -1.0137
   92MOL   C22629528   7.107   3.853   3.181  0.2255 -0.8157  0.2311
   92MOL   C22729529   7.155   3.882   3.030 -0.7291  0.1956 -0.0544
   92MOL   C22829530   7.183   3.748   2.960 -0.1478  0.1471 -0.5107
   92MOL   O22929531   7.246   3.668   3.026  0.3658 -0.7637 -0.0148
   92MOL   N23029532   7.132   3.713   2.834  0.3592 -0.0404 -0.5401
   92MOL   C23129533   7.060   3.799   2.743  0.2459 -0.7773  0.7925
   92MOL   C23229534   7.143   3.575   2.792  0.4834 -0.4837  0.8301
   92MOL   H23329535   7.103   3.945   3.241  1.5953 -0.0410 -0.8278
   92MOL   H23429536   7.189   3.799   3.229 -1.1970 -2.0747  1.2671
   92MOL   H23529537   7.070   3.932   2.984 -1.1835  0.4632  1.0557
   92MOL   H23629538   7.100   3.899   2.763  3.2465 -1.5613 -0.9439
   92MOL   H23729539   7.075   3.787   2.636 -1.1684  2.9289  0.1163
   92MOL   H23829540   6.954   3.806   2.765 -0.0968  2.3690 -1.4820
   92MOL   H23929541   7.061   3.524   2.841  0.0475 -1.0439 -0.4489
   92MOL   H24029542   7.238   3.527   2.815  1.1546  0.2453 -0.3269
   92MOL   H24129543   7.135   3.565   2.683  0.2661  0.7638  0.7206
   92MOL   C24229544   7.283   3.978   3.023  0.9621 -0.0193 -0.6798
   92MOL   C24329545   7.269   4.133   3.046 -0.0065  0.0166  0.0926
   92MOL   C24429546   7.139   4.166   3.125  0.0383 -0.7642 -0.8354
   92MOL   O24529547   7.037   4.165   3.053 -1.0942  0.2185 -0.6469
   92MOL   N24629548   7.147   4.193   3.256  0.3847 -0.0529 -0.4168
   92MOL   C24729549   7.030   4.257   3.317 -0.1590 -0.2098 -0.2021
   92MOL   C24829550   7.257   4.191   3.344 -0.3941 -0.8361 -0.3215
   92MOL   H24929551   7.345   3.948   3.107  0.1180  1.8231  0.6253
   92MOL   H25029552   7.359   3.949   2.950  0.9236 -0.2069 -0.6456
   92MOL   H25129553   7.350   4.176   3.104 -0.5519 -0.8582  1.5462
   92MOL   H25229554   7.061   4.331   3.390 -1.7557  0.5136 -0.2395
   92MOL   H25329555   6.976   4.328   3.255 -1.3677 -0.1444  0.9157
   92MOL   H25429556   6.957   4.187   3.357 -0.1537  0.2143  0.5613
   92MOL   H25529557   7.225   4.184   3.448  1.5912 -1.4168  0.2617
   92MOL   H25629558   7.315   4.283   3.342  0.2595 -1.2217  0.4705
   92MOL   H25729559   7.324   4.109   3.319  0.1407 -0.2365 -0.8953
   92MOL   C25829560   7.281   4.211   2.911 -0.1969 -0.3417 -0.1716
   92MOL   C25929561   7.283   4.367   2.907  0.3587 -0.5802 -0.0266
   92MOL   C26029562   7.400   4.434   2.993  0.2714  0.6167 -0.3723
   92MOL   O26129563   7.393   4.416   3.113 -0.0709  0.3578  0.0897
   92MOL   N26229564   7.503   4.498   2.935  0.1079  0.5877 -0.1218
   92MOL   C26329565   7.606   4.551   3.019 -0.0593 -0.1080  0.0603
   92MOL   C26429566   7.515   4.533   2.796  0.9171  0.1202  0.4632
   92MOL   H26529567   7.370   4.188   2.852  0.7030  1.7284  0.3220
   92MOL   H26629568   7.197   4.181   2.848 -0.5724  2.3678 -1.0470
   92MOL   H26729569   7.291   4.393   2.801  0.0512 -0.3458  0.0055
   92MOL   H26829570   7.689   4.481   3.010 -0.8319 -1.1688  0.9799
   92MOL   H26929571   7.634   4.652   2.989  0.0386  0.4086  1.8297
   92MOL   H27029572   7.581   4.577   3.122  1.5805 -3.3295  1.3493
   92MOL   H27129573   7.431   4.599   2.772 -0.5837 -0.7867  2.9509
   92MOL   H27229574   7.500   4.450   2.727 -0.5105  0.1995  0.6540
   92MOL   H27329575   7.601   4.592   2.765  1.0255  0.5369  1.5277
   92MOL   C27429576   7.151   4.440   2.945 -0.3590 -0.1662  0.6010
   92MOL   C27529577   7.124   4.577   2.882  0.5036 -0.6526  0.1024
   92MOL   C27629578   7.009   4.640   2.955  0.0898 -0.7141 -0.2338
   92MOL   O27729579   6.910   4.568   2.978  0.0948  0.5291 -0.0133
   92MOL   N27829580   7.031   4.763   3.013 -0.7854  0.4451  0.1696
   92MOL   C27929581   6.912   4.833   3.068 -0.3887  0.1884 -0.6541
   92MOL   C28029582   7.158   4.826   3.016  0.0783 -0.4045 -0.3506
   92MOL   H28129583   7.066   4.375   2.927 -0.5316 -0.2587  1.7343
   92MOL   H28229584   7.152   4.437   3.054  0.4560 -0.1687  0.5995
   92MOL   H28329585   7.221   4.628   2.883  0.8490 -1.3068  1.8519
   92MOL   H28429586   6.836   4.763   3.104 -0.8023  0.7589 -0.4002
   92MOL   H28529587   6.938   4.901   3.150 -1.1840  1.8130 -1.7124
   92MOL   H28629588   6.855   4.892   2.996 -0.0953  0.3710 -0.7331
   92MOL   H28729589   7.144   4.922   3.067 -0.5310 -0.1471 -0.9859
   92MOL   H28829590   7.204   4.844   2.919  1.0808 -1.9904 -0.1771
   92MOL   H28929591   7.214   4.769   3.089 -2.1505 -1.1893  0.7866
   92MOL   C29029592   7.092   4.579   2.735  0.1939  0.2943 -0.4381
   92MOL   C29129593   6.964   4.502   2.676  0.1375  0.0068 -0.3619
   92MOL   C29229594   6.985   4.348   2.662 -0.2576  0.2852  0.5622
   92MOL   O29329595   7.071   4.303   2.587  0.3929 -0.1771 -0.4410
   92MOL   N29429596   6.903   4.264   2.731 -1.0775 -0.2372 -0.5121
   92MOL   C29529597   6.917   4.119   2.704  0.2903  0.2580  0.1642
   92MOL   C29629598   6.784   4.297   2.807  0.1968 -0.1999 -0.1135
   92MOL   H29729599   7.086   4.684   2.706  1.6213  0.6802  0.6232
   92MOL   H29829600   7.172   4.534   2.676  0.2727 -2.3558  1.6102
   92MOL   H29929601   6.877   4.521   2.739  0.4664 -1.1063  0.4242
   92MOL   H30029602   6.828   4.077   2.656 -0.4383  2.1066 -0.1374
   92MOL   H30129603   7.006   4.091   2.647  0.2357 -0.2749  0.3357
   92MOL   H30229604   6.931   4.070   2.800 -1.1228  2.5196  1.5830
   92MOL   H30329605   6.731   4.376   2.753  0.3195 -0.7124 -1.0000
   92MOL   H30429606   6.811   4.329   2.907 -2.2235 -0.4369  0.6487
   92MOL   H30529607   6.712   4.215   2.815  0.6510 -0.6943 -0.9875
   92MOL   C30629608   6.929   4.565   2.543  0.5041 -0.2396 -1.0636
   92MOL   C30729609   6.860   4.704   2.565 -0.2009 -0.3189  0.0305
   92MOL   C30829610   6.720   4.691   2.601  0.3532  0.1116  0.3738
   92MOL   O30929611   6.650   4.584   2.596 -0.8975  0.2590  0.3653
   92MOL   N31029612   6.655   4.806   2.638 -0.1901 -0.3414 -0.0757
   92MOL   C31129613   6.729   4.933   2.667 -0.1521  0.1447 -0.0832
   92MOL   C31229614   6.509   4.814   2.654  0.3358  0.0382  0.7762
   92MOL   H31329615   7.018   4.562   2.481  0.7723  0.1893 -0.6973
   92MOL   H31429616   6.866   4.501   2.480 -0.5973 -1.2190  0.9773
   92MOL   H31529617   6.912   4.765   2.639  1.4120  1.3748 -2.4223
   92MOL   H31629618   6.656   5.015   2.668 -0.5768 -0.1707 -2.2461
   92MOL   H31729619   6.758   4.958   2.769  0.0794 -1.1912  0.1817
   92MOL   H31829620   6.794   4.966   2.586  2.9984  0.1428  2.3797
   92MOL   H31929621   6.466   4.729   2.705 -1.4340  0.5695  0.1827
   92MOL   H32029622   6.463   4.827   2.556  1.4414  2.6828  0.5501
   92MOL   H32129623   6.482   4.902   2.713  0.1399  0.7968 -0.4312
   92MOL   H32229624   6.859   4.755   2.468 -0.6787  0.9827  0.7101
   93MOL     C129625   6.788   5.912   6.432 -0.1928  0.1475 -0.2170
   93MOL     C229626   6.831   5.939   6.582 -0.3524  0.7269  0.2668
   93MOL     C329627   6.953   6.029   6.588 -1.1708  0.1752 -0.4809
   93MOL     O429628   7.055   5.985   6.535 -0.1175 -0.0494  0.0594
   93MOL     N529629   6.954   6.138   6.671  0.1473  0.2174  0.4948
   93MOL     C629630   6.842   6.235   6.681  0.6568  0.0732 -0.2069
   93MOL     C729631   7.069   6.171   6.750  0.2285 -0.1689  0.4263
   93MOL     H829632   6.789   5.805   6.412  0.2590 -0.1050  1.1293
   93MOL     H929633   6.860   5.948   6.358 -0.2720 -0.6020 -0.6630
   93MOL    H1029634   6.747   5.989   6.629  1.0169  0.7923  2.7269
   93MOL    H1129635   6.880   6.336   6.692  0.4790  0.2767 -1.4387
   93MOL    H1229636   6.795   6.230   6.583  1.7140  0.8065 -0.7632
   93MOL    H1329637   6.778   6.204   6.764 -0.7660  1.1685 -0.8774
   93MOL    H1429638   7.092   6.102   6.831 -2.9044 -0.4514  1.1194
   93MOL    H1529639   7.053   6.272   6.788 -0.3270  1.0263 -2.8383
   93MOL    H1629640   7.156   6.179   6.684  1.2779 -0.2632  1.7753
   93MOL    H1729641   6.691   5.956   6.411  0.2761  1.4755  0.3064
   93MOL    C1829642   6.838   5.792   6.652  0.3166 -0.8901  0.4490
   93MOL    C1929643   6.846   5.787   6.806 -0.0334 -0.2388  0.2473
   93MOL    C2029644   6.722   5.839   6.877  0.2487  0.0147 -0.1285
   93MOL    O2129645   6.706   5.962   6.879 -0.1979  0.3310  0.0569
   93MOL    N2229646   6.636   5.753   6.946 -0.1175  0.0102  0.1655
   93MOL    C2329647   6.648   5.607   6.940  0.0541 -0.0575  0.3387
   93MOL    C2429648   6.531   5.800   7.034 -0.8947  0.0092  0.0793
   93MOL    H2529649   6.753   5.733   6.620 -0.1488  0.2899 -0.5517
   93MOL    H2629650   6.924   5.736   6.617 -0.4848  0.2482 -3.5856
   93MOL    H2729651   6.848   5.681   6.832 -0.1260  0.1591  1.9219
   93MOL    H2829652   6.728   5.575   7.006  0.7657 -1.0794 -0.9978
   93MOL    H2929653   6.563   5.551   6.979 -2.1921  1.1805 -2.5600
   93MOL    H3029654   6.656   5.573   6.836 -2.2658  3.3247 -1.0343
   93MOL    H3129655   6.541   5.907   7.052  0.3142  0.1731 -1.5267
   93MOL    H3229656   6.516   5.741   7.125 -1.1022  0.7089  0.5110
   93MOL    H3329657   6.439   5.805   6.975 -0.2765 -0.3715 -0.9232
   93MOL    C3429658   6.981   5.839   6.877  0.1373 -0.4102  0.1536
   93MOL    C3529659   7.030   5.766   7.001  0.5400  0.5332 -0.5463
   93MOL    C3629660   7.142   5.848   7.064  0.0157 -0.1456  0.3970
   93MOL    O3729661   7.248   5.845   7.005 -0.4275 -0.1504 -0.3274
   93MOL    N3829662   7.128   5.906   7.181 -0.1607  0.3238  0.3705
   93MOL    C3929663   7.249   5.929   7.262  0.6117 -0.1328 -0.0052
   93MOL    C4029664   7.000   5.942   7.234 -0.5973  0.5186 -0.4941
   93MOL    H4129665   7.068   5.845   6.813 -0.5181  0.1842 -0.6917
   93MOL    H4229666   6.961   5.942   6.907  0.8344 -0.4584  0.8022
   93MOL    H4329667   6.948   5.753   7.073 -0.6936 -1.3407 -2.2323
   93MOL    H4429668   7.304   5.835   7.257  2.3599  0.5566  4.5098
   93MOL    H4529669   7.325   6.003   7.239 -1.2507  2.1822  1.1401
   93MOL    H4629670   7.211   5.947   7.362  0.3343 -2.0357  0.2544
   93MOL    H4729671   6.960   5.846   7.268  0.2318 -1.0205 -3.6718
   93MOL    H4829672   6.926   5.991   7.172 -0.3081  2.2885  0.5445
   93MOL    H4929673   7.006   5.998   7.328 -1.8829 -1.6135  0.9173
   93MOL    C5029674   7.075   5.629   6.952 -0.2162 -1.0663 -0.6597
   93MOL    C5129675   7.154   5.548   7.064  0.1014  0.1006  0.8800
   93MOL    C5229676   7.222   5.427   6.988  0.6858 -0.5453  0.2230
   93MOL    O5329677   7.157   5.327   6.965 -0.5049  0.3911 -0.0731
   93MOL    N5429678   7.354   5.436   6.967  0.5712 -0.0724  0.6351
   93MOL    C5529679   7.436   5.559   6.954 -0.7819  0.0545 -1.0108
   93MOL    C5629680   7.427   5.323   6.916 -0.2975 -0.0165 -0.3214
   93MOL    H5729681   6.985   5.575   6.925 -2.1366  1.9529 -0.5784
   93MOL    H5829682   7.141   5.644   6.867 -0.4240 -0.3605 -0.7005
   93MOL    H5929683   7.233   5.616   7.096  1.0360 -0.6569  0.2151
   93MOL    H6029684   7.433   5.625   7.041 -1.9032  0.6545 -1.4981
   93MOL    H6129685   7.541   5.530   6.946 -0.9526 -0.4960 -1.2420
   93MOL    H6229686   7.398   5.612   6.866 -1.0249  2.8608  0.7001
   93MOL    H6329687   7.460   5.343   6.814  0.1425 -1.5718 -0.5022
   93MOL    H6429688   7.369   5.230   6.915 -2.5570  1.3262  0.9615
   93MOL    H6529689   7.516   5.303   6.976  0.5293  1.1298 -1.1635
   93MOL    C6629690   7.073   5.508   7.191  0.1264  0.5460 -0.0065
   93MOL    C6729691   7.136   5.442   7.317 -0.1512  0.1216  0.5553
   93MOL    C6829692   7.047   5.473   7.435 -1.2101 -0.0626 -1.1075
   93MOL    O6929693   7.037   5.590   7.470 -0.3696 -0.0787  0.1377
   93MOL    N7029694   6.990   5.370   7.506  0.1104  0.3375 -0.0903
   93MOL    C7129695   7.020   5.223   7.485 -0.2330  0.6949  0.4647
   93MOL    C7229696   6.927   5.407   7.633 -0.3714 -0.4249 -0.1420
   93MOL    H7329697   7.018   5.596   7.225  0.9266  0.3089  2.0098
   93MOL    H7429698   6.986   5.447   7.169 -0.5816  1.3353  0.5406
   93MOL    H7529699   7.153   5.336   7.299  1.2213  0.2798  0.8090
   93MOL    H7629700   7.121   5.202   7.521  0.0005 -0.0518 -0.5887
   93MOL    H7729701   6.953   5.161   7.543 -0.7606  1.1873  0.3884
   93MOL    H7829702   7.013   5.196   7.379  1.1921  1.4991  0.1370
   93MOL    H7929703   7.002   5.465   7.687  0.6057 -4.3984  2.9582
   93MOL    H8029704   6.925   5.320   7.698 -1.5297 -0.4308 -0.1807
   93MOL    H8129705   6.842   5.473   7.615  1.0136  2.5583  3.6439
   93MOL    C8229706   7.278   5.494   7.327  0.1796 -0.8969 -0.2825
   93MOL    C8329707   7.385   5.447   7.432  0.7168 -0.3853  0.3044
   93MOL    C8429708   7.435   5.305   7.384  0.3563 -0.2047 -0.1426
   93MOL    O8529709   7.374   5.208   7.414  0.1163  0.2680 -0.8658
   93MOL    N8629710   7.556   5.294   7.323  0.3615 -0.1970 -0.3262
   93MOL    C8729711   7.588   5.157   7.275  0.7792 -0.2862  0.1914
   93MOL    C8829712   7.641   5.403   7.267 -0.5980  0.1911 -0.4612
   93MOL    H8929713   7.327   5.470   7.232  0.0706 -1.8306 -0.1086
   93MOL    H9029714   7.278   5.603   7.328  1.5303 -0.8928  0.8597
   93MOL    H9129715   7.463   5.522   7.420 -1.2202  1.5828 -0.4218
   93MOL    H9229716   7.590   5.077   7.349  2.5799 -0.8930 -0.4659
   93MOL    H9329717   7.520   5.137   7.192  1.1042 -3.0292  0.5203
   93MOL    H9429718   7.683   5.138   7.225  0.7005 -1.9929  0.6479
   93MOL    H9529719   7.725   5.358   7.214  0.4937  1.6681 -0.0243
   93MOL    H9629720   7.675   5.467   7.348  0.9663  0.9868 -1.7120
   93MOL    H9729721   7.580   5.463   7.200  1.3732  0.4785 -2.0715
   93MOL    C9829722   7.339   5.455   7.576  0.1485 -0.0497  0.4689
   93MOL    C9929723   7.445   5.407   7.684 -0.3675  0.4651 -0.0021
   93MOL   C10029724   7.367   5.399   7.821  0.2897  0.0990 -0.1226
   93MOL   O10129725   7.366   5.499   0.033  0.3243  0.5032 -0.8741
   93MOL   N10229726   7.304   5.282   0.009 -0.7538 -0.4005  0.2978
   93MOL   C10329727   7.298   5.156   7.791 -0.5172 -0.1704  0.2837
   93MOL   C10429728   7.246   5.268   0.142  0.5026 -0.1603  0.2530
   93MOL   H10529729   7.293   5.550   7.604 -0.8452  0.5243 -2.9483
   93MOL   H10629730   7.263   5.382   7.604  1.6144 -2.5003 -1.6575
   93MOL   H10729731   7.473   5.305   7.658 -2.7178  0.0292 -1.0296
   93MOL   H10829732   7.292   5.185   7.686  0.9459  1.2330  0.5665
   93MOL   H10929733   7.387   5.097   7.812 -1.3771 -0.9389  1.9233
   93MOL   H11029734   7.210   5.094   7.806  0.7841 -1.7655  1.5868
   93MOL   H11129735   7.144   5.230   0.136  0.7751 -0.7449 -1.0055
   93MOL   H11229736   7.235   5.367   0.186  0.1024  0.1113 -0.4444
   93MOL   H11329737   7.313   5.209   0.204  2.7439  2.3618  0.3354
   93MOL   C11429738   7.574   5.490   7.691  0.2412 -0.0972  0.5057
   93MOL   C11529739   7.668   5.435   7.789 -0.3677  0.5538  0.0707
   93MOL   C11629740   7.773   5.545   7.830  0.2316 -0.0706 -0.5978
   93MOL   O11729741   0.020   5.559   7.753 -0.1417 -0.0461 -0.1713
   93MOL   N11829742   7.759   5.625   0.090 -0.2929  0.4716  0.1994
   93MOL   C11929743   7.660   5.601   0.199 -0.2264 -0.1134  0.5556
   93MOL   C12029744   7.848   5.733   0.119 -0.0669 -0.4622 -0.4351
   93MOL   H12129745   7.623   5.507   7.595 -2.6733  1.9865 -0.6872
   93MOL   H12229746   7.552   5.593   7.718 -0.2555  0.2308 -1.0496
   93MOL   H12329747   7.616   5.412   0.029  0.2079 -1.4059 -0.0683
   93MOL   H12429748   7.640   5.697   0.247  0.7257  1.1736 -1.4985
   93MOL   H12529749   7.567   5.560   0.160  0.1149  0.5338 -0.9803
   93MOL   H12629750   7.701   5.528   0.268 -0.4285 -0.4946  0.2734
   93MOL   H12729751   7.785   5.821   0.116  0.8573  0.2245  0.0163
   93MOL   H12829752   0.076   5.748   0.047  0.9628  1.1907  1.0406
   93MOL   H12929753   0.054   5.728   0.210 -1.8060  5.2882  1.2226
   93MOL   C13029754   7.742   5.310   7.731  1.0939  0.5878 -0.3418
   93MOL   C13129755   7.837   5.234   7.826  0.2199 -0.2806 -0.2302
   93MOL   C13229756   0.106   5.185   7.746 -0.1610 -0.0670  0.1714
   93MOL   O13329757   0.086   5.109   7.652 -0.3345 -0.0536  0.3414
   93MOL   N13429758   0.230   5.214   7.782  0.5452  0.8185  1.2169
   93MOL   C13529759   0.266   5.312   0.031  0.3364  0.2283  0.0151
   93MOL   C13629760   0.346   5.143   7.720 -0.3434 -0.0430 -0.9359
   93MOL   H13729761   7.670   5.241   7.687  1.7696  0.5489 -1.4132
   93MOL   H13829762   7.787   5.339   7.636 -1.8220  0.2987 -1.8817
   93MOL   H13929763   0.010   5.306   0.050  1.4680 -2.1003  1.0552
   93MOL   H14029764   0.241   5.407   7.838  2.6722  0.1076 -1.5644
   93MOL   H14129765   0.232   5.281   0.130 -0.2761 -0.5243 -0.4242
   93MOL   H14229766   0.374   5.323   0.045  0.7046 -2.1075 -0.6607
   93MOL   H14329767   0.343   5.038   7.749  1.8679  0.0148 -0.4319
   93MOL   H14429768   0.440   5.177   7.764 -0.2337  0.9251 -1.8930
   93MOL   H14529769   0.337   5.140   7.612  0.5457  0.0417 -1.0092
   93MOL   C14629770   7.754   5.116   0.036  0.5280 -0.4670 -0.0600
   93MOL   C14729771   7.815   5.033   0.153 -0.2048 -0.5362 -0.9238
   93MOL   C14829772   7.809   5.105   0.292  0.6356 -0.1855 -1.4082
   93MOL   O14929773   0.022   5.207   0.302 -0.0139 -0.0387 -0.1116
   93MOL   N15029774   7.738   5.056   0.402 -0.6480  0.3884  0.4680
   93MOL   C15129775   7.756   5.119   0.530 -0.4739  0.2781  0.2921
   93MOL   C15229776   7.656   4.932   0.385  0.0280 -0.4579 -0.1565
   93MOL   H15329777   7.651   5.138   0.064  0.4432  0.7907 -1.2684
   93MOL   H15429778   7.742   5.045   7.808  2.1359 -0.6705 -0.1432
   93MOL   H15529779   7.738   4.957   0.163 -0.8326  0.2634  0.4967
   93MOL   H15629780   7.792   5.220   0.546  0.1613  0.0911  0.0675
   93MOL   H15729781   7.657   5.118   0.575 -0.7908  2.1226 -0.3132
   93MOL   H15829782   7.833   5.065   0.585 -0.1120  0.7983  0.2989
   93MOL   H15929783   7.718   4.848   0.354  0.1868 -0.6117  0.5637
   93MOL   H16029784   7.581   4.935   0.306  2.3610  1.3594 -2.3607
   93MOL   H16129785   7.621   4.896   0.482 -0.0200  0.1120  0.0365
   93MOL   C16229786   0.099   4.971   0.129  0.1313  0.4026 -0.1406
   93MOL   C16329787   0.144   4.860   0.224  0.3002  0.2888  0.0891
   93MOL   C16429788   0.298   4.853   0.229  0.1569  0.3413  0.2549
   93MOL   O16529789   0.345   4.833   0.118 -0.6349 -0.3278  0.6323
   93MOL   N16629790   0.369   4.852   0.345  0.4290  0.0132 -0.4274
   93MOL   C16729791   0.496   4.782   0.350 -0.3541  0.1415 -0.0559
   93MOL   C16829792   0.345   4.957   0.437  0.3865 -0.1080 -0.0394
   93MOL   H16929793   0.111   4.942   0.025 -1.2060  2.0112 -0.7736
   93MOL   H17029794   0.167   5.055   0.145 -0.1204  0.4333  0.8620
   93MOL   H17129795   0.111   4.880   0.326 -2.2124 -1.0182 -0.4354
   93MOL   H17229796   0.492   4.709   0.269 -0.1305  0.7072 -0.5797
   93MOL   H17329797   0.581   4.847   0.329 -0.8520  0.3210 -1.5018
   93MOL   H17429798   0.505   4.725   0.443  0.4095 -1.1409 -0.9021
   93MOL   H17529799   0.247   4.973   0.480  0.2702 -0.3375 -0.2185
   93MOL   H17629800   0.365   5.051   0.384  0.9419  0.8415  1.8149
   93MOL   H17729801   0.408   4.951   0.526  1.9030  4.3919 -0.6830
   93MOL   C17829802   0.076   4.732   0.179 -0.1932 -0.1212  0.3146
   93MOL   C17929803   0.104   4.608   0.262 -0.3456  1.4125 -0.0370
   93MOL   C18029804   0.057   4.487   0.182  0.3171  0.0826 -0.5155
   93MOL   O18129805   7.793   4.442   0.207 -0.1705 -0.0922  0.1147
   93MOL   N18229806   0.138   4.429   0.087  0.8312 -0.1167 -0.4922
   93MOL   C18329807   0.279   4.453   0.081 -0.5615 -0.6235  0.9317
   93MOL   C18429808   0.101   4.317   0.002  0.8603  0.3558 -0.1696
   93MOL   H18529809   7.821   4.738   0.177 -0.2604 -1.1376  0.3633
   93MOL   H18629810   0.103   4.712   0.075 -1.7511 -2.5338  0.3176
   93MOL   H18729811   0.213   4.609   0.268 -0.3487  0.3035  0.2038
   93MOL   H18829812   0.329   4.441   0.177  0.7484 -0.4828  0.2762
   93MOL   H18929813   0.326   4.384   0.010  0.0314 -0.8413  1.5264
   93MOL   H19029814   0.281   4.555   0.041  1.3389 -0.4098  1.5266
   93MOL   H19129815   7.850   4.332   7.831  1.3362 -0.3150 -2.8660
   93MOL   H19229816   0.096   4.225   0.061 -1.3195  1.0504  0.7537
   93MOL   H19329817   0.153   4.302   7.761 -0.8871  0.1707 -1.1211
   93MOL   C19429818   0.053   4.615   0.404 -0.5134 -0.1550 -0.0260
   93MOL   C19529819   0.083   4.493   0.498  1.2471  0.3388  0.0518
   93MOL   C19629820   0.010   4.514   0.633 -0.2419  0.2067  0.1055
   93MOL   O19729821   0.049   4.608   0.704 -0.3586 -0.1118  0.4757
   93MOL   N19829822   7.759   4.439   0.672 -0.7339  0.0124  0.2958
   93MOL   C19929823   7.716   4.453   0.810  0.0965 -0.3321 -0.1596
   93MOL   C20029824   7.710   4.324   0.597 -0.2467 -0.0289  0.5339
   93MOL   H20129825   0.104   4.694   0.458  2.1564 -0.6444 -1.7753
   93MOL   H20229826   7.799   4.636   0.410 -0.5842 -0.6936  0.5940
   93MOL   H20329827   0.057   4.399   0.449 -2.4769  1.3438 -0.0958
   93MOL   H20429828   7.681   4.555   0.826 -0.0219 -0.4714  0.5102
   93MOL   H20529829   7.635   4.385   0.834 -1.6869  2.5759  2.5242
   93MOL   H20629830   7.787   4.420   0.886  1.8881  0.3554 -1.5081
   93MOL   H20729831   7.629   4.266   0.642 -1.2842  0.6215 -0.4625
   93MOL   H20829832   7.783   4.245   0.580 -1.9595 -1.1153 -2.1448
   93MOL   H20929833   7.673   4.344   0.496  0.6209 -0.5671  0.1045
   93MOL   C21029834   0.241   4.492   0.528  0.5577  0.7019  1.0506
   93MOL   C21129835   0.314   4.404   0.646  0.1929  0.6035 -0.2105
   93MOL   C21229836   0.468   4.418   0.638 -0.6920 -0.1073  0.2624
   93MOL   O21329837   0.524   4.404   0.527 -0.1469 -0.5925 -0.0742
   93MOL   N21429838   0.541   4.458   0.742 -0.7819  0.1436 -0.6851
   93MOL   C21529839   0.667   4.521   0.713  0.6430  0.4692 -0.3888
   93MOL   C21629840   0.491   4.451   0.880 -0.2584 -0.9696 -0.7161
   93MOL   H21729841   0.283   4.448   0.438 -1.5243 -2.5049  1.5858
   93MOL   H21829842   0.286   4.591   0.529  1.5703  0.2412  1.8701
   93MOL   H21929843   0.289   4.462   0.736 -0.2036 -1.0661  0.7707
   93MOL   H22029844   0.710   4.547   0.810  1.4181 -0.1107 -0.5693
   93MOL   H22129845   0.735   4.453   0.661  0.0009  0.1305 -0.7814
   93MOL   H22229846   0.656   4.610   0.651 -2.1714 -0.4379 -1.2490
   93MOL   H22329847   0.559   4.479   0.961 -1.2262  0.3651 -0.3466
   93MOL   H22429848   0.467   4.350   0.916  1.0991 -0.8329  0.6427
   93MOL   H22529849   0.400   4.506   0.906  0.6492 -0.1212  0.7334
   93MOL   C22629850   0.266   4.260   0.672 -0.4454 -0.1791  0.3727
   93MOL   C22729851   0.332   4.138   0.597  0.2474  0.1092 -0.1109
   93MOL   C22829852   0.306   4.137   0.443  0.2694 -0.0400 -0.7254
   93MOL   O22929853   0.191   4.164   0.403  0.8218 -0.2177 -0.1327
   93MOL   N23029854   0.408   4.112   0.360 -0.1229  0.0250 -0.1357
   93MOL   C23129855   0.378   4.104   0.214  0.0780  0.6111  0.5413
   93MOL   C23229856   0.543   4.062   0.393  0.4749 -0.0499 -0.4920
   93MOL   H23329857   0.268   4.233   0.778 -0.8333 -2.3302 -0.1365
   93MOL   H23429858   0.161   4.266   0.642 -0.8317 -0.5803  1.5861
   93MOL   H23529859   0.440   4.132   0.616  0.1409 -0.0168  0.4515
   93MOL   H23629860   0.421   4.016   0.166 -0.2732 -0.3550  1.9864
   93MOL   H23729861   0.272   4.099   0.191  0.2155 -1.9667  0.3452
   93MOL   H23829862   0.413   4.191   0.157 -1.8331  0.1286 -1.4099
   93MOL   H23929863   0.596   4.004   0.318  0.7390  1.4273 -1.4720
   93MOL   H24029864   0.548   3.993   0.478  3.0506 -0.9008 -1.2989
   93MOL   H24129865   0.614   4.142   0.413  1.8040 -1.3781  0.2199
   93MOL   C24229866   0.294   3.997   0.656  0.2825  0.0235  0.2927
   93MOL   C24329867   0.380   3.951   0.777  0.0748  0.6498 -0.1084
   93MOL   C24429868   0.525   3.894   0.741  0.4653  0.1841 -0.1803
   93MOL   O24529869   0.536   3.827   0.640  0.3497  0.1098 -0.1155
   93MOL   N24629870   0.631   3.924   0.819 -0.1895 -0.0528  0.2782
   93MOL   C24729871   0.767   3.879   0.789 -0.2700 -0.5292  0.2336
   93MOL   C24829872   0.616   3.994   0.951  0.1430 -0.2163  0.2689
   93MOL   H24929873   0.195   4.007   0.699 -0.4430 -2.0267 -0.8548
   93MOL   H25029874   0.274   3.915   0.588  1.1424  0.0550 -0.0109
   93MOL   H25129875   0.392   4.038   0.841  0.4918  1.6449 -1.5039
   93MOL   H25229876   0.812   3.803   0.854  0.5853  0.4276  0.7659
   93MOL   H25329877   0.776   3.838   0.689  0.0209 -4.3011  1.7070
   93MOL   H25429878   0.823   3.972   0.796 -0.8629 -0.2062  0.6566
   93MOL   H25529879   0.703   3.979   1.015  0.3029 -1.7690 -0.2811
   93MOL   H25629880   0.528   3.960   1.006  0.2039  0.5802  0.8717
   93MOL   H25729881   0.609   4.101   0.936 -1.2440 -0.2484  0.5610
   93MOL   C25829882   0.302   3.846   0.862 -0.2499 -0.6170  0.6743
   93MOL   C25929883   0.180   3.888   0.948  0.8794  0.0078 -0.0450
   93MOL   C26029884   0.187   4.030   1.009  0.4857 -0.7235  0.5242
   93MOL   O26129885   0.297   4.061   1.054  0.5718  0.5115  0.1884
   93MOL   N26229886   0.082   4.111   1.017 -0.3758  0.0656  0.0125
   93MOL   C26329887   7.824   4.096   0.924  0.4643 -0.4461 -0.2348
   93MOL   C26429888   0.081   4.236   1.095  0.5412 -0.3443  0.3407
   93MOL   H26529889   0.279   3.763   0.795  0.6488 -0.0891 -0.3083
   93MOL   H26629890   0.371   3.820   0.943  0.8135  2.0922  0.6855
   93MOL   H26729891   0.092   3.882   0.884  0.6089  3.1758 -0.0654
   93MOL   H26829892   7.768   4.002   0.919  0.9241 -0.6463 -1.6778
   93MOL   H26929893   7.750   4.176   0.932 -1.2162 -2.0693  1.0711
   93MOL   H27029894   0.008   4.123   0.826  1.2897 -1.6457 -0.2542
   93MOL   H27129895   0.155   4.223   1.174  1.2333 -0.2424 -0.2780
   93MOL   H27229896   7.841   4.256   1.147 -0.6663  0.3237 -2.0120
   93MOL   H27329897   0.111   4.325   1.039  1.3185 -1.4325 -1.0363
   93MOL   C27429898   0.160   3.778   1.060  0.2868  0.2057  0.8676
   93MOL   C27529899   0.027   3.780   1.137  0.9588 -0.6793 -0.6877
   93MOL   C27629900   0.045   3.709   1.275  0.5626  0.6874 -0.1503
   93MOL   O27729901   0.025   3.588   1.285 -0.2751 -0.2664  0.1971
   93MOL   N27829902   0.061   3.789   1.382  0.0930 -0.4048 -0.4897
   93MOL   C27929903   0.091   3.935   1.386  0.2915  0.2654 -0.5828
   93MOL   C28029904   0.064   3.722   1.511 -0.0716 -0.1862  0.4653
   93MOL   H28129905   0.167   3.680   1.013 -0.7948 -0.3552  1.8365
   93MOL   H28229906   0.248   3.778   1.124  1.5903  1.9268 -0.8724
   93MOL   H28329907   7.846   3.879   1.165 -1.0187 -1.4509 -0.3076
   93MOL   H28429908   0.001   3.996   1.382  1.9218  2.6964 -1.1794
   93MOL   H28529909   0.144   3.969   1.475 -0.2226  0.8721 -0.5040
   93MOL   H28629910   0.167   3.968   1.315  2.9102 -0.9251  1.5902
   93MOL   H28729911   0.092   3.785   1.596  2.1040 -0.0563 -0.3183
   93MOL   H28829912   0.144   3.648   1.516  0.9070  0.7620 -1.1096
   93MOL   H28929913   7.817   3.686   1.536 -0.0646  0.2269  1.1112
   93MOL   C29029914   7.765   3.720   1.054  0.1257  0.0732  0.7048
   93MOL   C29129915   7.626   3.751   1.113  0.3756 -0.3324  0.5040
   93MOL   C29229916   7.525   3.661   1.037  0.4438 -0.5347 -0.3218
   93MOL   O29329917   7.499   3.691   0.923 -0.1614 -0.0312  0.1656
   93MOL   N29429918   7.460   3.569   1.110  0.6958 -0.2050 -0.0872
   93MOL   C29529919   7.495   3.532   1.244 -0.2261  0.0399 -0.0209
   93MOL   C29629920   7.364   3.494   1.026 -0.7238  0.5004  0.2613
   93MOL   H29729921   7.769   3.761   0.953 -1.2787 -1.3111  0.0601
   93MOL   H29829922   7.774   3.612   1.046  0.3755  0.2180 -1.3155
   93MOL   H29929923   7.627   3.727   1.219 -1.8593  0.2528  0.6818
   93MOL   H30029924   7.457   3.433   1.268  1.0707 -0.0583  1.7830
   93MOL   H30129925   7.602   3.525   1.263 -0.5927 -2.1487  1.4508
   93MOL   H30229926   7.456   3.601   1.318 -1.0744  0.9366 -1.2759
   93MOL   H30329927   7.405   3.459   0.932  1.0612  0.9846  0.8526
   93MOL   H30429928   7.287   3.563   0.990  0.3061  1.4430 -0.1472
   93MOL   H30529929   7.316   3.411   1.078  0.4248  0.5739  1.4498
   93MOL   C30629930   7.587   3.902   1.116  0.3434  0.8253  0.2201
   93MOL   C30729931   7.467   3.933   1.201 -0.3743 -0.4657 -0.6268
   93MOL   C30829932   7.473   4.070   1.272 -0.7429  1.1537 -0.0543
   93MOL   O30929933   7.447   4.171   1.207  0.0998 -0.1411  0.2192
   93MOL   N31029934   7.526   4.082   1.392  0.5946 -0.0225 -0.1688
   93MOL   C31129935   7.566   4.209   1.456  0.4815  0.5028  0.2748
   93MOL   C31229936   7.559   3.966   1.468 -0.1401 -0.0430 -0.5388
   93MOL   H31329937   7.666   3.972   1.142  0.0570  1.2015  0.0819
   93MOL   H31429938   7.546   3.925   1.017 -2.5482 -1.5978  0.7618
   93MOL   H31529939   7.378   3.935   1.138 -1.0086  1.0471  0.2799
   93MOL   H31629940   7.608   4.274   1.380  1.0567  0.2591  0.3751
   93MOL   H31729941   7.475   4.250   1.501 -0.4241 -1.6172  0.4471
   93MOL   H31829942   7.649   4.205   1.526  1.1642 -0.1115 -0.5589
   93MOL   H31929943   7.630   3.907   1.411 -0.5986 -0.0156 -1.1465
   93MOL   H32029944   7.473   3.901   1.488 -0.2014 -0.0635 -0.8710
   93MOL   H32129945   7.604   3.991   1.564  4.4663 -1.3183 -2.2269
   93MOL   H32229946   7.444   3.851   1.269  2.1889  0.0308  0.8856
   94MOL     C129947   1.149   7.262   6.396 -0.2674 -0.4194 -0.1459
   94MOL     C229948   1.152   7.341   6.534  0.7230 -0.2650 -0.0307
   94MOL     C329949   1.160   7.494   6.503  0.2246  0.7699 -0.3260
   94MOL     O429950   1.244   7.526   6.419  0.4000 -0.2868 -0.5587
   94MOL     N529951   1.092   7.582   6.574  0.3648 -0.0001 -0.4918
   94MOL     C629952   1.001   7.553   6.684  0.2476  0.4804 -0.3469
   94MOL     C729953   1.103   7.724   6.547 -0.6078 -0.0259  0.2623
   94MOL     H829954   1.249   7.264   6.352 -0.4029  2.0715 -0.4064
   94MOL     H929955   1.079   7.314   6.329 -0.7747  0.7618  1.2637
   94MOL    H1029956   1.061   7.320   6.590  0.9269  1.4273  0.9934
   94MOL    H1129957   0.982   7.641   6.745  1.3771 -0.0940  0.8491
   94MOL    H1229958   0.903   7.525   6.643 -0.7445  2.9581  0.2686
   94MOL    H1329959   1.046   7.488   6.760  0.3914  0.7502 -0.2027
   94MOL    H1429960   1.058   7.792   6.620 -0.7024 -0.8589  1.0019
   94MOL    H1529961   1.055   7.738   6.451 -2.0480 -0.2482  0.9318
   94MOL    H1629962   1.207   7.755   6.547 -0.2540 -1.1690  0.1087
   94MOL    H1729963   1.116   7.159   6.406 -0.4241 -0.1281  2.8782
   94MOL    C1829964   1.273   7.301   6.620 -0.2923  0.3603 -0.1243
   94MOL    C1929965   1.256   7.180   6.707  0.5835  0.9360  0.0844
   94MOL    C2029966   1.186   7.212   6.845 -0.4806  0.7353 -0.3819
   94MOL    O2129967   1.211   7.320   6.901 -0.6224  0.1565 -0.2206
   94MOL    N2229968   1.086   7.134   6.892 -0.7069 -0.2120  0.0210
   94MOL    C2329969   1.076   6.990   6.853 -0.2487 -0.5934  0.7703
   94MOL    C2429970   1.000   7.193   6.996 -0.1794 -0.3723  0.3776
   94MOL    H2529971   1.361   7.285   6.559  0.1881  0.2963  0.5724
   94MOL    H2629972   1.301   7.379   6.692 -0.5609  0.5488 -0.2213
   94MOL    H2729973   1.199   7.120   6.636  0.3680  1.0769  0.1372
   94MOL    H2829974   1.145   6.925   6.908  0.9528 -0.1632 -0.2014
   94MOL    H2929975   0.974   6.956   6.872 -1.1794  1.6963  0.0043
   94MOL    H3029976   1.101   6.965   6.750 -1.3963 -2.1013  0.8440
   94MOL    H3129977   0.929   7.116   7.027 -0.3312 -0.1227  0.6538
   94MOL    H3229978   0.946   7.279   6.955  0.6862  0.2236  0.4729
   94MOL    H3329979   1.048   7.220   7.090  0.6920 -0.6054 -0.0026
   94MOL    C3429980   1.391   7.116   6.732  0.3556  0.0101  0.0304
   94MOL    C3529981   1.447   7.020   6.615  0.2345  0.2208 -0.4703
   94MOL    C3629982   1.370   6.883   6.607  0.6019  1.3710  0.4047
   94MOL    O3729983   1.357   6.817   6.714  0.1579 -0.1530  0.7982
   94MOL    N3829984   1.319   6.830   6.492 -0.1206 -0.3808 -0.4842
   94MOL    C3929985   1.320   6.907   6.376  0.1247  0.0372 -0.2511
   94MOL    C4029986   1.259   6.694   6.484  0.1794 -0.4475 -0.1629
   94MOL    H4129987   1.459   7.197   6.757 -0.7629  0.3279  2.1589
   94MOL    H4229988   1.390   7.048   6.817  1.0369 -0.5431 -0.3859
   94MOL    H4329989   1.442   7.083   6.526  0.4022  0.2316 -0.4724
   94MOL    H4429990   1.251   6.868   6.301 -0.9244  1.9289 -0.2938
   94MOL    H4529991   1.264   7.000   6.389 -0.4993 -0.5874  1.7502
   94MOL    H4629992   1.416   6.927   6.328  1.0112 -2.0391  0.6136
   94MOL    H4729993   1.339   6.620   6.477  0.4307 -0.4507  2.3224
   94MOL    H4829994   1.200   6.690   6.392  0.3259  3.8018 -0.5521
   94MOL    H4929995   1.200   6.684   6.574 -1.7602  0.3952 -1.3200
   94MOL    C5029996   1.599   7.001   6.633  0.5459 -0.3325 -0.5380
   94MOL    C5129997   1.691   7.127   6.616 -0.2467 -0.2646 -0.0804
   94MOL    C5229998   1.666   7.205   6.479 -0.2890 -0.2103  0.3061
   94MOL    O5329999   1.662   7.140   6.376 -0.0024 -0.1259  0.4561
   94MOL    N5430000   1.640   7.340   6.484 -0.7724 -0.3629 -0.7714
   94MOL    C5530001   1.671   7.427   6.601  0.0505 -0.2991 -0.3699
   94MOL    C5630002   1.569   7.396   6.369  0.2419  0.3540  0.4352
   94MOL    H5730003   1.613   6.949   6.728 -0.0524 -1.7807 -1.2370
   94MOL    H5830004   1.631   6.925   6.562  0.0378 -1.6231  0.6022
   94MOL    H5930005   1.674   7.196   6.698  1.6066 -1.3047  1.2224
   94MOL    H6030006   1.771   7.406   6.639 -0.5592 -0.2287  1.3118
   94MOL    H6130007   1.646   7.530   6.574  2.1114  0.9022  2.1281
   94MOL    H6230008   1.604   7.406   6.685 -0.0066  0.7490 -0.1436
   94MOL    H6330009   1.639   7.446   6.302 -0.3936 -2.5866 -2.6022
   94MOL    H6430010   1.492   7.470   6.391 -0.5160 -0.3556  0.2135
   94MOL    H6530011   1.517   7.317   6.313  1.0518  1.3562 -1.7776
   94MOL    C6630012   1.845   7.089   6.621  0.1387 -0.8438 -1.0037
   94MOL    C6730013   1.902   7.043   6.762 -0.1243  0.4444 -0.2723
   94MOL    C6830014   1.921   7.175   6.847 -0.2580 -0.0987 -0.1226
   94MOL    O6930015   1.977   7.276   6.802 -0.6270 -0.2388  0.4735
   94MOL    N7030016   1.875   7.185   6.971 -0.5341  0.4461  0.3242
   94MOL    C7130017   1.836   7.068   7.054 -0.4789 -0.2492  0.1129
   94MOL    C7230018   1.877   7.321   7.040  0.1086 -0.0428  0.0391
   94MOL    H7330019   1.861   7.010   6.548 -1.7942 -2.6787  0.4876
   94MOL    H7430020   1.899   7.178   6.587  2.0885 -0.7334  2.1992
   94MOL    H7530021   1.828   6.987   6.820  1.1745 -1.1943 -0.1366
   94MOL    H7630022   1.886   7.068   7.151  0.6797 -1.5029 -0.4737
   94MOL    H7730023   1.729   7.064   7.077 -0.7786  1.6751 -0.7764
   94MOL    H7830024   1.872   6.974   7.015 -1.0018 -1.3563  2.2326
   94MOL    H7930025   1.979   7.337   7.074 -0.3369 -0.5705  1.7051
   94MOL    H8030026   1.802   7.332   7.119 -0.5152 -0.2047 -0.5283
   94MOL    H8130027   1.850   7.403   6.974 -0.3738  1.0830  1.5822
   94MOL    C8230028   2.034   6.956   6.753 -0.1755 -0.1850  0.0893
   94MOL    C8330029   2.020   6.801   6.739  0.2560  0.3849  0.0096
   94MOL    C8430030   1.975   6.726   6.865 -0.0877  0.1787 -0.7457
   94MOL    O8530031   2.051   6.731   6.964  0.5411 -0.0142  0.2965
   94MOL    N8630032   1.851   6.670   6.877 -0.2315  0.1952 -0.2551
   94MOL    C8730033   1.806   6.597   6.996  0.7706 -0.0695  0.4007
   94MOL    C8830034   1.753   6.669   6.771  0.2156 -0.5696 -0.0547
   94MOL    H8930035   2.092   7.012   6.679 -0.3565  2.0760  1.6091
   94MOL    H9030036   2.088   6.980   6.845  0.9651 -0.2764 -0.5484
   94MOL    H9130037   1.950   6.779   6.658 -1.3487  0.0739  1.4475
   94MOL    H9230038   1.851   6.633   7.088  0.5728 -0.0226  0.4805
   94MOL    H9330039   1.702   6.619   7.022  0.6621  0.2354 -0.2745
   94MOL    H9430040   1.816   6.489   6.990 -3.3245 -0.5104  0.0322
   94MOL    H9530041   1.733   6.765   6.724 -0.1732 -1.4001 -1.6483
   94MOL    H9630042   1.659   6.620   6.798 -0.2785 -0.7793 -2.0930
   94MOL    H9730043   1.782   6.604   6.688  0.4564 -1.2104  0.5266
   94MOL    C9830044   2.148   6.748   6.678 -0.1586 -0.3703  0.2078
   94MOL    C9930045   2.278   6.760   6.768 -0.3256  0.2145  0.3906
   94MOL   C10030046   2.388   6.811   6.675  0.5140  0.0530 -0.0712
   94MOL   O10130047   2.412   6.748   6.573  0.7611 -0.2544  0.0989
   94MOL   N10230048   2.459   6.923   6.704  0.1644 -0.0622 -0.0738
   94MOL   C10330049   2.415   7.025   6.792  0.4530 -0.2101 -0.2353
   94MOL   C10430050   2.584   6.934   6.643 -0.1819  0.7507 -0.0874
   94MOL   H10530051   2.136   6.650   6.633 -0.1026  0.4143 -1.5443
   94MOL   H10630052   2.165   6.811   6.591 -0.7322 -0.5494 -0.0294
   94MOL   H10730053   2.265   6.825   6.855 -1.1715  0.0237  0.4100
   94MOL   H10830054   2.311   7.054   6.779  0.4785  0.2910  0.6459
   94MOL   H10930055   2.433   6.986   6.892  0.7888  2.5287  0.7963
   94MOL   H11030056   2.476   7.114   6.787 -1.2293  0.9101 -1.3902
   94MOL   H11130057   2.657   6.867   6.689 -0.8756  0.2054  0.2228
   94MOL   H11230058   2.637   7.029   6.645 -0.7918  1.0889 -0.0133
   94MOL   H11330059   2.584   6.900   6.540  0.7278 -1.6387  0.6605
   94MOL   C11430060   2.308   6.613   6.814  0.7083  1.0642  0.2239
   94MOL   C11530061   2.403   6.588   6.942 -0.0926 -0.0477 -0.1021
   94MOL   C11630062   2.547   6.633   6.920 -0.0606 -0.5013  0.8444
   94MOL   O11730063   2.606   6.570   6.832  0.4934 -0.0999 -0.1346
   94MOL   N11830064   2.615   6.721   6.999 -0.5114 -0.0161 -0.0102
   94MOL   C11930065   2.555   6.792   7.120  0.0040  0.6716 -0.3564
   94MOL   C12030066   2.760   6.736   6.971 -0.1856  0.3649  0.3243
   94MOL   H12130067   2.211   6.567   6.828  2.2604 -1.6963  2.5291
   94MOL   H12230068   2.355   6.556   6.733 -0.8614  0.3765 -0.2166
   94MOL   H12330069   2.364   6.652   7.021 -0.1816 -1.6195  1.1405
   94MOL   H12430070   2.469   6.856   7.099 -2.0514 -2.0815 -0.4867
   94MOL   H12530071   2.503   6.718   7.179  3.6553 -2.1847 -0.5300
   94MOL   H12630072   2.623   6.843   7.189  0.8384  1.1583 -1.5163
   94MOL   H12730073   2.815   6.651   7.013  0.3687 -0.7256 -2.4925
   94MOL   H12830074   2.790   6.834   7.006  0.4467  0.6319 -0.9206
   94MOL   H12930075   2.780   6.750   6.865  0.7978  0.2712  0.4913
   94MOL   C13030076   2.406   6.444   6.986  0.0608 -0.0540  0.1415
   94MOL   C13130077   2.291   6.401   7.080  0.7468 -0.2594  0.6938
   94MOL   C13230078   2.330   6.445   7.218 -0.7759 -0.5953 -0.0853
   94MOL   O13330079   2.440   6.433   7.255 -0.3140 -0.0514 -0.2700
   94MOL   N13430080   2.244   6.490   7.314  0.0514 -0.6644 -0.3074
   94MOL   C13530081   2.103   6.514   7.278 -0.2001  0.2560  0.4906
   94MOL   C13630082   2.287   6.521   7.448  0.0828 -0.4267 -0.2058
   94MOL   H13730083   2.406   6.383   6.896  1.6036  1.5597 -0.9820
   94MOL   H13830084   2.501   6.411   7.029  0.4166  0.8074  0.0407
   94MOL   H13930085   2.200   6.457   7.056  1.0736  0.5841  1.4049
   94MOL   H14030086   2.082   6.569   7.187  0.5270  1.5006  1.0495
   94MOL   H14130087   2.058   6.415   7.265  1.2463 -0.2039 -1.2122
   94MOL   H14230088   2.054   6.563   7.362 -1.2038  0.8759 -0.4521
   94MOL   H14330089   2.204   6.539   7.516  0.8479  1.4326  0.2781
   94MOL   H14430090   2.326   6.623   7.440  1.0658 -0.8894 -1.5139
   94MOL   H14530091   2.361   6.450   7.485  0.8482  2.6369  4.6284
   94MOL   C14630092   2.266   6.247   7.088  0.5103  0.4925 -0.1163
   94MOL   C14730093   2.196   6.181   6.969 -0.0603  0.1934 -0.3147
   94MOL   C14830094   2.075   6.272   6.922  0.0420  0.3723 -0.2844
   94MOL   O14930095   1.999   6.309   7.006  0.3199  0.0707 -0.5531
   94MOL   N15030096   2.067   6.298   6.787 -0.1720 -0.2505 -0.3575
   94MOL   C15130097   1.943   6.360   6.738  0.6526  0.1706  0.0653
   94MOL   C15230098   2.168   6.286   6.684  1.1382 -0.0638 -0.6003
   94MOL   H15330099   2.363   6.198   7.087 -0.5186 -1.5789 -1.4724
   94MOL   H15430100   2.214   6.226   7.181  2.1934 -0.0572  0.7146
   94MOL   H15530101   2.259   6.182   6.880  0.9672  0.9692  0.4077
   94MOL   H15630102   1.925   6.455   6.790 -2.6985 -0.7370  0.6856
   94MOL   H15730103   1.938   6.369   6.630  2.2559  1.6013  0.0896
   94MOL   H15830104   1.862   6.302   6.783 -0.5264  0.8745 -1.1195
   94MOL   H15930105   2.184   6.182   6.654 -2.7419 -0.7523 -0.6134
   94MOL   H16030106   2.259   6.336   6.717  0.5107  0.2207  0.7059
   94MOL   H16130107   2.142   6.352   6.601 -3.0401 -0.0450  0.6123
   94MOL   C16230108   2.145   6.035   7.005  0.9937  0.3535 -0.0866
   94MOL   C16330109   2.137   5.931   6.891 -0.1545  0.3417  0.9962
   94MOL   C16430110   2.019   5.948   6.791 -0.4274 -0.5484  0.4148
   94MOL   O16530111   1.917   6.006   6.831  0.2221 -0.7453 -0.0645
   94MOL   N16630112   2.034   5.920   6.664 -0.3612 -0.5836 -0.5660
   94MOL   C16730113   1.928   5.958   6.569  0.9102  0.5786 -0.0236
   94MOL   C16830114   2.153   5.877   6.601  0.3028 -0.7760  0.4365
   94MOL   H16930115   2.199   5.990   7.088  0.7740  2.2555  1.1300
   94MOL   H17030116   2.043   6.046   7.044  0.2912 -0.5631 -1.6311
   94MOL   H17130117   2.225   5.933   6.826  0.4009  2.2208  1.7637
   94MOL   H17230118   1.965   5.952   6.467  1.1000  3.6877 -0.2085
   94MOL   H17330119   1.848   5.887   6.587  2.3259 -0.5991  1.7735
   94MOL   H17430120   1.885   6.057   6.587  1.4155  1.0893 -1.5239
   94MOL   H17530121   2.139   5.852   6.495 -2.0664  0.6722  0.3581
   94MOL   H17630122   2.180   5.779   6.641  0.2804 -1.1176 -0.3538
   94MOL   H17730123   2.239   5.943   6.605  1.0362 -1.7744  1.2813
   94MOL   C17830124   2.134   5.791   6.952  0.1586 -0.0147  0.4743
   94MOL   C17930125   2.009   5.755   7.045 -0.0165 -0.1584 -0.1519
   94MOL   C18030126   2.051   5.667   7.169 -0.3729 -0.3870 -0.9616
   94MOL   O18130127   2.076   5.552   7.149  0.0801 -0.0041  0.5004
   94MOL   N18230128   2.077   5.723   7.288  0.0818 -0.6551 -0.1653
   94MOL   C18330129   2.031   5.857   7.333 -0.4369  0.2702  0.1568
   94MOL   C18430130   2.147   5.654   7.395  0.7486  0.0315  0.0823
   94MOL   H18530131   2.143   5.716   6.874  0.3969 -1.1528  1.5789
   94MOL   H18630132   2.224   5.786   7.013 -1.1693 -1.6732  2.3514
   94MOL   H18730133   1.967   5.846   7.089  1.6349 -0.5068  2.2786
   94MOL   H18830134   2.101   5.934   7.299  0.8606 -0.0174  2.0691
   94MOL   H18930135   1.933   5.891   7.301  0.1823  0.7791 -1.2641
   94MOL   H19030136   2.031   5.869   7.441 -0.9490  0.0779  0.1784
   94MOL   H19130137   2.080   5.619   7.474 -0.4512  0.7079 -0.6044
   94MOL   H19230138   2.224   5.720   7.435 -0.4532  2.1172 -0.9763
   94MOL   H19330139   2.190   5.560   7.361 -1.5092 -0.7335 -0.7660
   94MOL   C19430140   1.897   5.677   6.967  0.3831 -0.3293 -0.0658
   94MOL   C19530141   1.768   5.646   7.048  0.0069 -0.0483  1.0090
   94MOL   C19630142   1.686   5.545   6.960 -0.0337  0.2179 -0.3224
   94MOL   O19730143   1.634   5.583   6.854  0.0347 -0.0658 -0.1268
   94MOL   N19830144   1.671   5.417   7.007  0.1126 -0.3969  0.0834
   94MOL   C19930145   1.730   5.362   7.132 -0.2555 -0.2756 -0.2762
   94MOL   C20030146   1.581   5.330   6.935 -0.7329 -0.2589 -0.8145
   94MOL   H20130147   1.872   5.735   6.879 -0.6833  0.6841  0.9000
   94MOL   H20230148   1.931   5.583   6.922 -0.6885 -1.7920  2.0883
   94MOL   H20330149   1.808   5.613   7.144  0.2596 -1.0651  0.5628
   94MOL   H20430150   1.709   5.438   7.208  1.2972 -1.0284  0.9131
   94MOL   H20530151   1.711   5.262   7.170 -2.2254 -0.0492 -0.5784
   94MOL   H20630152   1.839   5.363   7.132 -0.2496 -0.9147 -0.7283
   94MOL   H20730153   1.565   5.238   6.991 -0.2125 -0.0494 -0.3183
   94MOL   H20830154   1.618   5.304   6.836  0.4208 -2.3764  0.1542
   94MOL   H20930155   1.479   5.368   6.937 -0.8634 -0.6344 -0.2612
   94MOL   C21030156   1.684   5.770   7.070  0.1849  0.2114  0.5300
   94MOL   C21130157   1.591   5.760   7.193  0.9368  0.1905 -0.5589
   94MOL   C21230158   1.480   5.869   7.173  0.9284 -0.3981 -0.2966
   94MOL   O21330159   1.494   5.973   7.229  0.2125  0.3024 -0.1249
   94MOL   N21430160   1.370   5.851   7.099  0.1364  0.6338  0.1183
   94MOL   C21530161   1.291   5.966   7.060  0.1107  0.4559 -0.0508
   94MOL   C21630162   1.334   5.722   7.031 -0.1293 -0.7227 -0.2254
   94MOL   H21730163   1.750   5.856   7.082 -0.2747  0.5120  0.9437
   94MOL   H21830164   1.639   5.807   6.978  2.8544  2.4715  0.0542
   94MOL   H21930165   1.542   5.663   7.187  0.2638  0.5289 -0.5716
   94MOL   H22030166   1.237   6.014   7.141 -0.0849  2.7554 -1.4705
   94MOL   H22130167   1.349   6.053   7.027  0.3138  0.4727  0.3453
   94MOL   H22230168   1.220   5.939   6.982  2.2040 -1.3498 -1.3882
   94MOL   H22330169   1.421   5.683   6.978  1.4826  1.0351  1.0003
   94MOL   H22430170   1.260   5.740   6.954  0.4129  0.3648 -0.5105
   94MOL   H22530171   1.305   5.637   7.093 -1.8565 -0.9285 -1.2985
   94MOL   C22630172   1.674   5.783   7.321  0.1290 -0.2034  0.0826
   94MOL   C22730173   1.595   5.783   7.455 -0.6378 -0.0629 -0.4560
   94MOL   C22830174   1.690   5.841   7.559 -0.3350  0.3557 -0.5046
   94MOL   O22930175   1.768   5.764   7.615 -0.0305 -0.0751  0.1653
   94MOL   N23030176   1.688   5.975   7.584 -0.2063  0.1395 -0.2994
   94MOL   C23130177   1.791   6.038   7.677  0.1960  0.3290 -0.1458
   94MOL   C23230178   1.590   6.066   7.534  0.6502  0.6072  0.5339
   94MOL   H23330179   1.754   5.710   7.328  0.9789  0.6146 -0.9495
   94MOL   H23430180   1.730   5.873   7.299 -0.8389  0.2193 -0.7216
   94MOL   H23530181   1.498   5.830   7.444 -1.5321 -1.7274  0.1512
   94MOL   H23630182   1.862   5.973   7.728  0.6862  1.8231  1.1195
   94MOL   H23730183   1.865   6.106   7.633  1.5654 -1.1968 -0.2373
   94MOL   H23830184   1.740   6.106   7.745 -0.7437  0.1118 -0.6321
   94MOL   H23930185   1.586   6.091   7.428 -1.1883  0.6181  0.5979
   94MOL   H24030186   1.620   6.165   7.567  1.4834  0.4788  0.2017
   94MOL   H24130187   1.489   6.036   7.560  0.3490  0.4035 -0.8243
   94MOL   C24230188   1.551   5.637   7.492  0.0643  0.0135 -0.6514
   94MOL   C24330189   1.465   5.620   7.620 -0.2395  0.4587 -0.2543
   94MOL   C24430190   1.466   5.472   7.659 -0.1442  0.7001  0.0087
   94MOL   O24530191   1.393   5.393   7.601 -0.2538  0.5516 -0.0705
   94MOL   N24630192   1.549   5.428   7.762 -0.3150  0.5722 -0.2364
   94MOL   C24730193   1.642   5.511   7.838  0.0779 -0.2224  0.1390
   94MOL   C24830194   1.577   5.283   7.786 -0.5521 -0.4821 -0.1031
   94MOL   H24930195   1.508   5.585   7.406  0.0807  1.2039 -1.3896
   94MOL   H25030196   1.640   5.576   7.503  1.3584  1.9468 -0.3081
   94MOL   H25130197   1.499   5.691   7.695 -0.7523 -0.1184  0.5239
   94MOL   H25230198   1.717   5.552   7.771 -1.6723  1.1643 -1.0118
   94MOL   H25330199   1.582   5.583   0.039  0.2487 -0.5724  0.8110
   94MOL   H25430200   1.697   5.461   0.065 -0.2899  0.7551  1.0009
   94MOL   H25530201   1.605   5.267   0.036 -1.2845 -0.3934  0.1076
   94MOL   H25630202   1.659   5.247   7.723 -0.2011  2.1651 -1.2608
   94MOL   H25730203   1.490   5.219   7.774 -1.7728  0.3148  3.8288
   94MOL   C25830204   1.328   5.669   7.578  0.2622  0.8617 -0.3536
   94MOL   C25930205   1.228   5.675   7.698 -0.3296  0.0035  1.0848
   94MOL   C26030206   1.083   5.699   7.643 -0.6569 -0.9506  0.0900
   94MOL   O26130207   1.075   5.809   7.593 -0.2035 -0.4811  0.0958
   94MOL   N26230208   0.983   5.605   7.648  0.3143  0.3608 -0.7690
   94MOL   C26330209   0.842   5.638   7.645 -0.0561 -0.1641 -0.3991
   94MOL   C26430210   0.999   5.482   7.722 -0.1284  1.0588  0.1855
   94MOL   H26530211   1.333   5.772   7.542 -0.6137  0.5525 -1.3671
   94MOL   H26630212   1.290   5.616   7.491 -1.0444  1.6009 -0.2488
   94MOL   H26730213   1.244   5.585   7.757  0.6904  0.3692  1.3757
   94MOL   H26830214   0.812   5.732   7.598  0.5228  0.4305  0.4305
   94MOL   H26930215   0.775   5.560   7.608  0.5693 -0.1461 -1.5756
   94MOL   H27030216   0.816   5.643   7.751 -1.7318  1.3750 -0.8456
   94MOL   H27130217   1.084   5.431   7.679  0.2988  3.4227 -1.8762
   94MOL   H27230218   0.908   5.427   7.698  0.5729  0.4199 -1.0064
   94MOL   H27330219   1.001   5.489   7.831  2.1840 -1.9511  0.3844
   94MOL   C27430220   1.268   5.801   7.788 -0.5949  0.4244  0.5202
   94MOL   C27530221   1.292   5.790   0.088  0.4059 -0.3200  0.2037
   94MOL   C27630222   1.173   5.716   0.156 -0.3730 -1.2487 -0.1384
   94MOL   O27730223   1.060   5.770   0.170  0.0918  0.3018 -0.6381
   94MOL   N27830224   1.201   5.591   0.201  0.5978 -0.8621 -1.2224
   94MOL   C27930225   1.330   5.530   0.210  0.2703  0.3499  0.1674
   94MOL   C28030226   1.098   5.503   0.252 -0.2469 -0.3890  0.5925
   94MOL   H28130227   1.354   5.853   7.745 -0.8905 -1.0074 -1.8986
   94MOL   H28230228   1.195   5.882   7.779 -0.8150  0.2324  0.5536
   94MOL   H28330229   1.385   5.733   0.094  0.3475 -0.4096  0.2435
   94MOL   H28430230   1.327   5.449   0.284  2.4945 -0.1865 -0.2779
   94MOL   H28530231   1.352   5.469   0.122  0.6748 -1.2849  1.3651
   94MOL   H28630232   1.403   5.602   0.246 -0.7098  0.5868  1.7263
   94MOL   H28730233   1.107   5.472   0.357 -0.9995  0.3648  0.8865
   94MOL   H28830234   1.100   5.415   0.188 -1.7254 -1.8076  2.4143
   94MOL   H28930235   0.999   5.549   0.253  0.5350  1.3679 -1.0800
   94MOL   C29030236   1.309   5.932   0.156 -0.2743  0.8511  0.1724
   94MOL   C29130237   1.454   5.985   0.178  0.1416 -0.4912 -0.2027
   94MOL   C29230238   1.544   5.895   0.267  0.1885 -0.5948  0.3867
   94MOL   O29330239   1.498   5.862   0.380 -0.1206  0.1273 -0.0576
   94MOL   N29430240   1.665   5.851   0.226  0.1012  0.3783  0.0711
   94MOL   C29530241   1.720   5.860   0.097 -0.3323 -0.2690  0.2771
   94MOL   C29630242   1.755   5.782   0.322  0.4925 -0.2697 -0.2762
   94MOL   H29730243   1.242   6.011   0.120 -1.1826  1.2193  2.5812
   94MOL   H29830244   1.278   5.921   0.260  2.6137 -2.8287  0.7289
   94MOL   H29930245   1.496   5.995   0.078  1.4290  0.0971  0.3814
   94MOL   H30030246   1.785   5.782   0.059 -0.8141 -0.8960  0.7490
   94MOL   H30130247   1.647   5.875   0.017 -1.3627  2.6682  1.6660
   94MOL   H30230248   1.771   5.957   0.102 -1.2517  0.2600 -0.3577
   94MOL   H30330249   1.862   5.789   0.303  0.5799 -0.5939  0.1119
   94MOL   H30430250   1.724   5.678   0.320 -1.0977  0.1203  2.0217
   94MOL   H30530251   1.743   5.814   0.426 -1.9405  0.8950 -0.8783
   94MOL   C30630252   1.444   6.123   0.251 -0.4308 -0.2966 -0.0131
   94MOL   C30730253   1.567   6.193   0.305 -0.4961 -0.1967 -0.4415
   94MOL   C30830254   1.669   6.233   0.200 -0.3291  0.1654  0.0865
   94MOL   O30930255   1.643   6.210   0.084  0.1456 -0.0473 -0.0298
   94MOL   N31030256   1.786   6.308   0.224  0.2314 -0.6690 -0.8321
   94MOL   C31130257   1.908   6.285   0.147 -0.0196  0.5100  0.3402
   94MOL   C31230258   1.803   6.397   0.338 -0.3967 -0.6195  0.0737
   94MOL   H31330259   1.389   6.194   0.190  2.3637  1.6372 -0.3900
   94MOL   H31430260   1.380   6.111   0.338 -1.7516 -1.0169 -1.0687
   94MOL   H31530261   1.540   6.285   0.356 -0.4051 -0.8319  0.7562
   94MOL   H31630262   1.896   6.259   0.042  0.1575  1.1466  0.1625
   94MOL   H31730263   1.976   6.370   0.150  0.1085  0.4440 -0.6843
   94MOL   H31830264   1.965   6.200   0.186 -1.5051 -1.7241 -2.1749
   94MOL   H31930265   1.875   6.477   0.323 -0.7554 -0.2294  0.4494
   94MOL   H32030266   1.838   6.345   0.427 -1.5241  1.0689  1.5101
   94MOL   H32130267   1.704   6.430   0.368 -0.3159 -0.4050  0.1063
   94MOL   H32230268   1.617   6.137   0.383  0.2101  1.7877  0.5486
   95MOL     C130269   3.952   2.161   5.297  0.1088  0.7294 -0.7666
   95MOL     C230270   3.812   2.205   5.252 -0.0995  0.7154  0.5711
   95MOL     C330271   3.790   2.347   5.292  0.1905 -0.1072 -0.3784
   95MOL     O430272   3.807   2.364   5.417  0.2153 -0.3272  0.2736
   95MOL     N530273   3.754   2.441   5.205  0.0330 -0.2152 -0.5524
   95MOL     C630274   3.700   2.416   5.072  0.5285 -0.4364 -0.0257
   95MOL     C730275   3.766   2.581   5.233  0.2799  0.4873  0.3380
   95MOL     H830276   3.984   2.064   5.259  1.6261  0.8069  0.2506
   95MOL     H930277   3.960   2.161   5.406  0.0964 -0.1319 -0.7610
   95MOL    H1030278   3.809   2.198   5.143  3.1165  1.9648  0.3396
   95MOL    H1130279   3.646   2.322   5.073 -0.6754  0.1750 -2.8831
   95MOL    H1230280   3.629   2.489   5.033  0.3202  0.5046  2.0619
   95MOL    H1330281   3.788   2.414   5.007  1.5997  0.7533  1.3388
   95MOL    H1430282   3.789   2.633   5.140  2.3454  1.4167  1.3210
   95MOL    H1530283   3.843   2.601   5.308  2.5415 -2.0280 -1.2139
   95MOL    H1630284   3.667   2.617   5.259 -0.7034 -1.3913 -0.7299
   95MOL    H1730285   4.028   2.233   5.267  0.5357  0.7047  0.2152
   95MOL    C1830286   3.706   2.121   5.328  0.3954  0.2988  0.9002
   95MOL    C1930287   3.685   1.977   5.265  0.0525 -0.0426  0.6293
   95MOL    C2030288   3.645   1.991   5.118  0.7759  0.3023 -0.6329
   95MOL    O2130289   3.551   2.061   5.083 -0.2895  0.3688  0.3194
   95MOL    N2230290   3.720   1.919   5.030  0.1438  0.0822 -0.7210
   95MOL    C2330291   3.694   1.930   4.888  0.1580  0.5485 -0.4099
   95MOL    C2430292   3.837   1.837   5.065 -0.6476  0.1941  0.7441
   95MOL    H2530293   3.740   2.115   5.431  1.0918 -1.2170  0.6013
   95MOL    H2630294   3.606   2.163   5.339  0.1550  0.8691 -2.7628
   95MOL    H2730295   3.780   1.926   5.284  0.2096  0.0527  0.1012
   95MOL    H2830296   3.592   1.961   4.866  0.4053  2.0998  0.5920
   95MOL    H2930297   3.763   2.005   4.849 -0.4147  0.9619 -0.6401
   95MOL    H3030298   3.704   1.836   4.834 -0.5445  0.0247  0.3604
   95MOL    H3130299   3.917   1.892   5.115  1.0889  0.2333 -1.9568
   95MOL    H3230300   3.876   1.788   4.975 -1.4193 -2.1778  1.6435
   95MOL    H3330301   3.807   1.748   5.120  0.7116  0.4601  1.9468
   95MOL    C3430302   3.592   1.897   5.352  0.1262 -0.0464  0.2469
   95MOL    C3530303   3.573   1.744   5.331 -0.6040  0.1598  0.9953
   95MOL    C3630304   3.430   1.712   5.398  0.3727  0.0832  0.3474
   95MOL    O3730305   3.426   1.716   5.522 -0.3290 -0.3958 -0.1286
   95MOL    N3830306   3.323   1.683   5.312  0.6099  0.1146 -0.9110
   95MOL    C3930307   3.330   1.688   5.168  0.1535 -0.4896 -0.0535
   95MOL    C4030308   3.194   1.672   5.372  0.1060 -0.2577  0.8059
   95MOL    H4130309   3.630   1.907   5.454 -0.4483 -1.1436  0.5741
   95MOL    H4230310   3.492   1.938   5.352 -1.1209 -2.7969 -3.5553
   95MOL    H4330311   3.580   1.735   5.223 -0.8881  1.8149  0.8316
   95MOL    H4430312   3.235   1.660   5.122  0.1331  0.1300 -0.3895
   95MOL    H4530313   3.356   1.787   5.132 -2.5764  1.0706  2.1460
   95MOL    H4630314   3.397   1.609   5.134  2.3818  0.3850  2.1721
   95MOL    H4730315   3.179   1.581   5.430 -1.4878 -0.1613  0.5498
   95MOL    H4830316   3.116   1.687   5.298 -0.3084 -0.4557  1.2022
   95MOL    H4930317   3.184   1.756   5.440  0.9205  0.3341  0.1945
   95MOL    C5030318   3.687   1.672   5.404  0.2087 -0.1333  0.5554
   95MOL    C5130319   3.698   1.519   5.377 -0.0431  0.4651 -0.3430
   95MOL    C5230320   3.713   1.471   5.237 -0.6025  0.2110  0.4027
   95MOL    O5330321   3.625   1.498   5.153  0.3603 -0.2099 -0.4617
   95MOL    N5430322   3.831   1.408   5.193  0.7154 -0.5702  0.3336
   95MOL    C5530323   3.954   1.359   5.255 -0.8096 -0.1869 -0.4770
   95MOL    C5630324   3.847   1.408   5.046 -0.1587  0.0043  0.2557
   95MOL    H5730325   3.778   1.707   5.355 -1.2614 -1.6792 -3.5499
   95MOL    H5830326   3.694   1.699   5.509 -0.4425 -2.5121  1.2500
   95MOL    H5930327   3.794   1.502   5.427  0.2556 -3.3449 -2.0456
   95MOL    H6030328   3.936   1.344   5.362 -1.8341 -0.3146 -0.6583
   95MOL    H6130329   3.995   1.267   5.213 -0.9842 -0.4277 -0.1204
   95MOL    H6230330   4.026   1.441   5.254 -0.2198 -0.6932  0.0717
   95MOL    H6330331   3.789   1.343   4.981  0.1040  1.7429 -1.7478
   95MOL    H6430332   3.952   1.402   5.017 -0.7683 -1.0777 -1.8236
   95MOL    H6530333   3.811   1.500   5.001 -0.5653 -0.0635  0.4348
   95MOL    C6630334   3.595   1.424   5.449 -1.0083 -0.5493 -0.1299
   95MOL    C6730335   3.654   1.291   5.495 -0.4035  0.0606  0.5910
   95MOL    C6830336   3.567   1.165   5.466 -0.1538  0.4609  0.0873
   95MOL    O6930337   3.462   1.161   5.530  0.1440  0.1123 -0.8208
   95MOL    N7030338   3.606   1.064   5.381  0.0726 -0.8763 -0.6474
   95MOL    C7130339   3.725   1.063   5.305 -0.2385  0.2861 -0.0076
   95MOL    C7230340   3.532   0.935   5.382 -0.6538 -0.2468 -0.5673
   95MOL    H7330341   3.560   1.476   5.539  0.4603  1.4013 -0.6260
   95MOL    H7430342   3.505   1.416   5.389 -0.5058  0.1977 -1.0042
   95MOL    H7530343   3.747   1.288   5.438 -0.9937  1.5418 -0.4830
   95MOL    H7630344   3.800   1.032   5.378  0.8501 -0.3047 -1.3648
   95MOL    H7730345   3.720   0.989   5.226  0.6749 -1.8460  1.8842
   95MOL    H7830346   3.755   1.161   5.266  0.9040  0.7926  2.0646
   95MOL    H7930347   3.498   0.923   5.280 -0.1490 -1.4137 -0.6083
   95MOL    H8030348   3.436   0.949   5.432 -0.9237  2.5856 -1.8138
   95MOL    H8130349   3.586   0.854   5.433  0.8148 -0.0823 -1.8445
   95MOL    C8230350   3.689   1.289   5.643 -0.7924  0.0422 -0.2278
   95MOL    C8330351   3.798   1.190   5.686  0.6079 -0.0390 -0.3141
   95MOL    C8430352   3.811   1.188   5.844 -0.4215 -0.0454 -0.1116
   95MOL    O8530353   3.870   1.283   5.891  0.1811  0.4973 -0.1767
   95MOL    N8630354   3.774   1.078   5.921  0.1583 -0.4920  0.2876
   95MOL    C8730355   3.731   0.954   5.859 -0.0840  0.0300  0.2886
   95MOL    C8830356   3.776   1.081   6.066 -0.0769 -0.0254  0.0709
   95MOL    H8930357   3.721   1.387   5.677 -0.6701  0.0320 -0.3131
   95MOL    H9030358   3.599   1.268   5.700 -2.3178  0.6370 -2.3580
   95MOL    H9130359   3.762   1.092   5.655  0.5229 -0.0072 -0.3146
   95MOL    H9230360   3.815   0.911   5.805 -0.6869 -1.4760  0.5241
   95MOL    H9330361   3.685   0.880   5.924 -1.4048  0.3641 -0.2480
   95MOL    H9430362   3.651   0.971   5.788  0.8064 -2.1578 -1.2802
   95MOL    H9530363   3.880   1.097   6.095 -0.1135 -0.0989  0.2449
   95MOL    H9630364   3.742   0.990   6.114  1.5092 -0.2823  0.7380
   95MOL    H9730365   3.724   1.168   6.107 -2.0459 -1.7251  1.2793
   95MOL    C9830366   3.946   1.223   5.632  0.4362  0.0297 -0.9703
   95MOL    C9930367   4.063   1.122   5.640 -0.2600  0.0608 -0.1481
   95MOL   C10030368   4.029   0.999   5.555  0.2768 -0.2606  0.3147
   95MOL   O10130369   3.952   0.918   5.600 -0.1038 -0.0212 -0.1278
   95MOL   N10230370   4.087   0.976   5.435  0.2611 -1.2612  0.3912
   95MOL   C10330371   4.054   0.871   5.334 -0.1943 -0.0470 -0.0332
   95MOL   C10430372   4.203   1.058   5.382  0.1799 -0.8908 -0.5759
   95MOL   H10530373   3.928   1.236   5.525 -1.1664  2.3939 -0.4447
   95MOL   H10630374   3.982   1.316   5.675 -0.2339  1.0586 -2.5797
   95MOL   H10730375   4.150   1.174   5.599  1.2913 -0.8484  1.8818
   95MOL   H10830376   4.144   0.835   5.284  0.5183  0.3928  0.9189
   95MOL   H10930377   4.000   0.786   5.375  0.7508 -0.5523  0.1754
   95MOL   H11030378   3.987   0.920   5.263 -0.0542 -0.9587 -0.8076
   95MOL   H11130379   4.261   1.010   5.304  0.8515  2.3991 -2.2221
   95MOL   H11230380   4.275   1.072   5.463 -0.9434  0.4239  0.2331
   95MOL   H11330381   4.176   1.158   5.348 -0.3650 -0.2651  1.6178
   95MOL   C11430382   4.096   1.092   5.782 -0.4432 -1.1272  0.0365
   95MOL   C11530383   4.239   1.046   5.824 -0.4911 -0.3178 -0.5903
   95MOL   C11630384   4.355   1.151   5.793  0.1571 -0.4495  0.3775
   95MOL   O11730385   4.393   1.144   5.676  0.0508  0.0992 -0.6129
   95MOL   N11830386   4.403   1.241   5.884  0.3821 -0.0429 -0.1649
   95MOL   C11930387   4.330   1.266   6.006 -0.1920  0.4885  0.0421
   95MOL   C12030388   4.521   1.327   5.859  0.1877 -0.0419  0.3620
   95MOL   H12130389   4.084   1.189   5.830  1.9110 -0.0272 -1.4842
   95MOL   H12230390   4.021   1.035   5.837 -1.4844  1.0368  0.9475
   95MOL   H12330391   4.232   1.038   5.932  0.7922  0.8815 -0.4055
   95MOL   H12430392   4.365   1.361   6.045 -1.8591  1.2902 -0.4004
   95MOL   H12530393   4.222   1.253   6.009 -0.1028 -0.5769 -0.8615
   95MOL   H12630394   4.363   1.199   6.086 -0.8317 -0.5975 -0.5824
   95MOL   H12730395   4.566   1.336   5.958 -0.7586 -1.2935  0.9205
   95MOL   H12830396   4.480   1.421   5.823  0.0057 -0.3445 -0.2115
   95MOL   H12930397   4.591   1.296   5.782  0.6227 -2.3086  1.6255
   95MOL   C13030398   4.281   0.909   5.774 -0.5597 -0.6317 -0.8522
   95MOL   C13130399   4.206   0.784   5.828  0.4342 -0.0836  0.7819
   95MOL   C13230400   4.246   0.756   5.975  0.0127  0.1507  0.3155
   95MOL   O13330401   4.364   0.735   5.999 -0.6248 -0.9945 -0.1767
   95MOL   N13430402   4.162   0.770   6.081 -0.0985  0.2941  0.8264
   95MOL   C13530403   4.021   0.796   6.057 -0.5118 -0.0668  0.1475
   95MOL   C13630404   4.202   0.775   6.221 -0.5294 -0.1389  0.3160
   95MOL   H13730405   4.262   0.920   5.668  1.3125 -0.8842 -1.2246
   95MOL   H13830406   4.390   0.901   5.779 -0.5724 -0.9146 -0.9912
   95MOL   H13930407   4.100   0.802   5.809  0.7495  0.2094 -0.7675
   95MOL   H14030408   4.016   0.891   6.005  0.6833 -0.3228 -0.4378
   95MOL   H14130409   3.971   0.719   5.998 -0.3442 -0.5843  0.6725
   95MOL   H14230410   3.964   0.821   6.147 -1.8424 -0.6417 -0.5096
   95MOL   H14330411   4.293   0.721   6.245 -1.4217 -3.0875 -2.5309
   95MOL   H14430412   4.127   0.737   6.291 -1.7652 -0.2136 -1.0279
   95MOL   H14530413   4.211   0.878   6.256 -1.6693 -0.1522  0.6933
   95MOL   C14630414   4.240   0.663   5.734  0.4685  0.0389  0.2605
   95MOL   C14730415   4.132   0.546   5.748  0.8950  0.4881 -0.2347
   95MOL   C14830416   4.189   0.406   5.751 -0.7700  0.4845 -0.5094
   95MOL   O14930417   4.249   0.369   5.652  0.1454 -0.0663 -0.5705
   95MOL   N15030418   4.172   0.333   5.863  0.2399 -0.1766  0.0806
   95MOL   C15130419   4.154   0.391   5.999  0.5603  0.0722 -0.3059
   95MOL   C15230420   4.188   0.186   5.872  0.2650 -0.5618  0.2694
   95MOL   H15330421   4.271   0.668   5.629  1.2244 -4.5208  0.1377
   95MOL   H15430422   4.334   0.620   5.767  0.8015  0.2557 -0.3858
   95MOL   H15530423   4.084   0.568   5.843 -0.3467  0.1165 -0.7567
   95MOL   H15630424   4.050   0.422   6.010 -0.5748 -2.8378 -2.2273
   95MOL   H15730425   4.190   0.336   6.085 -0.9605  1.4918  1.2846
   95MOL   H15830426   4.200   0.490   6.005  0.9483 -0.2488  2.5372
   95MOL   H15930427   4.283   0.146   5.839  1.1759  1.3722  0.5003
   95MOL   H16030428   4.113   0.144   5.805 -0.6003  0.6247  0.4752
   95MOL   H16130429   4.152   0.158   5.971  1.8803  1.4920  1.4680
   95MOL   C16230430   4.026   0.566   5.637  0.1129  0.1894 -0.5783
   95MOL   C16330431   3.894   0.483   5.641 -0.8366 -1.1875  0.0548
   95MOL   C16430432   3.809   0.518   5.767  0.6180  0.0596  0.4570
   95MOL   O16530433   3.851   0.476   5.874 -0.0694  0.1958 -0.0132
   95MOL   N16630434   3.702   0.602   5.766 -0.0007  0.3914 -0.4257
   95MOL   C16730435   3.626   0.626   5.887 -0.5378 -0.8232  0.1951
   95MOL   C16830436   3.661   0.673   5.640  0.6348  0.3929 -0.9311
   95MOL   H16930437   3.997   0.671   5.626 -0.6601  0.0585  0.1350
   95MOL   H17030438   4.071   0.554   5.539 -0.0093  1.2963 -0.7732
   95MOL   H17130439   3.834   0.499   5.552 -0.0061 -0.1111 -0.3199
   95MOL   H17230440   3.581   0.532   5.919 -3.5823 -0.9347 -4.0828
   95MOL   H17330441   3.683   0.668   5.970 -2.8711  1.0620  0.9030
   95MOL   H17430442   3.538   0.687   5.867  0.1204 -0.4243 -1.5551
   95MOL   H17530443   3.709   0.656   5.544  0.7591  0.1261 -0.8246
   95MOL   H17630444   3.698   0.773   5.660  0.3308  0.7186 -1.9949
   95MOL   H17730445   3.556   0.668   5.611  0.9818 -0.7303 -2.0564
   95MOL   C17830446   3.916   0.338   5.624 -0.2928 -0.2572  0.6889
   95MOL   C17930447   3.987   0.283   5.505 -0.7419  0.6441  0.2951
   95MOL   C18030448   3.922   0.316   5.364  0.5893  0.5137 -0.3646
   95MOL   O18130449   3.797   0.297   5.357  0.6671  0.3810 -0.2290
   95MOL   N18230450   3.995   0.375   5.266  0.4348 -0.7515 -0.2754
   95MOL   C18330451   4.140   0.393   5.279 -0.1974  0.0025 -0.0442
   95MOL   C18430452   3.938   0.434   5.143  0.6489 -1.1954 -0.7063
   95MOL   H18530453   3.966   0.293   5.710  1.9085 -1.1588 -1.0031
   95MOL   H18630454   3.818   0.291   5.634 -1.2144  1.5234  0.3374
   95MOL   H18730455   4.088   0.322   5.495 -1.9494  3.5921 -0.9405
   95MOL   H18830456   4.202   0.303   5.286 -0.6031 -0.2490  0.3500
   95MOL   H18930457   4.185   0.447   5.195  1.8093  1.4555  1.8866
   95MOL   H19030458   4.175   0.461   5.357  1.8217 -1.2879  0.2143
   95MOL   H19130459   3.849   0.377   5.117 -0.1759 -0.4478  0.5112
   95MOL   H19230460   4.004   0.446   5.056  1.1347 -0.4390 -0.2292
   95MOL   H19330461   3.903   0.535   5.164 -0.9370 -2.1111  1.1195
   95MOL   C19430462   4.015   0.127   5.504  0.2454 -0.5520  0.2821
   95MOL   C19530463   3.898   0.027   5.514 -0.6790 -0.0715 -0.5945
   95MOL   C19630464   3.828   0.021   5.660  0.6112  0.6149  0.4441
   95MOL   O19730465   3.895   7.839   5.759  0.4840 -0.2749  0.1066
   95MOL   N19830466   3.693   0.055   5.672 -0.0099 -0.0078 -0.3811
   95MOL   C19930467   3.591   0.096   5.563  0.3154 -0.1415 -0.6952
   95MOL   C20030468   3.633   0.077   5.805 -0.1860 -0.4194  0.0681
   95MOL   H20130469   4.079   0.090   5.424  0.8263 -1.8971  1.3462
   95MOL   H20230470   4.093   0.105   5.576  1.8049  0.4217 -1.0704
   95MOL   H20330471   3.823   0.041   5.437  0.0839 -2.1764 -1.7591
   95MOL   H20430472   3.588   0.204   5.548 -1.4223 -0.1804 -0.7574
   95MOL   H20530473   3.602   0.055   5.463  1.2086 -0.9062 -0.2917
   95MOL   H20630474   3.493   0.060   5.595  0.9472 -1.2140  0.1075
   95MOL   H20730475   3.695   0.043   5.888  0.9233  1.5518  0.0609
   95MOL   H20830476   3.542   0.016   5.811 -1.8527  2.1683  1.9648
   95MOL   H20930477   3.598   0.180   5.812  1.8431  0.4516 -2.0508
   95MOL   C21030478   3.953   7.738   5.470 -0.0546 -0.4214  0.2984
   95MOL   C21130479   3.892   7.607   5.520 -0.0189  0.1100  0.0526
   95MOL   C21230480   3.993   7.489   5.495  1.6540  0.7052 -0.1261
   95MOL   O21330481   4.026   7.462   5.379 -0.3518  0.2506  0.0362
   95MOL   N21430482   4.045   7.422   5.599  0.5024 -0.2212  0.1940
   95MOL   C21530483   4.027   7.455   5.745  0.0566  0.3289  0.9546
   95MOL   C21630484   4.135   7.314   5.573  0.5535  0.3912  0.0396
   95MOL   H21730485   3.964   7.722   5.363  1.7851 -0.9972  0.5635
   95MOL   H21830486   4.058   7.737   5.497  0.5485 -1.7692 -1.9629
   95MOL   H21930487   3.881   7.619   5.628 -0.1699 -1.1567  0.1866
   95MOL   H22030488   4.062   7.556   5.767 -0.5901  0.5631  0.9297
   95MOL   H22130489   3.920   7.459   5.766 -0.1975  0.4451 -0.2826
   95MOL   H22230490   4.071   7.382   5.812  1.8681  1.8348  1.4310
   95MOL   H22330491   4.222   7.354   5.522  2.4974 -1.4941  1.7609
   95MOL   H22430492   4.080   7.230   5.530 -3.0392  3.2221 -1.1178
   95MOL   H22530493   4.185   7.264   5.655 -0.2996 -1.9074 -0.8014
   95MOL   C22630494   3.748   7.590   5.466 -0.0192  0.7370  0.1039
   95MOL   C22730495   3.673   7.456   5.497 -0.0408  0.2537 -0.5291
   95MOL   C22830496   3.696   7.348   5.379  0.3619  0.5564  0.2111
   95MOL   O22930497   3.637   7.367   5.276  0.3090  0.1009 -0.6905
   95MOL   N23030498   3.784   7.241   5.387 -0.5345  0.1797  0.6317
   95MOL   C23130499   3.830   7.163   5.275  0.2050 -0.6812 -0.1997
   95MOL   C23230500   3.780   7.164   5.507 -0.4275  0.6553 -0.4123
   95MOL   H23330501   3.685   7.673   5.498  0.5667  2.1355 -2.2526
   95MOL   H23430502   3.744   7.602   5.358 -0.1080 -0.7583 -0.0705
   95MOL   H23530503   3.723   7.420   5.587 -0.8267  2.7182  0.9350
   95MOL   H23630504   3.888   7.227   5.208 -0.0244 -1.3751 -1.0608
   95MOL   H23730505   3.896   7.085   5.311  0.8723  0.0546  0.1941
   95MOL   H23830506   3.748   7.122   5.217 -0.6249 -0.3082  0.6985
   95MOL   H23930507   3.873   7.146   5.561 -0.2352  2.0373 -0.2629
   95MOL   H24030508   3.729   7.070   5.484 -1.4772  1.5487 -1.7824
   95MOL   H24130509   3.704   7.207   5.571  0.4563  2.3961 -0.5076
   95MOL   C24230510   3.521   7.473   5.505  0.3449 -0.6356  0.8457
   95MOL   C24330511   3.469   7.522   5.644 -0.5119 -0.4136 -0.5604
   95MOL   C24430512   3.498   7.420   5.757 -0.2395  0.0541  0.5139
   95MOL   O24530513   3.430   7.317   5.770  0.1562  0.0421  0.0047
   95MOL   N24630514   3.608   7.449   5.833 -0.7329 -0.5309 -0.3706
   95MOL   C24730515   3.669   7.339   5.906 -1.6400 -0.2002 -0.2091
   95MOL   C24830516   3.674   7.578   5.843 -0.3577  0.1695  0.1441
   95MOL   H24930517   3.497   7.550   5.431  0.8243 -0.7241  0.5901
   95MOL   H25030518   3.468   7.382   5.475 -0.2489 -0.0698  0.1694
   95MOL   H25130519   3.510   7.620   5.665 -2.5926  0.7181 -1.6611
   95MOL   H25230520   3.767   7.358   5.950 -0.4424  0.0487 -2.8909
   95MOL   H25330521   3.604   7.314   5.989 -3.0246 -0.0996 -1.2401
   95MOL   H25430522   3.691   7.252   5.843 -1.1995  0.6303 -1.2032
   95MOL   H25530523   3.700   7.615   5.743 -0.6562  0.9041  0.3390
   95MOL   H25630524   3.769   7.572   5.896 -0.3489  0.5130  0.1654
   95MOL   H25730525   3.616   7.660   5.885  0.9447  0.6105  1.1062
   95MOL   C25830526   3.321   7.552   5.628  0.8770  0.9283 -0.3200
   95MOL   C25930527   3.231   7.575   5.746 -1.3408 -0.6512  0.8658
   95MOL   C26030528   3.088   7.605   5.689  0.6296  0.2102 -0.9098
   95MOL   O26130529   3.067   7.719   5.651  0.1013 -0.0171  0.1314
   95MOL   N26230530   2.993   7.509   5.696  0.0071 -0.2774 -0.0654
   95MOL   C26330531   3.021   7.374   5.749 -0.5079  0.6155 -0.3988
   95MOL   C26430532   2.853   7.536   5.663  0.6042  0.0214 -0.4284
   95MOL   H26530533   3.326   7.642   5.567  1.3429  0.6893 -0.6424
   95MOL   H26630534   3.274   7.476   5.565  0.8523 -1.2513  2.2670
   95MOL   H26730535   3.239   7.482   5.801  1.1762 -0.8480  0.1883
   95MOL   H26830536   3.049   7.372   5.854  0.4319  3.6111 -0.5493
   95MOL   H26930537   2.934   7.309   5.735  1.5821 -1.9035 -2.2863
   95MOL   H27030538   3.103   7.328   5.693  0.1801  0.5546  0.6358
   95MOL   H27130539   2.788   7.575   5.741  0.1224  0.4034 -1.0110
   95MOL   H27230540   2.809   7.442   5.628  1.6016  0.1879 -2.1997
   95MOL   H27330541   2.836   7.601   5.578 -2.3424  0.7342  0.6613
   95MOL   C27430542   3.295   7.688   5.834  0.6766  0.0381 -0.1304
   95MOL   C27530543   3.204   7.752   5.948  0.4855 -0.6454 -0.0046
   95MOL   C27630544   3.283   0.010   6.010 -0.1197  0.1765 -0.3772
   95MOL   O27730545   3.401   7.844   6.031  0.0153  0.4084  0.0571
   95MOL   N27830546   3.225   0.127   6.047 -0.0240 -0.7375 -0.0756
   95MOL   C27930547   3.095   0.176   6.014 -0.3166  0.3272 -0.4221
   95MOL   C28030548   3.311   0.212   6.125 -0.4024 -0.5275 -0.7143
   95MOL   H28130549   3.394   7.656   5.867 -0.1161 -3.0919 -0.6311
   95MOL   H28230550   3.315   7.772   5.768  0.2366  0.7434  0.6230
   95MOL   H28330551   3.112   7.783   5.899  1.1629  1.2860 -0.1211
   95MOL   H28430552   3.080   0.176   5.906 -1.5184 -2.2495 -0.3001
   95MOL   H28530553   3.021   0.109   6.058  1.0175 -1.1308 -0.3613
   95MOL   H28630554   3.080   0.278   6.050 -1.4340 -0.6175  1.8818
   95MOL   H28730555   3.325   0.161   6.220  0.1252  1.9818  0.6176
   95MOL   H28830556   3.270   0.311   6.145 -1.8493 -0.9207 -1.6430
   95MOL   H28930557   3.399   0.223   6.060 -1.4628 -1.7322 -2.4037
   95MOL   C29030558   3.163   7.632   6.046 -0.3050 -0.2205  0.5933
   95MOL   C29130559   3.043   7.668   6.140  0.1136  0.3502  0.6952
   95MOL   C29230560   3.033   7.556   6.249  0.6474 -0.5123 -0.3216
   95MOL   O29330561   3.028   7.442   6.208 -0.4623  0.6912  0.3361
   95MOL   N29430562   3.021   7.591   6.378 -0.7203  0.1297  0.1698
   95MOL   C29530563   3.026   7.729   6.435 -0.1226 -0.7450  0.0756
   95MOL   C29630564   3.015   7.483   6.484 -0.4783  0.4747  0.4040
   95MOL   H29730565   3.146   7.539   5.992  1.5846 -0.0227 -0.3959
   95MOL   H29830566   3.251   7.600   6.103 -0.1798 -0.0100  0.5201
   95MOL   H29930567   3.082   7.758   6.189 -0.9920  1.9097 -1.2035
   95MOL   H30030568   2.991   7.731   6.538  1.4370 -1.0264  0.6160
   95MOL   H30130569   3.123   7.774   6.453 -0.4150  1.7755 -3.8673
   95MOL   H30230570   2.977   7.817   6.392  1.4448 -0.1211 -0.4715
   95MOL   H30330571   2.972   7.390   6.447 -0.1883  0.1779  0.8244
   95MOL   H30430572   2.949   7.510   6.567  0.6908  2.0933  0.8343
   95MOL   H30530573   3.115   7.464   6.522 -0.9837 -1.3419  0.8752
   95MOL   C30630574   2.909   7.685   6.066  0.2313 -0.0925  0.3369
   95MOL   C30730575   2.794   7.754   6.149 -0.0339 -0.1751  0.2352
   95MOL   C30830576   2.665   7.790   6.068  0.2397 -0.0304 -0.2615
   95MOL   O30930577   2.636   7.701   5.992 -0.1191 -0.2005 -0.4477
   95MOL   N31030578   2.602   0.058   6.091 -0.2555 -0.2206  0.4226
   95MOL   C31130579   2.648   0.162   6.185 -0.0408 -0.0472 -0.3280
   95MOL   C31230580   2.479   0.097   6.025  0.6262 -0.0905  0.0412
   95MOL   H31330581   2.918   7.727   5.965 -1.5880 -1.6568 -0.5066
   95MOL   H31430582   2.891   7.584   6.027 -0.6082 -0.2352  1.1003
   95MOL   H31530583   2.770   7.696   6.238  1.3443  0.0608  0.7803
   95MOL   H31630584   2.574   0.237   6.213  1.5626  2.1495 -1.8548
   95MOL   H31730585   2.691   0.132   6.281  0.9744  0.1932 -0.6993
   95MOL   H31830586   2.728   0.220   6.141 -0.4857 -0.5907 -1.8975
   95MOL   H31930587   2.444   0.009   5.970 -0.0947  0.4074 -0.2937
   95MOL   H32030588   2.490   0.181   5.957  1.7918 -1.3030 -1.3354
   95MOL   H32130589   2.406   0.111   6.104 -0.5362  2.3692 -1.4211
   95MOL   H32230590   2.838   7.844   6.192  0.5319 -0.0709 -0.5396
   96MOL     C130591   6.639   1.157   7.817 -0.0509  0.6932  0.1154
   96MOL     C230592   6.521   1.258   7.805  0.3653  0.1897 -0.8163
   96MOL     C330593   6.519   1.324   7.669  0.6534 -0.2257  0.0673
   96MOL     O430594   6.617   1.380   7.619  0.1559  0.1906 -0.7309
   96MOL     N530595   6.404   1.348   7.604 -0.5295  0.3970  0.4516
   96MOL     C630596   6.269   1.313   7.657 -0.0254 -0.5325 -0.1898
   96MOL     C730597   6.396   1.432   7.478  0.4374  0.4173 -0.4795
   96MOL     H830598   6.727   1.198   7.768 -0.9870 -0.0369 -2.2088
   96MOL     H930599   6.605   1.061   7.779 -1.4848  0.9047  0.8203
   96MOL    H1030600   6.431   1.198   7.818  1.2902 -1.0177  0.1866
   96MOL    H1130601   6.183   1.348   7.600 -0.3333  0.2231  0.7081
   96MOL    H1230602   6.263   1.205   7.655  0.0054 -0.5064 -2.4868
   96MOL    H1330603   6.240   1.348   7.757 -1.6923 -1.3803 -0.3801
   96MOL    H1430604   6.298   1.474   7.455  0.8120  1.7561  0.3113
   96MOL    H1530605   6.423   1.361   7.400 -0.4375  0.7988 -1.1328
   96MOL    H1630606   6.472   1.510   7.473 -1.2884  2.0954 -0.9426
   96MOL    H1730607   6.668   1.139   0.067  0.0919  0.4845  0.0374
   96MOL    C1830608   6.514   1.358   0.069  0.0819  0.2218  0.0723
   96MOL    C1930609   6.620   1.478   0.073  0.4721 -0.6586  0.0364
   96MOL    C2030610   6.762   1.418   0.089  0.4588  0.0705  0.0621
   96MOL    O2130611   6.773   1.333   0.176  0.3008 -0.6191  0.1432
   96MOL    N2230612   6.861   1.456   0.013 -0.2294 -0.4912  0.3683
   96MOL    C2330613   6.855   1.569   7.777  0.2187 -0.0743  0.3991
   96MOL    C2430614   6.985   1.373   0.008  0.8535 -0.7312 -0.5232
   96MOL    H2530615   6.416   1.401   0.054 -1.3127 -2.3208  1.5838
   96MOL    H2630616   6.518   1.306   0.165  1.1045 -1.1319 -0.6753
   96MOL    H2730617   6.600   1.527   7.831 -0.3228  0.1289  0.5987
   96MOL    H2830618   6.948   1.599   7.729  0.6382 -0.8435  0.7205
   96MOL    H2930619   6.780   1.553   7.699 -2.5742 -2.2765  3.4381
   96MOL    H3030620   6.825   1.649   7.844  1.7950  0.1863  0.8206
   96MOL    H3130621   6.973   1.302   7.779  0.0918  1.7740 -2.6529
   96MOL    H3230622   7.003   1.314   0.098  0.3174  1.4924  1.0987
   96MOL    H3330623   7.073   1.422   7.820  0.5650  0.9772  0.8189
   96MOL    C3430624   6.589   1.578   0.195  0.2638 -0.0843  0.2236
   96MOL    C3530625   6.443   1.632   0.208 -0.2041 -0.5162 -0.1803
   96MOL    C3630626   6.374   1.672   0.070 -0.1602 -0.3404 -1.1665
   96MOL    O3730627   6.437   1.759   0.010 -0.2272 -0.1888  0.7931
   96MOL    N3830628   6.252   1.625   0.039  0.1222 -0.0081  0.1554
   96MOL    C3930629   6.189   1.673   7.777  0.6057  0.0841 -1.0324
   96MOL    C4030630   6.174   1.529   0.117 -0.1153 -0.1325  0.9939
   96MOL    H4130631   6.609   1.530   0.291 -1.4515 -0.8461  0.2293
   96MOL    H4230632   6.658   1.661   0.182 -1.5242  1.7535  2.1710
   96MOL    H4330633   6.373   1.561   0.251 -0.4713  1.7186  3.2494
   96MOL    H4430634   6.192   1.781   7.768 -2.0736  0.2352 -0.4560
   96MOL    H4530635   6.232   1.623   7.690 -0.4733  1.8479 -2.6065
   96MOL    H4630636   6.082   1.653   7.778  0.6716 -0.3333  0.9617
   96MOL    H4730637   6.076   1.500   0.080  0.6994 -0.6008 -0.8651
   96MOL    H4830638   6.143   1.577   0.210 -0.1221  1.0714  0.3830
   96MOL    H4930639   6.228   1.438   0.142 -0.4768 -0.6043  0.0503
   96MOL    C5030640   6.429   1.759   0.300 -0.5331  0.5665  0.3457
   96MOL    C5130641   6.461   1.748   0.456 -0.2001  0.7845  0.7994
   96MOL    C5230642   6.352   1.678   0.534  0.1410  0.1170  0.0981
   96MOL    O5330643   6.238   1.705   0.512 -0.2076 -0.4920  0.4569
   96MOL    N5430644   6.373   1.566   0.607 -0.3422  0.0928 -0.1618
   96MOL    C5530645   6.257   1.484   0.653 -0.3455 -0.1337 -0.4287
   96MOL    C5630646   6.504   1.513   0.644  0.3684 -0.4175  0.3185
   96MOL    H5730647   6.474   1.841   0.245  2.0090 -0.9363  0.0469
   96MOL    H5830648   6.325   1.788   0.299 -1.0684 -1.2896 -0.6016
   96MOL    H5930649   6.555   1.693   0.455 -2.1950 -2.7812 -1.6142
   96MOL    H6030650   6.279   1.447   0.753 -0.6545 -0.5925 -0.5264
   96MOL    H6130651   6.164   1.541   0.664 -0.0388 -0.0753  2.4690
   96MOL    H6230652   6.237   1.397   0.590  0.5173 -0.7087  0.0765
   96MOL    H6330653   6.511   1.468   0.742  1.6485 -0.0728  0.3945
   96MOL    H6430654   6.568   1.599   0.665  0.4485  0.5376 -3.4317
   96MOL    H6530655   6.551   1.469   0.556 -2.2006  1.5411 -2.1338
   96MOL    C6630656   6.483   1.887   0.534  0.1678  0.7954  0.3142
   96MOL    C6730657   6.548   2.003   0.453  0.0552  0.7250 -0.2164
   96MOL    C6830658   6.687   1.969   0.390 -0.3820  0.6595  0.4246
   96MOL    O6930659   6.771   1.923   0.469  0.0345  0.1267  0.8285
   96MOL    N7030660   6.711   1.988   0.256 -0.4217 -0.2462 -0.0480
   96MOL    C7130661   6.829   1.921   0.202  0.0739 -0.5691  0.2580
   96MOL    C7230662   6.631   2.076   0.170  0.2851  0.5808  0.0377
   96MOL    H7330663   6.393   1.920   0.587  0.9642  1.1316  1.4842
   96MOL    H7430664   6.546   1.871   0.622  1.5257 -1.8454 -1.0742
   96MOL    H7530665   6.488   2.024   0.364 -0.4017 -3.5291 -1.0137
   96MOL    H7630666   6.826   1.814   0.227  1.0003 -0.1990  2.0381
   96MOL    H7730667   6.835   1.931   0.094 -0.0980 -0.6677  0.2386
   96MOL    H7830668   6.912   1.968   0.255 -1.7511 -0.3204  3.0554
   96MOL    H7930669   6.591   2.156   0.232 -2.1367 -0.1092 -0.5427
   96MOL    H8030670   6.547   2.017   0.132  1.0974  0.6369 -1.9206
   96MOL    H8130671   6.698   2.111   0.091  0.8737  0.9479  0.7006
   96MOL    C8230672   6.559   2.134   0.527  0.1624  0.0497 -0.9524
   96MOL    C8330673   6.652   2.151   0.651  0.5735 -0.6613  0.8352
   96MOL    C8430674   6.580   2.117   0.781  0.3399  0.1854 -0.0784
   96MOL    O8530675   6.475   2.177   0.799  0.0875  1.3951  0.3937
   96MOL    N8630676   6.633   2.027   0.867 -0.9505 -0.1577 -0.0288
   96MOL    C8730677   6.568   1.994   0.993  0.4542  0.2085 -0.1249
   96MOL    C8830678   6.764   1.962   0.860 -0.0526  0.3698  0.1275
   96MOL    H8930679   6.591   2.208   0.453  0.0521  0.4020 -0.6481
   96MOL    H9030680   6.459   2.162   0.559  0.2903  0.2125 -0.6911
   96MOL    H9130681   6.737   2.085   0.636  0.7258 -0.2391 -0.2325
   96MOL    H9230682   6.589   1.890   1.018  3.6937  0.7190 -0.4761
   96MOL    H9330683   6.609   2.046   1.079 -0.8050  2.7711 -1.0089
   96MOL    H9430684   6.459   1.994   0.993  0.4326 -1.3208  0.5577
   96MOL    H9530685   6.786   1.919   0.762  0.4791  1.0380 -0.0477
   96MOL    H9630686   6.781   1.889   0.939 -0.4772  0.9468  0.7547
   96MOL    H9730687   6.841   2.038   0.864 -0.4409  0.7063  1.1908
   96MOL    C9830688   6.709   2.298   0.654  0.4234  0.6231  0.3879
   96MOL    C9930689   6.851   2.314   0.583  0.7068 -0.0916 -0.1924
   96MOL   C10030690   6.950   2.240   0.667 -0.6733  0.6382 -0.6759
   96MOL   O10130691   6.951   2.247   0.788 -0.3899 -0.2174  0.3251
   96MOL   N10230692   7.040   2.155   0.610 -0.0934  0.2387 -1.5268
   96MOL   C10330693   7.137   2.088   0.699  0.2113  0.5754  0.3701
   96MOL   C10430694   7.076   2.160   0.469 -0.1546  0.1612 -0.0967
   96MOL   H10530695   6.641   2.375   0.617  0.1608  0.0203 -0.3762
   96MOL   H10630696   6.726   2.324   0.759  0.6497  0.0234  0.4971
   96MOL   H10730697   6.839   2.276   0.482 -0.8643  0.0833 -0.0840
   96MOL   H10830698   7.144   2.141   0.794  1.1707  1.4368 -0.1733
   96MOL   H10930699   7.103   1.986   0.715 -1.2485  1.3060  2.1069
   96MOL   H11030700   7.239   2.080   0.663  0.1323 -0.4646  0.3630
   96MOL   H11130701   7.094   2.259   0.427 -0.4454  0.0834 -0.4156
   96MOL   H11230702   6.990   2.118   0.417 -0.6722  1.3599 -0.2368
   96MOL   H11330703   7.161   2.095   0.450 -1.8978 -2.0210 -0.6335
   96MOL   C11430704   6.882   2.464   0.578 -0.1935  0.1987  0.2843
   96MOL   C11530705   6.822   2.554   0.465 -0.2733  0.4021  0.1992
   96MOL   C11630706   6.843   2.486   0.325  0.1210 -0.2830  0.4241
   96MOL   O11730707   6.954   2.449   0.296 -0.6240  0.6254 -0.0372
   96MOL   N11830708   6.741   2.463   0.239 -0.3388  0.3349  0.5488
   96MOL   C11930709   6.608   2.506   0.267 -0.1735 -0.1397  0.6009
   96MOL   C12030710   6.772   2.383   0.119 -0.0886 -0.1777 -0.1916
   96MOL   H12130711   6.864   2.506   0.677  0.6938  1.7854 -0.2219
   96MOL   H12230712   6.990   2.465   0.560 -0.6000 -0.8901 -2.4612
   96MOL   H12330713   6.716   2.567   0.490 -1.0816 -0.1013 -2.6996
   96MOL   H12430714   6.553   2.514   0.174  0.5998  0.4637  0.1934
   96MOL   H12530715   6.549   2.440   0.332 -0.5324 -0.7773 -0.3661
   96MOL   H12630716   6.596   2.607   0.305 -0.4541  0.5470 -1.2660
   96MOL   H12730717   6.841   2.445   0.063  1.4755 -0.6676  1.1418
   96MOL   H12830718   6.685   2.355   0.059 -0.2503 -0.5019  0.1932
   96MOL   H12930719   6.822   2.290   0.148  0.8928  1.0663  2.2145
   96MOL   C13030720   6.884   2.697   0.466  0.1350 -0.1243 -0.3341
   96MOL   C13130721   6.908   2.778   0.333 -0.8602 -0.6930 -0.3009
   96MOL   C13230722   7.027   2.873   0.355  0.0713 -0.6646 -0.8218
   96MOL   O13330723   6.999   2.981   0.402  0.2725 -0.6928  0.6026
   96MOL   N13430724   7.148   2.833   0.310 -0.2330 -0.2149  0.9810
   96MOL   C13530725   7.177   2.693   0.272  0.2587 -0.3179 -0.2328
   96MOL   C13630726   7.258   2.926   0.316  0.2590 -0.6878 -0.4550
   96MOL   H13730727   6.827   2.754   0.539  0.7623 -0.2695  0.2780
   96MOL   H13830728   6.982   2.684   0.512 -0.0447  0.0492  0.0980
   96MOL   H13930729   6.940   2.712   0.253 -1.4896 -2.1902  0.6650
   96MOL   H14030730   7.282   2.669   0.259  0.4892  1.9536 -3.0654
   96MOL   H14130731   7.151   2.613   0.342  0.3059 -1.4578 -1.5050
   96MOL   H14230732   7.143   2.668   0.171 -0.8731  2.2255 -0.5203
   96MOL   H14330733   7.255   3.002   0.394  1.1213  0.7797 -1.7987
   96MOL   H14430734   7.253   2.990   0.228  0.5840 -0.4187 -0.2811
   96MOL   H14530735   7.361   2.888   0.319  0.7979  0.3525 -3.7695
   96MOL   C14630736   6.780   2.854   0.281 -0.6590 -0.4634 -0.0734
   96MOL   C14730737   6.773   2.893   0.127 -0.4934  0.3713  0.3037
   96MOL   C14830738   6.784   2.773   0.038 -0.3217  0.1728  0.0769
   96MOL   O14930739   6.896   2.718   0.026  0.5562  0.2293  0.5745
   96MOL   N15030740   6.675   2.735   7.821  0.0078 -0.8231  0.8990
   96MOL   C15130741   6.541   2.787   7.826  0.4247  0.3231 -0.2638
   96MOL   C15230742   6.683   2.613   7.740  0.7087 -0.0414 -0.0349
   96MOL   H15330743   6.689   2.802   0.311 -0.3507 -0.6402  0.5548
   96MOL   H15430744   6.779   2.954   0.324 -0.3277 -0.3503 -0.3289
   96MOL   H15530745   6.678   2.945   0.115 -0.6797  0.2620  1.2406
   96MOL   H15630746   6.538   2.896   7.836  0.8893  0.4497 -1.4063
   96MOL   H15730747   6.490   2.773   7.730  0.7107  3.4340 -0.9120
   96MOL   H15830748   6.487   2.741   0.055  1.1412  0.0398  0.0443
   96MOL   H15930749   6.779   2.560   7.738  0.2403 -0.8647 -1.4341
   96MOL   H16030750   6.671   2.642   7.636  1.1921 -2.0335 -0.6706
   96MOL   H16130751   6.606   2.537   7.752  2.4771 -1.9015 -0.0803
   96MOL   C16230752   6.870   3.005   0.076  0.1031 -0.3430  0.2601
   96MOL   C16330753   6.840   3.158   0.126  0.2895  0.0522 -0.0692
   96MOL   C16430754   6.720   3.209   0.051 -0.1052 -0.7575 -0.3633
   96MOL   O16530755   6.722   3.203   7.777  0.0404  0.4802 -1.0822
   96MOL   N16630756   6.620   3.277   0.121  0.1911 -0.5450 -0.2900
   96MOL   C16730757   6.615   3.304   0.261 -0.2367  0.0303  0.2795
   96MOL   C16830758   6.513   3.338   0.045 -0.5335 -0.1725  0.5070
   96MOL   H16930759   6.972   2.979   0.105 -0.9470 -2.7066  1.9651
   96MOL   H17030760   6.881   2.993   7.822 -0.0900 -0.6608  0.2774
   96MOL   H17130761   6.825   3.165   0.234 -0.8369  1.4150 -0.3079
   96MOL   H17230762   6.538   3.372   0.297  0.1148  1.1205 -0.9904
   96MOL   H17330763   6.593   3.213   0.316  0.1855 -1.2375 -1.5797
   96MOL   H17430764   6.712   3.352   0.276  0.5161 -1.9263  1.8189
   96MOL   H17530765   6.492   3.270   7.815  0.6677 -1.0123  0.8722
   96MOL   H17630766   6.543   3.438   0.014  2.1716 -1.1099 -0.1067
   96MOL   H17730767   6.426   3.354   0.107  0.2139 -0.6012  1.6772
   96MOL   C17830768   6.968   3.245   0.091  0.0242  1.3119  0.1873
   96MOL   C17930769   7.043   3.302   0.215 -0.5048  0.6260 -0.4080
   96MOL   C18030770   6.975   3.430   0.269  0.2057  0.8178 -0.1552
   96MOL   O18130771   6.947   3.513   0.186 -0.5144  0.1233 -1.1294
   96MOL   N18230772   6.932   3.436   0.399 -0.3172  0.1273  0.0538
   96MOL   C18330773   6.854   3.557   0.451 -0.2403 -0.1250  0.7845
   96MOL   C18430774   6.950   3.326   0.508  1.2608  0.8496  0.3436
   96MOL   H18530775   7.029   3.182   0.027  2.7244  2.0301  1.9620
   96MOL   H18630776   6.929   3.325   0.029 -1.1036  1.9801  1.7191
   96MOL   H18730777   7.054   3.232   0.299 -1.9739  0.1577 -0.5936
   96MOL   H18830778   6.923   3.639   0.470 -1.2137  1.2100 -1.3376
   96MOL   H18930779   6.787   3.593   0.374  0.9260 -1.4084 -0.8615
   96MOL   H19030780   6.784   3.526   0.529  1.8371 -1.6388  2.1034
   96MOL   H19130781   6.865   3.258   0.499  0.2039  2.0244  1.3105
   96MOL   H19230782   6.933   3.373   0.605 -2.3650 -1.6956  1.0650
   96MOL   H19330783   7.036   3.261   0.526  1.2116  0.6973  0.0388
   96MOL   C19430784   7.179   3.349   0.166 -0.3193 -0.2541 -0.5865
   96MOL   C19530785   7.296   3.360   0.273  0.0710  0.2952  0.0816
   96MOL   C19630786   7.267   3.451   0.397  0.0236 -0.1802  0.1512
   96MOL   O19730787   7.221   3.563   0.374  0.4146 -0.4415 -0.3253
   96MOL   N19830788   7.288   3.408   0.525 -0.4434 -0.1618 -0.0946
   96MOL   C19930789   7.227   3.474   0.638  0.0019 -0.2347  0.1262
   96MOL   C20030790   7.361   3.291   0.564 -0.3404  0.2018  0.4690
   96MOL   H20130791   7.211   3.286   0.084  1.4901 -1.7346  1.2020
   96MOL   H20230792   7.168   3.446   0.118 -1.8700 -0.1273 -0.0395
   96MOL   H20330793   7.318   3.259   0.307 -0.1011 -0.0018 -0.6897
   96MOL   H20430794   7.149   3.542   0.602  1.6462  0.6871 -1.7716
   96MOL   H20530795   7.182   3.393   0.696 -0.1866  1.6155  2.6977
   96MOL   H20630796   7.293   3.538   0.697 -0.0696  0.1152 -0.1707
   96MOL   H20730797   7.340   3.259   0.666 -1.1202 -0.7064  0.0203
   96MOL   H20830798   7.468   3.312   0.559 -0.2176 -0.5837 -0.3655
   96MOL   H20930799   7.332   3.204   0.506  0.4188 -0.5804  1.2505
   96MOL   C21030800   7.427   3.418   0.205  0.4098  0.5336 -0.2236
   96MOL   C21130801   7.512   3.313   0.134 -0.4219 -0.8287  0.7698
   96MOL   C21230802   7.561   3.209   0.236 -0.4387  0.0152 -0.4079
   96MOL   O21330803   7.583   3.244   0.351  0.0634 -0.1708  0.1127
   96MOL   N21430804   7.571   3.080   0.204 -0.0518 -0.0613  0.5985
   96MOL   C21530805   7.624   2.982   0.295 -0.2502 -0.6473 -0.5349
   96MOL   C21630806   7.550   3.028   0.075  0.7558  0.4397 -0.0142
   96MOL   H21730807   7.407   3.501   0.138 -0.3631 -0.1011 -0.7890
   96MOL   H21830808   7.488   3.462   0.284 -0.3852 -1.6843  1.7220
   96MOL   H21930809   7.435   3.262   0.075 -1.2214 -1.3270  2.2147
   96MOL   H22030810   7.596   2.996   0.399 -0.2050 -0.2197 -0.5823
   96MOL   H22130811   7.599   2.879   0.270 -2.4514 -0.3476  0.2954
   96MOL   H22230812   7.733   2.985   0.297 -0.2587 -0.5861 -0.2061
   96MOL   H22330813   7.598   2.932   0.055  3.1232  1.9062 -1.5497
   96MOL   H22430814   7.571   3.109   0.006 -0.8970  3.9386  3.3894
   96MOL   H22530815   7.446   2.998   0.061  1.2862 -1.1975 -0.5760
   96MOL   C22630816   7.629   3.367   0.060 -0.9211 -0.3076  0.1610
   96MOL   C22730817   7.595   3.444   7.783 -0.5777 -0.0281 -0.2338
   96MOL   C22830818   7.553   3.340   7.677 -0.4597  1.0344 -0.1193
   96MOL   O22930819   7.640   3.266   7.633  0.2405 -0.4741  0.5742
   96MOL   N23030820   7.425   3.327   7.644 -0.4117  0.2416 -0.6000
   96MOL   C23130821   7.385   3.229   7.538 -0.0087 -0.9723  0.2184
   96MOL   C23230822   7.313   3.389   7.707  0.4987  0.9380  0.0671
   96MOL   H23330823   7.675   3.437   0.130  0.2508  0.0926 -1.0024
   96MOL   H23430824   7.706   3.291   0.047  2.3913  2.8306  0.3723
   96MOL   H23530825   7.518   3.521   7.784 -1.2733 -0.6576 -2.1061
   96MOL   H23630826   7.386   3.123   7.561  0.0493 -0.3866  3.2349
   96MOL   H23730827   7.287   3.247   7.495  0.0078 -2.3038 -0.3696
   96MOL   H23830828   7.447   3.237   7.449  1.5852  0.7007  1.4122
   96MOL   H23930829   7.271   3.449   7.626  1.3223  0.7339 -0.5059
   96MOL   H24030830   7.325   3.456   7.792  0.3305  2.1861 -0.8837
   96MOL   H24130831   7.238   3.312   7.728 -0.5281  0.9876 -3.1030
   96MOL   C24230832   7.721   3.530   7.737 -0.2254  0.2649 -0.6890
   96MOL   C24330833   7.728   3.570   7.590 -0.0427  0.4300 -0.5415
   96MOL   C24430834   7.853   3.663   7.575 -0.3446 -0.0645  0.4628
   96MOL   O24530835   7.849   3.781   7.614 -0.2821 -0.0741 -0.3331
   96MOL   N24630836   0.113   3.625   7.511  0.5673  0.3988  0.3276
   96MOL   C24730837   0.212   3.723   7.470  0.3577 -0.3553 -0.1775
   96MOL   C24830838   0.122   3.486   7.456 -0.4665  0.2542 -0.5236
   96MOL   H24930839   7.725   3.619   7.800 -0.3377 -0.2069 -0.0177
   96MOL   H25030840   7.810   3.476   7.768 -0.3361 -0.6551 -1.9215
   96MOL   H25130841   7.723   3.485   7.522 -0.0657 -0.3646  0.4273
   96MOL   H25230842   0.189   3.827   7.496 -1.7895 -0.9438  0.3653
   96MOL   H25330843   0.307   3.705   7.520  0.6204  1.1129 -0.1228
   96MOL   H25430844   0.241   3.716   7.365  1.4104 -2.4347  0.2363
   96MOL   H25530845   0.070   3.414   7.519  1.1057 -1.7463 -1.4642
   96MOL   H25630846   0.225   3.449   7.453 -1.0696 -1.8166  2.2048
   96MOL   H25730847   0.074   3.459   7.361  1.8110  0.0995 -1.6834
   96MOL   C25830848   7.602   3.652   7.551  0.5794 -0.2590 -0.3742
   96MOL   C25930849   7.592   3.685   7.397 -0.4953 -0.5053  0.6770
   96MOL   C26030850   7.506   3.807   7.364 -0.1416 -0.2576 -1.2014
   96MOL   O26130851   7.386   3.787   7.336  0.1099 -0.4862 -0.0025
   96MOL   N26230852   7.548   3.933   7.374 -0.1136 -0.3115  0.3184
   96MOL   C26330853   7.693   3.969   7.376  0.0090  0.1023 -0.3730
   96MOL   C26430854   7.459   4.045   7.371  0.2851 -0.2542  0.2374
   96MOL   H26530855   7.509   3.599   7.575  1.7785 -1.8979  0.7099
   96MOL   H26630856   7.596   3.745   7.609 -0.8647 -0.5352 -0.0486
   96MOL   H26730857   7.691   3.700   7.353 -0.7154  3.3474  1.3618
   96MOL   H26830858   7.713   4.058   7.317  0.9649 -1.1515 -1.9682
   96MOL   H26930859   7.723   4.010   7.473 -3.2148  0.6411  0.4618
   96MOL   H27030860   7.764   3.890   7.353  1.5425  1.2095  0.4202
   96MOL   H27130861   7.382   4.046   7.448 -1.1314 -0.5260 -1.1655
   96MOL   H27230862   7.400   4.054   7.280  0.1845  1.2719  0.4385
   96MOL   H27330863   7.501   4.144   7.392 -0.5038 -0.0059  0.6453
   96MOL   C27430864   7.554   3.550   7.327 -0.4069 -0.3634 -0.0430
   96MOL   C27530865   7.628   3.513   7.193  0.0709  0.4478  0.1681
   96MOL   C27630866   7.571   3.603   7.080  0.0284  0.2802  0.1010
   96MOL   O27730867   7.454   3.594   7.036 -0.3064 -0.1904 -0.2271
   96MOL   N27830868   7.652   3.700   7.027  0.7564 -0.6203  0.5104
   96MOL   C27930869   7.795   3.721   7.066  0.6205  0.4457 -0.3323
   96MOL   C28030870   7.601   3.804   6.936  0.9296 -0.3807 -0.3025
   96MOL   H28130871   7.561   3.470   7.401 -1.6003  1.4191  2.0115
   96MOL   H28230872   7.448   3.552   7.303 -0.2586 -1.4542 -0.8655
   96MOL   H28330873   7.736   3.525   7.209 -0.0369  1.7479  0.0303
   96MOL   H28430874   0.004   3.637   7.033 -1.4609 -0.9722 -0.7684
   96MOL   H28530875   7.840   3.812   7.026  1.4898  0.5004  0.7564
   96MOL   H28630876   7.815   3.731   7.173  1.4573 -1.7569 -0.2598
   96MOL   H28730877   7.645   3.899   6.968  0.8180 -0.3743 -0.1679
   96MOL   H28830878   7.493   3.816   6.936  1.1474  2.1140  2.3803
   96MOL   H28930879   7.620   3.798   6.829 -1.3644 -0.5432 -0.7207
   96MOL   C29030880   7.594   3.361   7.163  0.5363  0.0377 -0.0713
   96MOL   C29130881   7.677   3.306   7.041  0.5879  0.2033  0.7887
   96MOL   C29230882   7.593   3.188   6.973  0.0914 -1.0738  0.1425
   96MOL   O29330883   7.610   3.073   7.015  0.0796  0.3157 -1.1050
   96MOL   N29430884   7.509   3.212   6.870  0.1058 -0.1821  0.4861
   96MOL   C29530885   7.437   3.104   6.809 -0.6622  0.3187  0.1465
   96MOL   C29630886   7.486   3.345   6.804  0.2814 -0.1157 -0.3609
   96MOL   H29730887   7.608   3.304   7.255  0.9411  3.2387  1.9284
   96MOL   H29830888   7.487   3.356   7.140  0.6226  0.5049 -0.5817
   96MOL   H29930889   7.687   3.372   6.955  1.3205  0.5745  1.1590
   96MOL   H30030890   7.372   3.139   6.729  0.3340  1.1342 -0.3047
   96MOL   H30130891   7.494   3.016   6.780 -3.2825 -1.4210  0.0913
   96MOL   H30230892   7.376   3.065   6.891  1.1677 -0.0449  1.3758
   96MOL   H30330893   7.415   3.338   6.722  0.2063  3.6104 -0.6948
   96MOL   H30430894   7.579   3.381   6.760  0.0665 -0.3538 -1.0059
   96MOL   H30530895   7.458   3.424   6.874  0.4251  0.7879 -1.3167
   96MOL   C30630896   7.819   3.266   7.082  0.0854 -0.5373 -0.4199
   96MOL   C30730897   0.055   3.184   6.983 -0.1392  0.0943 -0.1956
   96MOL   C30830898   0.172   3.112   7.049  0.0662  0.6942 -0.7860
   96MOL   O30930899   0.273   3.179   7.073  0.0850  0.8251  0.5197
   96MOL   N31030900   0.170   2.979   7.068 -0.5940  0.8259 -0.7706
   96MOL   C31130901   0.283   2.910   7.123  0.2932 -0.8676 -0.1635
   96MOL   C31230902   0.048   2.896   7.057  0.0213 -0.1579  0.8621
   96MOL   H31330903   0.015   3.357   7.117 -0.8796  1.1507 -3.2821
   96MOL   H31430904   7.807   3.207   7.173 -0.8545  1.7061  0.9631
   96MOL   H31530905   0.003   3.119   6.912 -0.6453 -0.3913  0.6070
   96MOL   H31630906   0.355   2.914   7.042  0.4581 -1.8227 -0.0722
   96MOL   H31730907   0.320   2.967   7.208 -0.9162  0.9602 -0.8414
   96MOL   H31830908   0.267   2.812   7.168  2.0264 -0.1267  2.1323
   96MOL   H31930909   7.845   2.905   6.964  0.9098  1.8443  0.5076
   96MOL   H32030910   7.839   2.937   7.136 -1.3788  0.0421 -0.3109
   96MOL   H32130911   0.056   2.789   7.078 -1.5027 -0.6608 -0.9471
   96MOL   H32230912   0.096   3.266   6.924 -1.0396  0.9242  0.3205
   97MOL     C130913   5.700   4.607   1.210  0.2202  0.0857  0.3395
   97MOL     C230914   5.772   4.490   1.292 -0.7489 -0.2353 -0.1970
   97MOL     C330915   5.736   4.497   1.441 -0.4271  0.6198  0.2520
   97MOL     O430916   5.752   4.605   1.497  0.0545  0.5190 -0.4399
   97MOL     N530917   5.683   4.393   1.502  0.8538  0.1039  0.4784
   97MOL     C630918   5.640   4.412   1.645 -0.3955  0.5875  0.0008
   97MOL     C730919   5.671   4.255   1.443  0.3206 -0.1118  0.0798
   97MOL     H830920   5.701   4.704   1.259 -3.6269  0.0218  0.6443
   97MOL     H930921   5.599   4.577   1.182 -0.4424  0.5588  2.1484
   97MOL    H1030922   5.734   4.398   1.247 -0.5568 -1.1260  1.4405
   97MOL    H1130923   5.720   4.453   1.706  0.7432 -3.6699  1.5129
   97MOL    H1230924   5.553   4.478   1.646  0.6937  2.1133 -1.5279
   97MOL    H1330925   5.613   4.317   1.690  1.1632 -0.6354 -1.5874
   97MOL    H1430926   5.598   4.261   1.363 -0.1109 -0.5443  0.4375
   97MOL    H1530927   5.640   4.176   1.512  1.8417  0.3564  1.3463
   97MOL    H1630928   5.758   4.224   1.386 -0.4548  1.1343 -1.8108
   97MOL    H1730929   5.740   4.623   1.109 -0.8001  0.7382  0.0379
   97MOL    C1830930   5.928   4.491   1.276 -0.1769 -0.4722 -0.2701
   97MOL    C1930931   5.989   4.462   1.139  0.3363 -0.7639  0.2062
   97MOL    C2030932   5.949   4.325   1.087  0.0777 -0.9867 -0.3820
   97MOL    O2130933   5.992   4.222   1.143 -0.6604  0.2358 -0.6026
   97MOL    N2230934   5.847   4.317   0.996  0.0009  0.5558 -0.0579
   97MOL    C2330935   5.774   4.184   0.980  0.0515 -0.4030 -0.3253
   97MOL    C2430936   5.798   4.418   0.907  0.7649  0.1699 -0.6237
   97MOL    H2530937   5.967   4.581   1.323  1.0861 -1.7293  1.1526
   97MOL    H2630938   5.972   4.408   1.331 -1.4697 -0.7355  0.3821
   97MOL    H2730939   5.957   4.546   1.078  0.6227 -0.3915  0.5690
   97MOL    H2830940   5.683   4.203   0.924 -0.2572 -0.9532 -0.0170
   97MOL    H2930941   5.830   4.109   0.923  1.5516  0.7895 -0.4373
   97MOL    H3030942   5.748   4.149   1.080 -1.8578 -1.7452 -1.2514
   97MOL    H3130943   5.729   4.485   0.960 -0.5679 -0.7875 -1.1000
   97MOL    H3230944   5.759   4.377   0.814  0.8245 -1.9254  0.2423
   97MOL    H3330945   5.878   4.485   0.876  0.4340 -0.0108 -1.9012
   97MOL    C3430946   6.142   4.461   1.161  0.1400 -0.3116 -0.3674
   97MOL    C3530947   6.222   4.514   1.037  0.3803  0.1570 -0.8599
   97MOL    C3630948   6.191   4.660   0.990 -0.1567  0.5880  0.5810
   97MOL    O3730949   6.123   4.685   0.894  0.5008 -0.7032 -0.5524
   97MOL    N3830950   6.234   4.758   1.071  0.1994 -0.4856  0.4678
   97MOL    C3930951   6.327   4.748   1.183  0.0667  0.6656 -0.2303
   97MOL    C4030952   6.192   4.894   1.054  0.0766  0.1433 -0.0756
   97MOL    H4130953   6.153   4.529   1.246  0.1064  0.1156 -0.7053
   97MOL    H4230954   6.188   4.370   1.199 -1.5101 -0.4646  1.3386
   97MOL    H4330955   6.326   4.517   1.071 -0.4020  0.7420  1.6004
   97MOL    H4430956   6.403   4.823   1.207  1.7979 -0.2648 -2.6047
   97MOL    H4530957   6.262   4.722   1.267  1.6696 -1.3319  0.4453
   97MOL    H4630958   6.397   4.666   1.167  0.7346  1.4801 -1.5580
   97MOL    H4730959   6.228   4.968   1.126  0.5365 -1.3557  1.2714
   97MOL    H4830960   6.084   4.895   1.064 -0.0973 -1.4968 -1.5706
   97MOL    H4930961   6.230   4.920   0.955  0.4991 -3.1949 -0.8322
   97MOL    C5030962   6.222   4.416   0.920  0.2796 -0.0532 -0.6532
   97MOL    C5130963   6.285   4.272   0.933  0.0153 -0.8220  0.0119
   97MOL    C5230964   6.424   4.273   1.003  0.0479 -0.2770  0.0919
   97MOL    O5330965   6.511   4.350   0.960 -0.0608  0.2118 -0.6561
   97MOL    N5430966   6.456   4.184   1.102  0.0752  0.0226 -0.2682
   97MOL    C5530967   6.590   4.190   1.147 -0.0942  0.7186  0.3546
   97MOL    C5630968   6.367   4.091   1.168  0.2552  0.4697 -0.0604
   97MOL    H5730969   6.124   4.406   0.875  0.3100 -0.0072 -0.7307
   97MOL    H5830970   6.277   4.464   0.838  1.8098  1.2451  1.0784
   97MOL    H5930971   6.216   4.218   0.997 -2.6547 -1.3046 -3.1056
   97MOL    H6030972   6.607   4.152   1.248 -1.5098  1.4173  0.8736
   97MOL    H6130973   6.663   4.134   1.088 -0.5053  2.1895 -1.5969
   97MOL    H6230974   6.631   4.289   1.161  0.3463  0.7823 -1.2516
   97MOL    H6330975   6.299   4.155   1.225  0.0924 -1.5595  2.0394
   97MOL    H6430976   6.424   4.024   1.232 -0.2557 -1.2521 -1.3746
   97MOL    H6530977   6.322   4.036   1.085  0.9067  1.7370 -1.2799
   97MOL    C6630978   6.298   4.198   0.796  0.3350  0.3714 -0.1542
   97MOL    C6730979   6.182   4.101   0.766  0.3994 -0.8168 -0.4468
   97MOL    C6830980   6.239   3.985   0.680 -0.0251 -0.5376  0.6861
   97MOL    O6930981   6.319   4.020   0.586 -0.0741  0.3581  0.0473
   97MOL    N7030982   6.194   3.854   0.695  0.3287 -0.3565  0.3365
   97MOL    C7130983   6.255   3.752   0.608  0.1535  0.7020  0.6612
   97MOL    C7230984   6.117   3.806   0.812  0.0429  1.0576  0.0855
   97MOL    H7330985   6.302   4.266   0.711  1.6079 -2.1472 -2.1642
   97MOL    H7430986   6.393   4.146   0.789  0.8685  1.2646  0.3428
   97MOL    H7530987   6.143   4.060   0.859 -0.1022  1.8665  0.5695
   97MOL    H7630988   6.176   3.677   0.595  1.1513 -0.0802 -1.0736
   97MOL    H7730989   6.297   3.785   0.513 -0.0492  1.3652  0.8047
   97MOL    H7830990   6.333   3.696   0.659  1.4873  1.5591 -0.4069
   97MOL    H7930991   6.180   3.785   0.899  2.0862  0.4019 -1.5120
   97MOL    H8030992   6.075   3.711   0.778  4.2098 -1.0929  0.6014
   97MOL    H8130993   6.030   3.864   0.844  0.0662  2.7474 -2.7220
   97MOL    C8230994   6.060   4.171   0.712  0.4485  0.2968  0.5882
   97MOL    C8330995   6.060   4.227   0.565  0.6878 -0.1014  0.1887
   97MOL    C8430996   6.124   4.371   0.561  0.2420  0.3394 -0.1113
   97MOL    O8530997   6.059   4.460   0.618 -0.1264  0.4015  0.2498
   97MOL    N8630998   6.226   4.412   0.484  0.3749  0.8968  0.1792
   97MOL    C8730999   6.318   4.309   0.436  0.0925 -0.1884  0.7601
   97MOL    C8831000   6.267   4.550   0.468 -0.6007 -0.3296  0.4078
   97MOL    H8931001   5.976   4.101   0.720  0.1030 -0.0353 -4.2861
   97MOL    H9031002   6.016   4.241   0.783 -0.4301  1.1999 -0.8183
   97MOL    H9131003   6.093   4.155   0.491 -0.7265 -0.1113 -0.4419
   97MOL    H9231004   6.408   4.360   0.403  0.3813 -1.0927  0.1360
   97MOL    H9331005   6.341   4.224   0.501 -1.1670  0.1160  1.6392
   97MOL    H9431006   6.279   4.265   0.344 -0.8966  0.7330  0.7275
   97MOL    H9531007   6.290   4.553   0.362 -0.1707 -2.0886  0.4465
   97MOL    H9631008   6.359   4.560   0.525 -0.7086  0.2937  0.4824
   97MOL    H9731009   6.192   4.620   0.505  0.7397  0.6658  1.3031
   97MOL    C9831010   5.906   4.249   0.521 -0.2593 -0.0811 -1.1323
   97MOL    C9931011   5.875   4.324   0.383  0.6467 -0.0516 -0.4265
   97MOL   C10031012   5.720   4.350   0.385 -0.4781  0.2258 -0.8096
   97MOL   O10131013   5.650   4.263   0.335 -0.2587  0.4430 -0.4683
   97MOL   N10231014   5.660   4.451   0.447  0.2308 -0.0913 -0.0589
   97MOL   C10331015   5.516   4.436   0.475  0.5732  0.1374 -0.3387
   97MOL   C10431016   5.735   4.548   0.524 -0.5856 -0.6060  0.4572
   97MOL   H10531017   5.875   4.145   0.507 -0.1494 -0.0203 -1.8069
   97MOL   H10631018   5.854   4.280   0.612  0.6071 -2.8236  0.3833
   97MOL   H10731019   5.926   4.420   0.389  0.6697 -0.0487 -0.6882
   97MOL   H10831020   5.488   4.526   0.529 -0.6882  0.3701 -1.3340
   97MOL   H10931021   5.449   4.437   0.389  1.4427  0.2424 -1.0221
   97MOL   H11031022   5.497   4.354   0.543  0.5047  0.7973  0.4427
   97MOL   H11131023   5.772   4.505   0.617  1.0802 -1.2062 -0.4654
   97MOL   H11231024   5.664   4.629   0.541  0.6299  0.3224  1.2074
   97MOL   H11331025   5.814   4.600   0.470  2.4339 -2.3908  2.9970
   97MOL   C11431026   5.925   4.248   0.264  0.1397 -0.0940 -0.0771
   97MOL   C11531027   5.910   4.303   0.122  0.1880  0.6492 -0.2907
   97MOL   C11631028   5.920   4.184   0.030  0.2667 -0.4888 -0.4949
   97MOL   O11731029   6.032   4.128   0.020 -0.4442  0.1249  0.8364
   97MOL   N11831030   5.819   4.141   7.805 -0.1001 -0.1712 -0.1937
   97MOL   C11931031   5.677   4.182   7.813 -0.5283  0.3565 -0.4294
   97MOL   C12031032   5.843   4.045   7.697  0.1982 -0.3706 -0.4564
   97MOL   H12131033   6.032   4.233   0.277  0.0793  0.9936  1.7785
   97MOL   H12231034   5.889   4.145   0.262 -0.0276 -0.0535  0.8334
   97MOL   H12331035   5.811   4.348   0.111  0.2918  1.0410  0.3629
   97MOL   H12431036   5.633   4.138   0.049 -1.4389  2.1171  0.0143
   97MOL   H12531037   5.659   4.290   7.806  0.1746  0.3062 -3.3016
   97MOL   H12631038   5.620   4.133   7.734  1.1671 -2.4061 -0.0112
   97MOL   H12731039   5.770   3.965   7.708 -0.6302  0.6475  1.7653
   97MOL   H12831040   5.943   4.002   7.688  0.2395 -0.3218 -0.2409
   97MOL   H12931041   5.821   4.087   7.599  0.1844 -0.1233 -0.3480
   97MOL   C13031042   6.018   4.412   0.096 -0.1784 -0.5988 -0.0974
   97MOL   C13131043   5.967   4.550   0.038  0.3056  0.2242  1.0481
   97MOL   C13231044   5.910   4.643   0.149  0.4895  0.0035  0.7783
   97MOL   O13331045   5.814   4.607   0.215 -0.4368  0.2442 -0.2485
   97MOL   N13431046   5.979   4.760   0.176 -0.5693 -0.4543  0.7772
   97MOL   C13531047   6.106   4.807   0.128  1.0241  0.2291 -0.4363
   97MOL   C13631048   5.931   4.843   0.289 -0.5487  0.0708  0.2092
   97MOL   H13731049   6.071   4.433   0.189  0.8339 -2.2620 -0.2698
   97MOL   H13831050   6.095   4.370   0.031  0.1559 -1.2406  0.6947
   97MOL   H13931051   6.054   4.593   7.841 -1.3868  1.8679 -0.5103
   97MOL   H14031052   6.166   4.725   0.089  2.4060  0.9491  0.1255
   97MOL   H14131053   6.098   4.886   0.053  0.5638  0.1611 -0.4647
   97MOL   H14231054   6.172   4.863   0.194  0.9889 -1.8155  1.3826
   97MOL   H14331055   5.926   4.949   0.264  0.6641  0.0762 -0.0572
   97MOL   H14431056   5.995   4.833   0.376 -0.5256  1.3898  0.3581
   97MOL   H14531057   5.826   4.820   0.308 -0.1234 -0.5678  1.8342
   97MOL   C14631058   5.865   4.526   7.783 -0.2207  0.6043  0.7330
   97MOL   C14731059   5.874   4.604   7.654 -0.5018 -0.5378  0.0200
   97MOL   C14831060   5.832   4.755   7.672  0.5432 -0.1158  0.4001
   97MOL   O14931061   5.719   4.787   7.698 -0.0839  0.1713 -0.0776
   97MOL   N15031062   5.923   4.852   7.658  0.5413  0.0985  0.3499
   97MOL   C15131063   5.886   4.986   7.707  0.8229 -0.1187 -0.2251
   97MOL   C15231064   6.042   4.845   7.584  0.7060  0.5001  0.7623
   97MOL   H15331065   5.887   4.426   7.744 -1.0530  0.5617  0.3404
   97MOL   H15431066   5.764   4.535   7.824 -0.9371  2.1476 -1.2380
   97MOL   H15531067   5.980   4.602   7.630 -0.9524 -1.4654 -1.9646
   97MOL   H15631068   5.969   5.057   7.712 -0.2499  1.1970 -0.8967
   97MOL   H15731069   5.810   5.022   7.638  0.0953 -2.8642 -0.9157
   97MOL   H15831070   5.843   4.984   7.806  1.5836 -0.3804  0.1077
   97MOL   H15931071   6.071   4.938   7.536  1.6216  0.2658  0.8493
   97MOL   H16031072   6.028   4.782   7.496 -1.7113 -2.2550  3.0030
   97MOL   H16131073   6.125   4.811   7.646  0.5615  1.9807  1.7909
   97MOL   C16231074   5.787   4.542   7.549 -0.0440  0.0053  0.6174
   97MOL   C16331075   5.790   4.597   7.401 -0.1961  0.3405  0.5336
   97MOL   C16431076   5.663   4.686   7.363 -0.0752 -0.1784 -0.2042
   97MOL   O16531077   5.557   4.632   7.388  0.3505 -0.3087 -0.4643
   97MOL   N16631078   5.676   4.810   7.315 -0.0082 -0.1265  0.4731
   97MOL   C16731079   5.555   4.882   7.275  0.5332  0.3843  0.2480
   97MOL   C16831080   5.796   4.886   7.283 -0.3458  0.6548 -0.5654
   97MOL   H16931081   5.808   4.435   7.553  0.6580  0.1295  0.3261
   97MOL   H17031082   5.685   4.545   7.586 -0.5150  1.1873 -0.7351
   97MOL   H17131083   5.875   4.665   7.399 -0.0968  0.2039  0.0704
   97MOL   H17231084   5.533   4.853   7.173 -2.6327  0.1389  0.9352
   97MOL   H17331085   5.471   4.860   7.341  1.2627  1.8552  1.6921
   97MOL   H17431086   5.570   4.990   7.280  0.9423  0.3787 -0.8191
   97MOL   H17531087   5.846   4.906   7.378 -2.6003 -2.7412  1.4304
   97MOL   H17631088   5.778   4.982   7.235  0.0099  0.8933 -0.2282
   97MOL   H17731089   5.873   4.828   7.232  0.1541  1.9432 -1.3201
   97MOL   C17831090   5.829   4.488   7.296  0.1031 -0.1074 -0.0661
   97MOL   C17931091   5.885   4.537   7.157 -0.1667  0.9077  0.2570
   97MOL   C18031092   5.779   4.577   7.051  0.2536  0.2189  0.1010
   97MOL   O18131093   5.672   4.513   7.052 -0.4339 -0.1547 -0.4007
   97MOL   N18231094   5.804   4.678   6.967 -0.2883 -0.2311 -0.1698
   97MOL   C18331095   5.707   4.724   6.870 -0.5505  0.2736  0.5415
   97MOL   C18431096   5.936   4.743   6.948 -0.1979  0.0288  0.2301
   97MOL   H18531097   5.905   4.427   7.344  0.4957  0.1380 -0.3641
   97MOL   H18631098   5.737   4.430   7.291  0.7365 -1.3187  2.0289
   97MOL   H18731099   5.949   4.620   7.188  1.0535  0.7460 -1.7594
   97MOL   H18831100   5.695   4.659   6.783 -3.1143  0.4307  0.7409
   97MOL   H18931101   5.608   4.724   6.916 -0.2898  0.2548  1.1043
   97MOL   H19031102   5.723   4.825   6.835 -1.2487 -0.4313 -1.9088
   97MOL   H19131103   5.952   4.799   6.856 -3.1591 -0.4754 -0.6242
   97MOL   H19231104   6.011   4.664   6.952  0.8855  1.1244  2.9080
   97MOL   H19331105   5.957   4.798   7.040  1.2721 -1.7771  1.0103
   97MOL   C19431106   5.979   4.421   7.103 -0.0543  0.2431  0.7517
   97MOL   C19531107   5.919   4.295   7.037 -0.2243  0.1342  0.3959
   97MOL   C19631108   5.850   4.201   7.141  0.5018 -0.2730 -0.2172
   97MOL   O19731109   5.906   4.191   7.246 -0.1986  0.4245 -0.3796
   97MOL   N19831110   5.734   4.140   7.111 -0.7552 -0.1541  0.1801
   97MOL   C19931111   5.656   4.166   6.989  0.7254 -0.0435 -0.0564
   97MOL   C20031112   5.663   4.053   7.206  0.2341  0.0849  0.0180
   97MOL   H20131113   6.047   4.467   7.031  0.0396 -1.0304  0.0183
   97MOL   H20231114   6.042   4.395   7.188 -0.8935  0.6219  1.4995
   97MOL   H20331115   5.845   4.321   6.961 -2.1737 -1.6858  1.5966
   97MOL   H20431116   5.715   4.166   6.897  0.2429 -1.6833 -0.3865
   97MOL   H20531117   5.579   4.090   6.974 -0.1471  0.8197  0.0009
   97MOL   H20631118   5.613   4.266   6.998  1.7342  0.5362 -1.5696
   97MOL   H20731119   5.652   4.106   7.301 -1.1411 -0.9819  0.4658
   97MOL   H20831120   5.718   3.961   7.228  0.9442  0.3477 -0.6596
   97MOL   H20931121   5.564   4.019   7.175 -0.3081  0.8629  0.8565
   97MOL   C21031122   6.028   4.221   6.956  0.2912 -0.5767  0.1298
   97MOL   C21131123   6.035   4.242   6.805  0.1374  0.5226 -0.1827
   97MOL   C21231124   6.143   4.139   6.751  0.2591 -0.2166  0.0563
   97MOL   O21331125   6.261   4.167   6.756 -0.1700  0.1744 -0.8301
   97MOL   N21431126   6.111   4.019   6.706 -0.4331  0.1707 -0.5604
   97MOL   C21531127   5.972   3.982   6.674 -0.6364  0.2271  0.0161
   97MOL   C21631128   6.209   3.916   6.670  0.2603 -0.3526 -0.0494
   97MOL   H21731129   6.121   4.255   7.002 -0.7815  1.1626  1.0988
   97MOL   H21831130   6.016   4.114   6.968  1.1819 -0.4539  2.2226
   97MOL   H21931131   5.938   4.214   6.762  0.7780  1.7369 -2.4825
   97MOL   H22031132   5.959   3.891   6.615  2.1509 -0.6418  0.6474
   97MOL   H22131133   5.916   3.965   6.765 -0.3780  0.4383  0.2154
   97MOL   H22231134   5.922   4.062   6.619  0.2359  0.2432 -0.7715
   97MOL   H22331135   6.293   3.916   6.741 -0.5108 -1.4066  0.8815
   97MOL   H22431136   6.258   3.945   6.577 -0.3912  2.2928  0.3969
   97MOL   H22531137   6.178   3.813   6.651  0.2622 -0.3786  0.0804
   97MOL   C22631138   6.073   4.390   6.784  0.1705  0.6422 -0.0231
   97MOL   C22731139   6.079   4.434   6.633  0.1509 -0.6545 -0.0500
   97MOL   C22831140   6.196   4.531   6.619 -0.1193  0.1668  0.1488
   97MOL   O22931141   6.189   4.639   6.680 -0.8403  0.4512  0.1140
   97MOL   N23031142   6.299   4.496   6.537 -0.1436  0.1620  0.2316
   97MOL   C23131143   6.407   4.589   6.524  0.0265  0.1392 -0.4856
   97MOL   C23231144   6.310   4.368   6.473 -0.1624 -0.3285  0.4216
   97MOL   H23331145   5.995   4.451   6.831  0.3883 -0.4010  1.7543
   97MOL   H23431146   6.165   4.413   6.838  0.0974 -1.2249  0.9592
   97MOL   H23531147   6.079   4.345   6.571  0.3097 -1.3572  0.9354
   97MOL   H23631148   6.436   4.636   6.618  1.6348 -1.1344 -0.3255
   97MOL   H23731149   6.501   4.553   6.483  0.5990  2.6239 -1.3950
   97MOL   H23831150   6.381   4.676   6.463 -0.4177 -0.3422 -0.9931
   97MOL   H23931151   6.248   4.341   6.387  0.4354  0.3100 -0.2139
   97MOL   H24031152   6.304   4.292   6.551  0.2929 -1.7363 -0.8786
   97MOL   H24131153   6.414   4.365   6.441 -0.4788  0.2031 -0.6965
   97MOL   C24231154   5.942   4.503   6.590 -0.1907 -0.0400 -0.0238
   97MOL   C24331155   5.908   4.515   6.436 -0.2903  0.3974 -0.0669
   97MOL   C24431156   5.985   4.638   6.382 -0.3858  0.8291 -1.1971
   97MOL   O24531157   5.961   4.752   6.436 -0.2533 -0.2587  0.1348
   97MOL   N24631158   6.062   4.634   6.268 -0.3489  0.5099 -0.1787
   97MOL   C24731159   6.080   4.520   6.180  0.1999  0.3862 -0.2545
   97MOL   C24831160   6.117   4.762   6.214 -0.4332 -0.2277  0.4479
   97MOL   H24931161   5.870   4.431   6.629 -0.3899 -0.0297 -0.3703
   97MOL   H25031162   5.920   4.599   6.636  1.2414  0.5011 -0.4419
   97MOL   H25131163   5.948   4.422   6.395 -0.8290  0.2663 -0.3012
   97MOL   H25231164   6.037   4.422   6.202  0.7620  0.6403  2.0426
   97MOL   H25331165   6.036   4.551   6.085 -0.2860  0.0880 -0.1286
   97MOL   H25431166   6.188   4.506   6.181  0.7080  3.7260 -1.6027
   97MOL   H25531167   6.071   4.781   6.117  2.5780  4.4786 -0.2289
   97MOL   H25631168   6.225   4.751   6.212 -0.5293 -1.2631  0.4072
   97MOL   H25731169   6.102   4.851   6.275 -2.7576 -0.9021  0.9089
   97MOL   C25831170   5.757   4.535   6.417  0.5759 -0.3320  0.0780
   97MOL   C25931171   5.723   4.513   6.262 -0.3158  0.1133  0.4856
   97MOL   C26031172   5.636   4.630   6.201 -0.0831  0.5299  0.0224
   97MOL   O26131173   5.535   4.661   6.263  0.1688  0.7641  0.5400
   97MOL   N26231174   5.669   4.690   6.085  0.1621  0.1632  0.4047
   97MOL   C26331175   5.783   4.647   6.001 -0.0454 -0.4866 -0.4148
   97MOL   C26431176   5.590   4.800   6.027  0.7549 -0.5863  0.5095
   97MOL   H26531177   5.704   4.455   6.468  0.2727  0.0273  0.3236
   97MOL   H26631178   5.729   4.630   6.462 -0.3806 -0.7901  0.4714
   97MOL   H26731179   5.816   4.501   6.207  0.8830  2.2810  1.9433
   97MOL   H26831180   5.878   4.690   6.034 -0.3794  0.7324 -0.9862
   97MOL   H26931181   5.782   4.539   5.986 -2.3091 -0.4088 -0.9442
   97MOL   H27031182   5.769   4.688   5.900 -1.8838 -1.0918 -0.4168
   97MOL   H27131183   5.508   4.844   6.083  0.4574  0.4227 -0.7210
   97MOL   H27231184   5.536   4.758   5.943 -0.3593  2.2101 -0.2231
   97MOL   H27331185   5.651   4.875   5.978 -0.5963  0.2221  0.0596
   97MOL   C27431186   5.639   4.386   6.232  0.8327  1.2257  0.3639
   97MOL   C27531187   5.719   4.255   6.257 -0.2379 -0.2233 -0.0247
   97MOL   C27631188   5.835   4.226   6.155 -0.3556  0.1321  0.2529
   97MOL   O27731189   5.830   4.271   6.041  0.2173 -0.5522  0.6909
   97MOL   N27831190   5.942   4.144   6.188  0.2503 -0.3282 -0.1788
   97MOL   C27931191   6.036   4.094   6.090  0.0301  0.0266  0.1882
   97MOL   C28031192   5.983   4.127   6.330  0.5599  0.1547  0.5584
   97MOL   H28131193   5.554   4.394   6.300  2.0554 -3.5129  2.6457
   97MOL   H28231194   5.615   4.380   6.126  1.6973 -1.9446  0.2859
   97MOL   H28331195   5.764   4.268   6.356  2.0336 -2.0001 -0.7669
   97MOL   H28431196   6.116   4.160   6.056 -0.2950 -1.5055 -3.8276
   97MOL   H28531197   6.080   3.999   6.120  1.4311  0.9419  1.0736
   97MOL   H28631198   5.983   4.081   5.995 -1.7943  2.6863  0.7826
   97MOL   H28731199   6.054   4.044   6.333 -1.1809 -1.4149 -0.9791
   97MOL   H28831200   5.911   4.107   6.409  1.4079 -2.3298  0.7607
   97MOL   H28931201   6.038   4.215   6.363 -2.2006  1.9262  0.6044
   97MOL   C29031202   5.628   4.131   6.268 -0.6168 -0.1008  0.0444
   97MOL   C29131203   5.531   4.122   6.390 -0.4079  0.4065  0.3673
   97MOL   C29231204   5.593   4.173   6.524  0.0782  0.1334 -0.2435
   97MOL   O29331205   5.702   4.127   6.561 -0.2738  0.6330 -0.2559
   97MOL   N29431206   5.525   4.269   6.594  0.3561 -0.5166 -0.1521
   97MOL   C29531207   5.393   4.323   6.551 -0.3244 -0.1065  0.2935
   97MOL   C29631208   5.582   4.335   6.713  1.1252  0.0810 -0.3747
   97MOL   H29731209   5.580   4.119   6.171 -2.0709  0.6777  0.6501
   97MOL   H29831210   5.698   4.049   6.282 -0.6302  0.0764  1.1877
   97MOL   H29931211   5.451   4.188   6.357 -0.3494 -0.2757 -1.1671
   97MOL   H30031212   5.351   4.373   6.638 -1.7505  0.5654 -0.7513
   97MOL   H30131213   5.402   4.398   6.472 -1.6701  1.1930  1.3638
   97MOL   H30231214   5.325   4.243   6.523 -0.2902  0.5107 -1.6617
   97MOL   H30331215   5.523   4.318   6.803  1.9846 -2.2211 -0.2159
   97MOL   H30431216   5.587   4.443   6.696  1.0881 -0.0208 -1.0585
   97MOL   H30531217   5.684   4.304   6.737  1.8848  2.9069  0.1975
   97MOL   C30631218   5.470   3.985   6.412 -0.3603 -0.1967 -0.1866
   97MOL   C30731219   5.416   3.910   6.289 -0.3871 -0.1176  0.1618
   97MOL   C30831220   5.399   3.760   6.320  0.3377 -0.0650  0.0013
   97MOL   O30931221   5.481   3.709   6.393  0.1845  0.7189 -0.5215
   97MOL   N31031222   5.300   3.687   6.267 -0.2326  0.0524  0.3537
   97MOL   C31131223   5.264   3.553   6.322 -0.0104  0.6579 -0.5115
   97MOL   C31231224   5.192   3.754   6.196  0.6850  0.2762 -0.3843
   97MOL   H31331225   5.558   3.934   6.451 -0.0043  0.4460 -0.1490
   97MOL   H31431226   5.393   3.981   6.488 -0.0985 -0.9278  0.0465
   97MOL   H31531227   5.329   3.957   6.243 -1.3008 -1.8128  0.1302
   97MOL   H31631228   5.305   3.539   6.422 -2.4529  1.0195  0.5616
   97MOL   H31731229   5.156   3.541   6.327  0.1038 -0.4283 -0.6573
   97MOL   H31831230   5.303   3.480   6.251 -1.5586  1.3955 -2.1532
   97MOL   H31931231   5.123   3.674   6.168  1.1314 -0.3297  0.2303
   97MOL   H32031232   5.223   3.804   6.104 -0.9167  1.5440 -0.2585
   97MOL   H32131233   5.143   3.832   6.254  1.7041  1.3741 -0.9758
   97MOL   H32231234   5.487   3.923   6.207  0.2976  1.5766  0.9737
   98MOL     C131235   6.509   6.658   2.033  0.3375  0.7400 -0.1137
   98MOL     C231236   6.544   6.808   2.019  0.0152  0.2088  0.2723
   98MOL     C331237   6.687   6.836   2.073 -0.2310  0.4094 -0.4945
   98MOL     O431238   6.723   6.769   2.174 -0.6700  0.1713  0.1472
   98MOL     N531239   6.770   6.926   2.013 -0.4564  0.8243 -0.7179
   98MOL     C631240   6.904   6.949   2.071 -0.1286 -0.2075  0.5261
   98MOL     C731241   6.743   6.985   1.878 -0.0956 -0.0449 -0.2087
   98MOL     H831242   6.560   6.605   2.113  2.0214  1.5721 -0.6150
   98MOL     H931243   6.534   6.623   1.933  3.6985  0.6541  0.7030
   98MOL    H1031244   6.545   6.831   1.912  1.0237 -2.2584 -0.2716
   98MOL    H1131245   6.896   6.971   2.178 -1.1991  1.4338  0.1222
   98MOL    H1231246   6.972   6.864   2.065 -0.4629 -0.3397 -1.8706
   98MOL    H1331247   6.953   7.038   2.031  0.1235 -1.2673 -1.5819
   98MOL    H1431248   6.759   6.919   1.792 -2.4357  0.0479 -0.7613
   98MOL    H1531249   6.814   7.066   1.858  0.7358 -0.4931  0.9244
   98MOL    H1631250   6.643   7.028   1.869 -0.1716 -0.7224 -3.3279
   98MOL    H1731251   6.401   6.646   2.043  0.2459  0.4272 -1.4191
   98MOL    C1831252   6.437   6.893   2.091 -0.1962 -0.6362  0.4383
   98MOL    C1931253   6.301   6.902   2.021  0.7016  0.2202  0.2096
   98MOL    C2031254   6.317   6.994   1.891  0.2295 -0.1663 -1.0136
   98MOL    O2131255   6.349   7.119   1.912 -0.5899 -0.0243  0.4834
   98MOL    N2231256   6.316   6.939   1.772  0.1229  0.4016  0.6779
   98MOL    C2331257   6.361   7.009   1.652 -0.2302  0.4403  0.0304
   98MOL    C2431258   6.280   6.797   1.745  0.2104  0.6146  0.2542
   98MOL    H2531259   6.428   6.867   2.197  0.0518  0.3297  0.7075
   98MOL    H2631260   6.480   6.994   2.093 -0.8640 -0.3356  0.0348
   98MOL    H2731261   6.261   6.804   1.996 -1.3818  0.9978  0.4174
   98MOL    H2831262   6.407   6.942   1.579  0.9602 -0.8275  1.8815
   98MOL    H2931263   6.272   7.037   1.596 -1.2357  1.7471  2.2258
   98MOL    H3031264   6.426   7.093   1.677  0.3656 -1.0673  3.9147
   98MOL    H3131265   6.195   6.770   1.807 -2.3708  1.4841 -2.7814
   98MOL    H3231266   6.360   6.724   1.754 -1.2607 -1.0458  0.1497
   98MOL    H3331267   6.241   6.787   1.644 -0.5335  1.6409  0.4378
   98MOL    C3431268   6.193   6.967   2.118  0.3566  0.1060  0.4295
   98MOL    C3531269   6.054   6.966   2.051  0.0902  0.0944 -0.2349
   98MOL    C3631270   5.992   7.106   2.058  0.2326  0.2374 -0.4185
   98MOL    O3731271   5.997   7.173   2.161 -0.1621 -0.5192  0.6280
   98MOL    N3831272   5.927   7.150   1.946 -0.2703 -0.2076  0.4141
   98MOL    C3931273   5.940   7.099   1.807  0.1719 -0.5403  0.7549
   98MOL    C4031274   5.842   7.269   1.959 -0.5644  0.5304 -0.1092
   98MOL    H4131275   6.195   6.937   2.223 -1.7452  0.6311  0.6330
   98MOL    H4231276   6.237   7.065   2.137 -0.1617  0.1754  1.3083
   98MOL    H4331277   6.062   6.921   1.952  1.3956  0.1300 -0.1503
   98MOL    H4431278   6.031   7.044   1.783 -0.0888 -1.1232  1.0784
   98MOL    H4531279   5.865   7.020   1.805  0.3003 -0.6149 -1.4772
   98MOL    H4631280   5.926   7.170   1.726  0.0696 -2.5028 -0.9893
   98MOL    H4731281   5.803   7.291   1.859  2.6229  1.2447 -1.2637
   98MOL    H4831282   5.905   7.355   1.982 -2.0395  2.2335 -2.2400
   98MOL    H4931283   5.760   7.271   2.031 -1.3341 -0.6586 -0.9367
   98MOL    C5031284   5.966   6.865   2.139  0.1128 -0.3607 -0.2138
   98MOL    C5131285   6.001   6.712   2.129 -0.0405  0.7846  0.2411
   98MOL    C5231286   6.007   6.645   1.981  0.1581 -0.2521  0.4375
   98MOL    O5331287   5.923   6.690   1.900  0.5188 -0.4519  0.8656
   98MOL    N5431288   6.106   6.550   1.940  0.2938  0.2594  0.7028
   98MOL    C5531289   6.204   6.477   2.022  0.4965 -0.0957 -0.5420
   98MOL    C5631290   6.101   6.487   1.809 -0.2871 -0.3039  1.2036
   98MOL    H5731291   5.956   6.906   2.239 -0.0977 -0.3885 -0.2228
   98MOL    H5831292   5.864   6.875   2.103  0.4408 -1.2782 -1.4307
   98MOL    H5931293   6.105   6.707   2.160 -0.7804  0.1099  2.7276
   98MOL    H6031294   6.220   6.490   2.129 -1.0605  0.4659 -0.3657
   98MOL    H6131295   6.160   6.377   2.026  2.0585 -0.7653  0.1531
   98MOL    H6231296   6.306   6.463   1.987  0.6794 -0.9985  0.3015
   98MOL    H6331297   6.018   6.530   1.753  0.1510 -1.6432 -0.5132
   98MOL    H6431298   6.073   6.382   1.821 -0.0395 -0.3332  1.5153
   98MOL    H6531299   6.196   6.509   1.761 -0.5123  0.3924  1.0656
   98MOL    C6631300   5.910   6.627   2.223 -0.2290 -0.1290  0.0119
   98MOL    C6731301   5.920   6.652   2.378 -0.2343 -0.2919  0.8135
   98MOL    C6831302   6.072   6.631   2.403  0.0167 -0.4437 -0.8940
   98MOL    O6931303   6.126   6.524   2.377 -0.4194 -0.3841 -0.3011
   98MOL    N7031304   6.146   6.734   2.443 -0.3268  0.2688  0.6217
   98MOL    C7131305   6.092   6.859   2.499  0.2261  0.8520  0.1005
   98MOL    C7231306   6.291   6.733   2.424  0.1385  0.7351 -0.3261
   98MOL    H7331307   5.807   6.638   2.189  0.4758  2.6022 -1.3244
   98MOL    H7431308   5.934   6.520   2.220  0.6252  0.0673 -0.2441
   98MOL    H7531309   5.893   6.755   2.403 -0.7261 -0.4963  1.1220
   98MOL    H7631310   6.180   6.900   2.547 -0.4370  3.3424 -0.7249
   98MOL    H7731311   6.064   6.930   2.421  0.3390 -0.1696 -0.8857
   98MOL    H7831312   6.013   6.841   2.572 -0.5102 -1.2261 -1.1452
   98MOL    H7931313   6.327   6.836   2.420 -1.7813  1.4979  1.0877
   98MOL    H8031314   6.313   6.681   2.331 -3.4661  0.4154 -1.0795
   98MOL    H8131315   6.347   6.687   2.505 -0.4831  1.9453  0.8131
   98MOL    C8231316   5.830   6.555   2.455 -0.0892  0.8283 -0.6564
   98MOL    C8331317   5.683   6.558   2.425  0.3800 -1.1771  0.1230
   98MOL    C8431318   5.626   6.697   2.460  1.0282 -0.5227 -0.4522
   98MOL    O8531319   5.683   6.752   2.556 -0.0348  0.5607 -0.0550
   98MOL    N8631320   5.534   6.762   2.383 -0.0545  0.6158 -0.4355
   98MOL    C8731321   5.486   6.897   2.410  0.2053  0.1686 -0.0317
   98MOL    C8831322   5.470   6.694   2.265  0.0601 -0.1619  0.1109
   98MOL    H8931323   5.878   6.460   2.430 -0.6858  0.1670  0.6412
   98MOL    H9031324   5.853   6.556   2.562 -0.2169  0.3344 -0.6248
   98MOL    H9131325   5.660   6.538   2.320  0.3247  1.6347 -0.4412
   98MOL    H9231326   5.430   6.944   2.329 -0.3333 -0.4129  0.0024
   98MOL    H9331327   5.437   6.921   2.504 -0.5407  3.5332 -1.2042
   98MOL    H9431328   5.578   6.955   2.415  0.3536  0.0071 -0.8942
   98MOL    H9531329   5.524   6.701   2.171  1.0508 -0.7217  0.6253
   98MOL    H9631330   5.375   6.742   2.241 -0.1759  0.3700  1.9668
   98MOL    H9731331   5.437   6.592   2.282  0.5708 -0.1617  1.1612
   98MOL    C9831332   5.602   6.452   2.510  0.3258 -0.0252  0.1107
   98MOL    C9931333   5.640   6.304   2.487  0.6581 -0.2482  0.1953
   98MOL   C10031334   5.567   6.261   2.361  0.3749  0.8621 -0.5107
   98MOL   O10131335   5.439   6.247   2.363 -0.2681 -0.2854 -0.7160
   98MOL   N10231336   5.646   6.228   2.247 -0.5777 -0.1256 -0.2065
   98MOL   C10331337   5.582   6.169   2.124 -1.2007 -0.5215 -0.2615
   98MOL   C10431338   5.792   6.247   2.232 -0.1375 -0.3752 -0.0469
   98MOL   H10531339   5.628   6.468   2.615  0.7053  0.4221 -0.0472
   98MOL   H10631340   5.495   6.470   2.504  0.3063  0.3712  1.6107
   98MOL   H10731341   5.749   6.302   2.488  0.6481 -0.5097  0.6572
   98MOL   H10831342   5.584   6.060   2.127 -2.8949 -0.5386  1.1597
   98MOL   H10931343   5.480   6.205   2.110 -0.4716  1.9818  0.6656
   98MOL   H11031344   5.649   6.194   2.042  0.1900 -2.7811  0.1525
   98MOL   H11131345   5.816   6.279   2.131 -0.4024 -0.1502 -0.0410
   98MOL   H11231346   5.843   6.155   2.261 -1.2260 -0.6828  0.9398
   98MOL   H11331347   5.827   6.332   2.291 -1.6906  1.0926 -1.1948
   98MOL   C11431348   5.609   6.204   2.602  0.4427  0.2338 -0.1758
   98MOL   C11531349   5.699   6.076   2.612  0.0305 -0.6815 -0.0309
   98MOL   C11631350   5.850   6.108   2.613 -0.2983  0.2057 -0.7662
   98MOL   O11731351   5.914   6.047   2.522 -0.8413  0.2100 -0.0074
   98MOL   N11831352   5.913   6.185   2.709  0.4591 -0.1261  0.2331
   98MOL   C11931353   6.057   6.202   2.708 -0.3986 -0.4873  0.4279
   98MOL   C12031354   5.845   6.252   2.820  0.5093 -0.4978  0.4562
   98MOL   H12131355   5.610   6.248   2.702 -0.2123 -1.0971  0.4189
   98MOL   H12231356   5.504   6.178   2.598  0.5975 -0.4095 -0.0620
   98MOL   H12331357   5.679   6.041   2.713  1.1885  0.8594  0.7489
   98MOL   H12431358   6.096   6.105   2.678  1.7973  0.1363  1.1353
   98MOL   H12531359   6.089   6.289   2.650 -3.5268 -1.9237 -3.6885
   98MOL   H12631360   6.093   6.219   2.809 -1.4896  1.6226  0.4913
   98MOL   H12731361   5.756   6.198   2.851  1.6074 -3.5167 -1.4557
   98MOL   H12831362   5.807   6.348   2.786 -0.1773 -0.8608  0.1852
   98MOL   H12931363   5.904   6.280   2.908  2.0674 -1.0300 -0.4058
   98MOL   C13031364   5.671   5.961   2.512  0.0246  0.2073  0.0239
   98MOL   C13131365   5.543   5.888   2.534  0.2390  0.8385  0.2050
   98MOL   C13231366   5.549   5.780   2.640 -0.0854 -0.3873 -0.6072
   98MOL   O13331367   5.627   5.689   2.613  0.1472 -0.2041  0.0760
   98MOL   N13431368   5.471   5.771   2.751 -0.0033 -0.3476  0.4285
   98MOL   C13531369   5.454   5.653   2.833 -0.1746  0.2160 -0.4209
   98MOL   C13631370   5.402   5.884   2.809  0.4722  0.2425 -0.2109
   98MOL   H13731371   5.676   5.999   2.410 -2.5718  1.1918  0.2276
   98MOL   H13831372   5.744   5.880   2.514 -0.5992 -0.3800 -0.5285
   98MOL   H13931373   5.475   5.964   2.571  0.1147  0.9358 -0.2152
   98MOL   H14031374   5.350   5.634   2.857  0.2487 -2.4686 -0.4782
   98MOL   H14131375   5.490   5.558   2.792  0.6925 -0.3493  1.5598
   98MOL   H14231376   5.517   5.680   2.919  1.4781 -0.0065 -1.5308
   98MOL   H14331377   5.312   5.905   2.752  0.2439  1.3150  0.5178
   98MOL   H14431378   5.463   5.972   2.792 -1.9766  1.4967 -2.9868
   98MOL   H14531379   5.375   5.869   2.914  0.2097 -1.2821 -0.4829
   98MOL   C14631380   5.502   5.824   2.393 -0.2800 -0.1917 -0.4548
   98MOL   C14731381   5.349   5.793   2.360  0.2445 -0.0797  0.0586
   98MOL   C14831382   5.267   5.922   2.378 -1.0302  0.4681 -0.2268
   98MOL   O14931383   5.228   5.958   2.487 -0.0188  1.1251  0.2941
   98MOL   N15031384   5.233   5.991   2.266 -0.0016 -0.2610  0.7474
   98MOL   C15131385   5.272   5.953   2.133 -0.2105 -0.0647  0.8478
   98MOL   C15231386   5.144   6.112   2.278  0.0986 -0.2713 -0.1787
   98MOL   H15331387   5.531   5.889   2.311  0.7000 -1.1774 -0.8928
   98MOL   H15431388   5.558   5.731   2.379 -0.6748 -0.4084 -0.5900
   98MOL   H15531389   5.344   5.763   2.256 -1.3424  1.2542 -0.2701
   98MOL   H15631390   5.264   6.032   2.059  0.8499 -2.1386 -1.5639
   98MOL   H15731391   5.370   5.911   2.110  1.2501  4.7922 -2.7493
   98MOL   H15831392   5.203   5.878   2.095 -0.6277  1.7350 -2.0603
   98MOL   H15931393   5.041   6.078   2.262  0.5325 -2.0496  0.6384
   98MOL   H16031394   5.175   6.182   2.200 -1.2380 -1.4487 -1.8154
   98MOL   H16131395   5.143   6.176   2.366 -0.9824 -0.8788  0.2625
   98MOL   C16231396   5.296   5.675   2.445  0.1229 -0.9805  0.2510
   98MOL   C16331397   5.148   5.635   2.422  0.1957  0.3576 -0.1862
   98MOL   C16431398   5.093   5.551   2.543 -0.4488  0.5630 -0.5244
   98MOL   O16531399   5.123   5.434   2.561 -0.0994  0.0752 -0.1938
   98MOL   N16631400   5.004   5.611   2.623  0.4904 -0.9777  0.5491
   98MOL   C16731401   4.941   5.542   2.738 -0.3049  0.5067  0.5623
   98MOL   C16831402   4.974   5.754   2.620 -0.0729 -0.1803 -0.4380
   98MOL   H16931403   5.359   5.589   2.421  0.6855 -0.4837 -0.0648
   98MOL   H17031404   5.311   5.687   2.552 -0.7075  0.1502  0.2524
   98MOL   H17131405   5.085   5.722   2.402  2.3807  2.2950  1.0780
   98MOL   H17231406   4.842   5.586   2.754 -0.9696 -1.0140  0.7690
   98MOL   H17331407   4.925   5.435   2.727  1.1094  0.1214  2.1574
   98MOL   H17431408   5.009   5.548   2.822  0.0058  0.8023  0.2916
   98MOL   H17531409   5.062   5.817   2.633  0.2973 -1.2004  2.3368
   98MOL   H17631410   4.910   5.766   2.707 -3.0307 -0.9988 -2.4362
   98MOL   H17731411   4.925   5.776   2.525  2.5810  0.4418 -1.7340
   98MOL   C17831412   5.148   5.539   2.297 -0.6715 -0.5950  0.1582
   98MOL   C17931413   5.017   5.510   2.218  0.2861  0.2040  0.6055
   98MOL   C18031414   4.954   5.644   2.177  0.1228 -0.3001  0.1012
   98MOL   O18131415   4.874   5.690   2.264 -0.7770  0.0687 -0.1250
   98MOL   N18231416   4.967   5.699   2.058  0.0577 -0.6393  0.0141
   98MOL   C18331417   5.033   5.645   1.942  0.1082  1.1148  0.3002
   98MOL   C18431418   4.918   5.837   2.036  0.3617 -0.2406  0.0036
   98MOL   H18531419   5.213   5.578   2.218 -1.1283  0.7040  0.4075
   98MOL   H18631420   5.198   5.447   2.325 -1.8720 -0.8188  1.6174
   98MOL   H18731421   5.039   5.467   2.120  3.1862  2.6786  0.0692
   98MOL   H18831422   5.033   5.704   1.850 -0.0715 -2.3362 -1.9790
   98MOL   H18931423   5.139   5.634   1.968 -0.1009  0.0046  0.6779
   98MOL   H19031424   4.992   5.549   1.913  2.8755  0.0820 -0.3367
   98MOL   H19131425   4.879   5.850   1.936  1.1381 -1.6685 -0.5056
   98MOL   H19231426   5.000   5.909   2.032  0.3438 -0.2141  0.0884
   98MOL   H19331427   4.851   5.883   2.109 -1.9852 -1.1028 -1.5827
   98MOL   C19431428   4.917   5.410   2.275  0.9334  0.4538 -0.0191
   98MOL   C19531429   4.970   5.263   2.316 -1.0837  1.1844  0.3578
   98MOL   C19631430   4.968   5.171   2.188 -0.1228  0.1788 -0.4197
   98MOL   O19731431   4.862   5.128   2.146 -0.1123 -0.4310 -0.8635
   98MOL   N19831432   5.086   5.156   2.112 -0.0204  0.2033  0.3441
   98MOL   C19931433   5.224   5.216   2.138  0.2994 -0.0455  1.0710
   98MOL   C20031434   5.087   5.067   1.996 -0.2235 -0.2116  0.1313
   98MOL   H20131435   4.888   5.456   2.370 -0.1224  1.7290 -0.9470
   98MOL   H20231436   4.832   5.408   2.207  1.8584  2.4801 -1.2916
   98MOL   H20331437   5.071   5.283   2.353 -1.5166  1.9770  1.1390
   98MOL   H20431438   5.274   5.198   2.233  3.2791 -2.3093 -0.8225
   98MOL   H20531439   5.298   5.185   2.063 -0.8722 -2.3698  0.8126
   98MOL   H20631440   5.217   5.325   2.137  0.7825 -0.0147  0.9769
   98MOL   H20731441   5.183   5.045   1.950  0.6325 -0.4514  1.9899
   98MOL   H20831442   5.029   5.105   1.911 -1.0578 -1.2679  0.2077
   98MOL   H20931443   5.045   4.972   2.031 -0.5273 -0.7929 -1.7168
   98MOL   C21031444   4.895   5.206   2.435 -0.8858  0.7812 -1.0306
   98MOL   C21131445   4.952   5.071   2.503 -0.4712 -0.1034 -0.2301
   98MOL   C21231446   4.839   5.010   2.591  1.0094 -0.3455  0.3774
   98MOL   O21331447   4.796   5.075   2.690  0.5189  0.5381 -0.4070
   98MOL   N21431448   4.782   4.886   2.570  0.0285 -0.0207  0.1927
   98MOL   C21531449   4.819   4.807   2.451 -0.1277 -0.6833  0.0473
   98MOL   C21631450   4.679   4.829   2.656  0.8769  0.2052  0.2421
   98MOL   H21731451   4.889   5.284   2.511 -1.5751 -0.4237  0.1592
   98MOL   H21831452   4.790   5.191   2.408 -0.9228 -0.5882 -0.1667
   98MOL   H21931453   4.986   5.004   2.423 -1.1024 -1.4450  0.6209
   98MOL   H22031454   4.860   4.860   2.365 -1.8953  1.2199  0.3309
   98MOL   H22131455   4.876   4.718   2.477  1.8160  0.6222  0.3011
   98MOL   H22231456   4.727   4.776   2.401  0.7075 -3.5044  0.1607
   98MOL   H22331457   4.636   4.747   2.599 -1.9697  2.4290 -0.9378
   98MOL   H22431458   4.595   4.899   2.650  0.5536 -0.0477  1.5209
   98MOL   H22531459   4.708   4.802   2.757 -1.3491 -2.3606  0.2529
   98MOL   C22631460   5.068   5.097   2.595 -0.0457  1.0268 -0.0538
   98MOL   C22731461   5.127   4.987   2.689  1.0529 -0.3650 -0.3853
   98MOL   C22831462   5.224   5.058   2.787 -0.1677  0.9292  0.3439
   98MOL   O22931463   5.343   5.075   2.752  0.6072 -0.1213  0.7884
   98MOL   N23031464   5.181   5.113   2.903 -0.0638 -0.1382 -0.7494
   98MOL   C23131465   5.038   5.112   2.945  0.2535  0.4534  0.0555
   98MOL   C23231466   5.265   5.194   2.994 -0.3585 -0.0416 -0.4217
   98MOL   H23331467   5.147   5.150   2.541 -0.2772  2.3731  0.8983
   98MOL   H23431468   5.041   5.170   2.671 -2.0374 -0.7708  1.0099
   98MOL   H23531469   5.046   4.947   2.750  1.7021 -1.2215 -0.0776
   98MOL   H23631470   5.031   5.136   3.051 -0.7494  0.7245 -0.0734
   98MOL   H23731471   4.973   5.189   2.906  1.2865  1.1209 -0.3658
   98MOL   H23831472   4.984   5.019   2.931  3.6579 -1.6591  0.1543
   98MOL   H23931473   5.369   5.169   2.974 -0.6284  0.0429 -2.0074
   98MOL   H24031474   5.241   5.174   3.098 -0.5029  0.9319 -0.2660
   98MOL   H24131475   5.239   5.297   2.969 -0.6593 -0.5395 -2.2453
   98MOL   C24231476   5.184   4.872   2.614  0.0887 -0.8238  0.1376
   98MOL   C24331477   5.206   4.742   2.702 -0.7329  0.0774 -1.1211
   98MOL   C24431478   5.359   4.746   2.748 -0.3427  0.3655 -0.2249
   98MOL   O24531479   5.441   4.736   2.659  0.2388  0.1085  0.3779
   98MOL   N24631480   5.399   4.732   2.877  0.0903 -0.2250 -0.4333
   98MOL   C24731481   5.311   4.714   2.998  0.6539 -0.7180  0.2185
   98MOL   C24831482   5.540   4.710   2.910 -0.0873  0.0992 -0.5595
   98MOL   H24931483   5.122   4.856   2.526  1.6706  1.0407 -1.3590
   98MOL   H25031484   5.276   4.910   2.570 -0.3747 -2.9839 -2.8060
   98MOL   H25131485   5.146   4.748   2.793  1.3604 -0.1826  0.3086
   98MOL   H25231486   5.204   4.705   2.980  0.4133  0.4076  0.9518
   98MOL   H25331487   5.352   4.634   3.059  1.5325 -0.7099 -0.3563
   98MOL   H25431488   5.321   4.803   3.062 -0.9202 -1.2531  1.2347
   98MOL   H25531489   5.550   4.711   3.019  1.7519 -0.8350 -0.7106
   98MOL   H25631490   5.612   4.786   2.878 -2.5796  2.6738 -0.3059
   98MOL   H25731491   5.575   4.611   2.881  1.0120  0.9324 -2.1603
   98MOL   C25831492   5.161   4.612   2.626 -1.0135 -0.4624  1.1299
   98MOL   C25931493   5.227   4.564   2.494 -0.1663 -0.2836  0.0634
   98MOL   C26031494   5.206   4.659   2.376  0.0772 -0.4280 -0.0723
   98MOL   O26131495   5.088   4.667   2.328  0.3515  0.3077  0.2990
   98MOL   N26231496   5.304   4.720   2.305 -0.2904  0.3606 -0.5079
   98MOL   C26331497   5.267   4.803   2.195 -0.2213  0.1439  0.0770
   98MOL   C26431498   5.452   4.690   2.322 -0.3848  0.2938 -0.1251
   98MOL   H26531499   5.173   4.536   2.704  0.5829 -0.9458  0.4383
   98MOL   H26631500   5.054   4.608   2.611 -0.9480 -4.1167  1.1733
   98MOL   H26731501   5.336   4.556   2.501 -0.1610  0.8396  1.5408
   98MOL   H26831502   5.354   4.829   2.134 -1.1315  0.0184 -1.2811
   98MOL   H26931503   5.201   4.749   2.128 -0.9069  0.3857  0.5512
   98MOL   H27031504   5.223   4.900   2.221  1.1804  0.7394  0.2780
   98MOL   H27131505   5.470   4.582   2.313 -0.2701  0.2855  0.2080
   98MOL   H27231506   5.482   4.709   2.425 -2.2744  2.4968  0.0638
   98MOL   H27331507   5.517   4.738   2.249 -1.5123  0.6284 -0.9150
   98MOL   C27431508   5.183   4.421   2.454  0.5618  0.5071  0.7258
   98MOL   C27531509   5.256   4.302   2.529 -0.2480  0.8462  0.4937
   98MOL   C27631510   5.388   4.271   2.452 -0.1289 -0.4044 -0.5484
   98MOL   O27731511   5.374   4.239   2.334  0.6909 -0.2865  0.3471
   98MOL   N27831512   5.510   4.280   2.513 -0.0610 -0.2007  1.0368
   98MOL   C27931513   5.637   4.236   2.451  0.0950 -0.7836 -0.3318
   98MOL   C28031514   5.531   4.338   2.642 -0.5917  0.1901  0.0666
   98MOL   H28131515   5.077   4.410   2.475  0.9816 -0.9992  2.1913
   98MOL   H28231516   5.202   4.414   2.347 -0.0007  1.3949  0.5601
   98MOL   H28331517   5.283   4.335   2.630  0.6237 -1.5532  1.0816
   98MOL   H28431518   5.697   4.178   2.521 -2.0120  0.2848  2.4540
   98MOL   H28531519   5.623   4.181   2.357 -0.2091 -1.4535  0.0987
   98MOL   H28631520   5.694   4.326   2.428 -0.3026 -0.3635  0.3259
   98MOL   H28731521   5.494   4.440   2.641  1.5896  1.0114 -2.3425
   98MOL   H28831522   5.632   4.341   2.684 -0.4977 -2.2169  0.0924
   98MOL   H28931523   5.477   4.277   2.715 -0.4184 -0.0622 -0.0146
   98MOL   C29031524   5.178   4.168   2.555  0.7397  0.2415 -0.0440
   98MOL   C29131525   5.063   4.171   2.657  1.0015  0.1718 -0.0924
   98MOL   C29231526   5.105   4.205   2.803 -0.3324  0.8434  0.7998
   98MOL   O29331527   5.192   4.130   2.846 -0.1978  0.3571 -0.1707
   98MOL   N29431528   5.071   4.317   2.866 -0.0431  0.0525  0.1537
   98MOL   C29531529   4.960   4.406   2.827  0.1673 -0.5321  0.5936
   98MOL   C29631530   5.151   4.369   2.983 -0.1182  0.0856  0.5993
   98MOL   H29731531   5.130   4.142   2.460 -0.9781  0.1502  0.8376
   98MOL   H29831532   5.251   4.089   2.567  0.6629  0.3147  0.9583
   98MOL   H29931533   4.998   4.252   2.624  0.4309 -0.4219 -0.4308
   98MOL   H30031534   4.971   4.441   2.724 -1.5225  0.0755  0.5940
   98MOL   H30131535   4.862   4.365   2.853 -1.5897  2.0507 -1.5727
   98MOL   H30231536   4.961   4.499   2.884  1.2063 -0.3509  0.2876
   98MOL   H30331537   5.220   4.297   3.027 -1.8289 -2.2171 -0.4320
   98MOL   H30431538   5.088   4.404   3.065 -1.8695 -1.1011 -0.2259
   98MOL   H30531539   5.218   4.447   2.945 -0.3299 -0.1829 -0.3464
   98MOL   C30631540   4.974   4.042   2.650 -0.4585 -0.0331  0.3668
   98MOL   C30731541   4.851   4.039   2.748 -0.1239 -0.4695 -0.2117
   98MOL   C30831542   4.741   4.139   2.712  0.3634 -0.8809 -0.0624
   98MOL   O30931543   4.757   4.212   2.620 -0.2454  0.3827 -0.5837
   98MOL   N31031544   4.644   4.162   2.804 -0.1356 -0.1959 -0.0160
   98MOL   C31131545   4.569   4.285   2.803 -0.2811 -0.0341 -0.1978
   98MOL   C31231546   4.590   4.058   2.892  0.5953  0.5791  0.2951
   98MOL   H31331547   4.929   4.029   2.552 -0.2770  0.4755  0.2137
   98MOL   H31431548   5.033   3.955   2.678  2.2447  1.9759  1.1194
   98MOL   H31531549   4.798   3.944   2.748 -0.9189 -0.0461  2.3972
   98MOL   H31631550   4.505   4.275   2.715  1.8707  0.4048 -1.8536
   98MOL   H31731551   4.504   4.292   2.890  0.6144 -0.1030  0.4771
   98MOL   H31831552   4.635   4.369   2.783 -0.3540 -0.0472 -0.5030
   98MOL   H31931553   4.539   4.091   2.983  1.5393 -2.3453  1.9332
   98MOL   H32031554   4.665   3.989   2.930 -0.2830  0.7206  2.3236
   98MOL   H32131555   4.528   3.994   2.829  0.1739  0.0739  1.2202
   98MOL   H32231556   4.885   4.060   2.849 -0.1359  0.0179 -0.3074
   99MOL     C131557   2.901   3.056   6.381  0.1338  0.2483 -0.3571
   99MOL     C231558   2.792   3.012   6.487  0.2807  0.1186  0.4413
   99MOL     C331559   2.833   3.045   6.633 -0.0058  0.1333 -0.4303
   99MOL     O431560   2.952   3.022   6.667  0.5328 -0.2920 -0.2380
   99MOL     N531561   2.741   3.107   6.713 -0.2845  0.0831  0.5850
   99MOL     C631562   2.606   3.149   6.671 -0.2414  0.1662 -0.9113
   99MOL     C731563   2.784   3.141   6.851 -0.4455  0.6396  0.5368
   99MOL     H831564   2.994   2.999   6.373 -1.2989 -2.2862  0.6339
   99MOL     H931565   2.933   3.153   6.418 -2.4774  0.6369  0.9748
   99MOL    H1031566   2.711   3.081   6.460  0.1518  0.4099  1.5362
   99MOL    H1131567   2.541   3.070   6.634 -0.7859  1.2062 -2.1782
   99MOL    H1231568   2.552   3.195   6.754  2.5749  0.7114  0.7258
   99MOL    H1331569   2.627   3.223   6.595 -1.7442  1.1149 -0.4174
   99MOL    H1431570   2.701   3.146   6.921 -0.4938 -0.3047  0.5470
   99MOL    H1531571   2.830   3.240   6.844 -0.2241  0.6875  2.3403
   99MOL    H1631572   2.850   3.066   6.894 -0.7863 -0.9509 -1.6718
   99MOL    H1731573   2.856   3.078   6.284  1.0921  0.8514 -0.6714
   99MOL    C1831574   2.751   2.863   6.477 -0.3780 -0.0103  0.3088
   99MOL    C1931575   2.668   2.806   6.362  0.7367 -0.0961  0.2035
   99MOL    C2031576   2.523   2.864   6.368 -0.4428 -0.8708  0.0811
   99MOL    O2131577   2.458   2.845   6.468 -0.0241 -0.1257  0.4375
   99MOL    N2231578   2.479   2.942   6.263  0.6059 -0.0749 -0.8379
   99MOL    C2331579   2.345   3.002   6.274 -0.7270 -0.0472  0.7032
   99MOL    C2431580   2.539   2.942   6.131  0.3305  0.3671 -0.0526
   99MOL    H2531581   2.837   2.798   6.491  0.0252  0.6639  0.9936
   99MOL    H2631582   2.694   2.834   6.566 -2.2078  0.9624 -0.5130
   99MOL    H2731583   2.716   2.843   6.271  0.1826 -0.7671 -0.3629
   99MOL    H2831584   2.267   2.926   6.284  0.9586 -1.5824  2.2393
   99MOL    H2931585   2.336   3.052   6.370 -0.0572  0.2364  0.6225
   99MOL    H3031586   2.324   3.081   6.201  1.9084 -0.1681 -0.2320
   99MOL    H3131587   2.552   2.837   6.105  0.4774  0.3199  0.2155
   99MOL    H3231588   2.636   2.989   6.146 -0.2016  0.7212  2.4601
   99MOL    H3331589   2.477   2.993   6.057 -0.8205 -1.0294 -0.0735
   99MOL    C3431590   2.659   2.657   6.368  0.1929 -0.4802 -0.7216
   99MOL    C3531591   2.768   2.573   6.293  0.4080  0.2750  0.1963
   99MOL    C3631592   2.760   2.607   6.139 -0.0899  0.0778  0.4869
   99MOL    O3731593   2.653   2.581   6.085 -0.0364  0.0900 -0.0343
   99MOL    N3831594   2.843   2.691   6.083 -0.9128 -0.0532 -0.7598
   99MOL    C3931595   2.820   2.749   5.954 -0.3528  0.0862  0.5730
   99MOL    C4031596   2.970   2.733   6.150  0.0741 -0.1912 -0.2674
   99MOL    H4131597   2.659   2.635   6.474 -2.4647  0.7420 -0.4106
   99MOL    H4231598   2.563   2.623   6.327 -0.2683 -0.8854  0.6545
   99MOL    H4331599   2.864   2.602   6.336  0.6850  0.3909 -0.4992
   99MOL    H4431600   2.761   2.690   5.884 -0.1491 -0.4284  0.8426
   99MOL    H4531601   2.761   2.838   5.978 -1.6125 -0.2587 -1.1120
   99MOL    H4631602   2.916   2.770   5.906 -0.6064  1.1155  0.5031
   99MOL    H4731603   2.937   2.807   6.223 -0.7378 -0.2539 -0.5684
   99MOL    H4831604   3.048   2.790   6.099  0.0994 -0.8232 -0.9404
   99MOL    H4931605   3.021   2.648   6.195 -1.0616  0.3319  2.0583
   99MOL    C5031606   2.736   2.421   6.307  0.0096 -0.1678 -0.8589
   99MOL    C5131607   2.839   2.325   6.239 -0.4588  0.1526 -0.4211
   99MOL    C5231608   2.796   2.181   6.262 -0.1563 -0.3044 -0.0267
   99MOL    O5331609   2.810   2.131   6.372 -0.6420 -0.3678 -0.3612
   99MOL    N5431610   2.750   2.109   6.159 -1.2287  0.0453  0.1159
   99MOL    C5531611   2.666   2.175   6.065  0.7957 -0.1359 -0.4800
   99MOL    C5631612   2.741   1.964   6.165  0.2076  0.1687 -0.3249
   99MOL    H5731613   2.730   2.402   6.414 -1.0433 -0.8903 -1.0396
   99MOL    H5831614   2.635   2.400   6.273 -0.4152  0.1993  0.1384
   99MOL    H5931615   2.844   2.351   6.133  2.9360 -1.7607 -0.7942
   99MOL    H6031616   2.729   2.221   5.988  2.0918 -0.4591  0.3937
   99MOL    H6131617   2.602   2.108   6.007 -0.1742 -0.0621  0.4851
   99MOL    H6231618   2.601   2.248   6.114  1.5400  0.3289 -0.1910
   99MOL    H6331619   2.823   1.910   6.213  0.0814  0.3957  0.1550
   99MOL    H6431620   2.728   1.914   6.069 -0.5668 -1.5752  0.6495
   99MOL    H6531621   2.653   1.940   6.225  0.3896 -1.6103 -0.7449
   99MOL    C6631622   2.989   2.355   6.281  0.1949  0.2829 -0.1389
   99MOL    C6731623   3.100   2.308   6.178 -0.7314  0.2208  0.0027
   99MOL    C6831624   3.123   2.421   6.064 -0.3349 -0.0557 -0.4477
   99MOL    O6931625   3.028   2.428   5.983 -0.8981 -0.6417  0.2964
   99MOL    N7031626   3.239   2.494   6.054  0.1838 -0.3557 -0.1079
   99MOL    C7131627   3.262   2.580   5.939 -0.3339 -0.0226  0.3894
   99MOL    C7231628   3.331   2.500   6.169  0.3279 -0.6161 -0.0393
   99MOL    H7331629   3.006   2.461   6.296 -1.6959  0.5278  0.5049
   99MOL    H7431630   3.006   2.307   6.378  0.3847  0.2170 -0.2066
   99MOL    H7531631   3.192   2.298   6.235 -0.4342 -0.3064 -0.5630
   99MOL    H7631632   3.181   2.643   5.902 -1.9195 -1.4053  1.4136
   99MOL    H7731633   3.345   2.649   5.951 -0.7903  0.7479 -0.8497
   99MOL    H7831634   3.275   2.516   5.852 -0.3303 -1.3886  1.3637
   99MOL    H7931635   3.385   2.407   6.190  0.2631 -0.6767 -0.1397
   99MOL    H8031636   3.264   2.528   6.250 -0.4049 -0.5960 -0.6411
   99MOL    H8131637   3.407   2.577   6.161  0.6271 -0.9611 -0.5818
   99MOL    C8231638   3.077   2.158   6.127 -0.1195 -0.4006 -0.1319
   99MOL    C8331639   3.184   2.109   6.020  0.1202 -0.4251 -0.3292
   99MOL    C8431640   3.130   1.979   5.940 -0.2204  0.8396 -0.1976
   99MOL    O8531641   3.056   1.900   6.003 -0.1130 -0.1330 -0.2293
   99MOL    N8631642   3.156   1.954   5.810 -0.5511 -0.4219 -0.5594
   99MOL    C8731643   3.225   2.049   5.723  0.3397  0.4698  1.0759
   99MOL    C8831644   3.128   1.817   5.764 -0.1953 -0.2671  0.4273
   99MOL    H8931645   3.078   2.093   6.214 -0.0877  0.3132  0.4101
   99MOL    H9031646   2.977   2.148   6.085 -0.8616 -2.1540  1.9716
   99MOL    H9131647   3.177   2.196   5.955  2.8926 -0.5773 -0.8515
   99MOL    H9231648   3.254   2.006   5.627 -0.4072 -0.0112  1.0669
   99MOL    H9331649   3.149   2.126   5.717 -0.1011 -0.0160  0.3981
   99MOL    H9431650   3.315   2.092   5.767  0.8934  0.0735  0.3528
   99MOL    H9531651   3.037   1.779   5.811  0.2417 -2.6089 -0.5874
   99MOL    H9631652   3.204   1.747   5.800 -0.3348 -0.4235  0.4149
   99MOL    H9731653   3.125   1.814   5.656  0.2801  1.9695  0.3148
   99MOL    C9831654   3.327   2.085   6.074  0.1388 -0.3291 -0.8902
   99MOL    C9931655   3.356   1.968   6.167  0.2958 -0.0171  1.1213
   99MOL   C10031656   3.291   1.987   6.302  0.9751 -0.1729 -0.6979
   99MOL   O10131657   3.316   2.098   6.358 -1.1338 -0.1873 -0.3197
   99MOL   N10231658   3.206   1.896   6.345 -0.8268 -0.5623 -0.5341
   99MOL   C10331659   3.123   1.919   6.461  0.0530 -0.0294 -0.0233
   99MOL   C10431660   3.196   1.760   6.296  0.2892 -0.0451  0.3222
   99MOL   H10531661   3.394   2.078   5.988  1.0895 -0.9432 -0.1105
   99MOL   H10631662   3.365   2.177   6.119 -3.5568  0.8625  0.0176
   99MOL   H10731663   3.322   1.873   6.125 -0.6780  0.8883 -0.1684
   99MOL   H10831664   3.022   1.883   6.441  0.0419  0.3038 -0.6077
   99MOL   H10931665   3.162   1.878   6.554 -0.3435 -0.2485  0.0468
   99MOL   H11031666   3.109   2.026   6.480 -1.1887 -0.4573  1.5639
   99MOL   H11131667   3.144   1.748   6.201 -0.9429  0.6846  0.9011
   99MOL   H11231668   3.125   1.701   6.354 -2.4934  2.3600 -0.4865
   99MOL   H11331669   3.289   1.704   6.296  0.1954 -0.2075  1.4002
   99MOL   C11431670   3.510   1.962   6.185 -0.4584  0.8028 -0.2819
   99MOL   C11531671   3.586   1.895   6.068 -0.3930  0.2328  0.0274
   99MOL   C11631672   3.550   1.745   6.052 -0.4166 -0.2878  0.1452
   99MOL   O11731673   3.520   1.686   6.154 -0.2587 -0.1320 -0.1367
   99MOL   N11831674   3.536   1.685   5.931  0.4828 -0.5871  0.1049
   99MOL   C11931675   3.489   1.547   5.922  0.1238  0.3837 -0.0785
   99MOL   C12031676   3.558   1.752   5.811 -0.0161 -0.6418  0.1560
   99MOL   H12131677   3.561   2.054   6.212  0.9360 -0.2392  0.6985
   99MOL   H12231678   3.519   1.901   6.275  1.7186  0.0440 -0.9634
   99MOL   H12331679   3.566   1.951   5.976  0.7260  0.3010 -0.1776
   99MOL   H12431680   3.390   1.527   5.964  0.4787  1.5507  1.3242
   99MOL   H12531681   3.480   1.525   5.815 -0.3284 -1.7357  0.3665
   99MOL   H12631682   3.566   1.481   5.959 -0.2989 -0.1439 -0.1295
   99MOL   H12731683   3.474   1.817   5.782 -0.9919 -2.1091 -0.3622
   99MOL   H12831684   3.558   1.690   5.722  0.7275  0.5970 -0.7187
   99MOL   H12931685   3.655   1.801   5.806 -0.3895  0.0191 -0.7122
   99MOL   C13031686   3.739   1.906   6.085 -0.0824  0.0222 -0.6028
   99MOL   C13131687   3.794   2.053   6.061 -0.2160  0.2379 -0.1862
   99MOL   C13231688   3.825   2.069   5.914  0.5574 -1.2530 -0.0534
   99MOL   O13331689   3.886   1.981   5.852  0.2085  0.1513  0.5084
   99MOL   N13431690   3.782   2.184   5.854  0.2659  1.1598 -0.7290
   99MOL   C13531691   3.725   2.295   5.924 -0.4003 -0.2425 -0.5821
   99MOL   C13631692   3.796   2.195   5.709  0.8384 -0.2754  0.1273
   99MOL   H13731693   3.762   1.882   6.188  1.0843 -1.0414 -1.0895
   99MOL   H13831694   3.797   1.834   6.026 -1.3973 -0.1055 -1.7574
   99MOL   H13931695   3.714   2.122   6.090 -1.5098 -1.0789 -0.5414
   99MOL   H14031696   3.784   2.325   6.010  2.0495 -2.2587 -1.4702
   99MOL   H14131697   3.719   2.384   5.861 -0.3987  2.2620  2.8388
   99MOL   H14231698   3.624   2.273   5.957  0.0131 -0.0501  0.8232
   99MOL   H14331699   3.725   2.124   5.667  0.2313 -0.3880  1.3193
   99MOL   H14431700   3.895   2.175   5.669  1.1850  1.3211  0.1585
   99MOL   H14531701   3.764   2.294   5.678  2.1328  0.5661  1.3900
   99MOL   C14631702   3.919   2.076   6.143 -0.0494  0.6657  0.2413
   99MOL   C14731703   3.896   2.147   6.282 -0.0941 -0.1838  0.7370
   99MOL   C14831704   3.928   2.291   6.282  0.6043  1.1963  0.4795
   99MOL   O14931705   4.047   2.322   6.263  0.1562  0.1322 -0.2184
   99MOL   N15031706   3.828   2.389   6.277  0.7034  0.0897 -0.0529
   99MOL   C15131707   3.858   2.530   6.261 -0.1303  0.7738  0.2127
   99MOL   C15231708   3.693   2.364   6.322  0.1310  0.0143  0.4153
   99MOL   H15331709   3.965   1.978   6.151 -0.0087  0.7505  1.0037
   99MOL   H15431710   3.993   2.136   6.088 -0.1795 -0.0256 -0.6946
   99MOL   H15531711   3.794   2.127   6.313  0.6698 -2.4308  2.0013
   99MOL   H15631712   3.965   2.549   6.276  0.0436 -1.9838  2.8378
   99MOL   H15731713   3.845   2.563   6.158 -2.3322 -0.7917 -0.0384
   99MOL   H15831714   3.796   2.596   6.322 -2.0313  0.5527 -1.4246
   99MOL   H15931715   3.688   2.382   6.429 -2.2553 -0.3795  0.3999
   99MOL   H16031716   3.655   2.269   6.283  2.6076 -0.5915 -0.6085
   99MOL   H16131717   3.628   2.442   6.281 -0.5019  0.5414  2.3521
   99MOL   C16231718   3.968   2.071   6.401  0.2652  0.3325 -0.2272
   99MOL   C16331719   3.872   1.977   6.479  1.0005 -0.0684 -0.1361
   99MOL   C16431720   3.759   2.046   6.547 -0.1263 -0.6793 -1.1956
   99MOL   O16531721   3.773   2.162   6.591  0.1826  0.4971 -0.0200
   99MOL   N16631722   3.649   1.974   6.582 -0.3506 -0.3685  0.0156
   99MOL   C16731723   3.624   1.833   6.556  0.0372  0.3205  0.2387
   99MOL   C16831724   3.552   2.026   6.677 -0.5445  0.2809  0.4532
   99MOL   H16931725   4.046   2.009   6.357 -0.5982 -0.9959  0.0908
   99MOL   H17031726   4.023   2.131   6.474 -1.5801 -0.4915  1.8790
   99MOL   H17131727   3.827   1.918   6.398  0.6633 -2.1714  1.5369
   99MOL   H17231728   3.648   1.791   6.458  0.7800  2.0048 -0.3262
   99MOL   H17331729   3.663   1.759   6.626 -2.2388 -0.4038  0.7879
   99MOL   H17431730   3.516   1.819   6.561  0.1912 -1.0537  0.0070
   99MOL   H17531731   3.456   2.010   6.629 -0.5520 -1.1810  0.9313
   99MOL   H17631732   3.562   2.132   6.699  1.1511 -0.0789  1.5305
   99MOL   H17731733   3.562   1.976   6.773  2.6879  0.8293  0.4858
   99MOL   C17831734   3.949   1.882   6.564  0.1757  0.1922 -0.2731
   99MOL   C17931735   4.024   1.760   6.487 -0.0602 -0.1103 -0.2600
   99MOL   C18031736   3.932   1.675   6.397 -0.4012 -0.1453  0.1026
   99MOL   O18131737   3.822   1.647   6.443  0.5908  0.2959 -0.2670
   99MOL   N18231738   3.965   1.633   6.274 -0.2095 -0.4555  0.2742
   99MOL   C18331739   3.867   1.573   6.183  0.1156 -0.4458 -0.6575
   99MOL   C18431740   4.102   1.622   6.235  0.3455 -0.5370  0.0616
   99MOL   H18531741   4.020   1.942   6.621 -0.8171  0.6047  0.5389
   99MOL   H18631742   3.885   1.836   6.639  1.4150 -1.4960 -0.2272
   99MOL   H18731743   4.101   1.794   6.418 -0.5531 -0.4608 -0.9922
   99MOL   H18831744   3.866   1.632   6.091 -1.2376  0.9681  0.2473
   99MOL   H18931745   3.893   1.467   6.173 -0.4573 -0.8058  1.4571
   99MOL   H19031746   3.769   1.578   6.230 -0.3786 -1.0509 -1.5932
   99MOL   H19131747   4.115   1.719   6.186 -1.7844  0.0349  0.5856
   99MOL   H19231748   4.110   1.562   6.144 -0.3822  1.7806 -1.5728
   99MOL   H19331749   4.167   1.602   6.319  2.1108  2.6166 -0.4753
   99MOL   C19431750   4.118   1.680   6.583 -0.4709  0.4533  0.2784
   99MOL   C19531751   4.055   1.569   6.678 -0.4356 -0.2465  0.1448
   99MOL   C19631752   3.970   1.625   6.787 -0.6148 -0.0251 -0.5904
   99MOL   O19731753   4.011   1.725   6.848  0.0383  0.3641  0.5131
   99MOL   N19831754   3.857   1.559   6.827 -0.0985 -0.7240 -0.1751
   99MOL   C19931755   3.794   1.451   6.754 -0.3105 -0.1892 -0.3608
   99MOL   C20031756   3.787   1.616   6.944 -0.6366  0.2299 -0.0027
   99MOL   H20131757   4.185   1.623   6.519 -3.0488 -0.3259 -1.8346
   99MOL   H20231758   4.183   1.751   6.634  0.8866  0.7542 -1.8156
   99MOL   H20331759   3.985   1.510   6.618 -0.8581 -0.0685  0.4617
   99MOL   H20431760   3.854   1.370   6.712  1.2847  0.7841  0.0222
   99MOL   H20531761   3.717   1.411   6.820  0.9683 -2.7427 -0.3495
   99MOL   H20631762   3.749   1.501   6.668  0.1231  1.7392  0.5146
   99MOL   H20731763   3.835   1.659   7.032  2.8490 -0.0261 -1.6667
   99MOL   H20831764   3.729   1.544   7.002 -1.8648  1.3059  0.1314
   99MOL   H20931765   3.728   1.697   6.902  0.5755  1.3893  0.4869
   99MOL   C21031766   4.169   1.479   6.726 -0.0041 -0.1819  0.6327
   99MOL   C21131767   4.214   1.372   6.624  0.3076  0.2288  0.8320
   99MOL   C21231768   4.123   1.250   6.631 -0.4654  0.4223 -0.4343
   99MOL   O21331769   4.130   1.179   6.728  0.5830  0.3576  0.0425
   99MOL   N21431770   4.032   1.227   6.530  0.1297  0.6566 -0.2986
   99MOL   C21531771   4.042   1.273   6.392  0.1454  0.0232 -0.8914
   99MOL   C21631772   3.916   1.135   6.558 -0.0054  0.7196  0.2165
   99MOL   H21731773   4.252   1.546   6.751 -0.5375  0.6253  0.2548
   99MOL   H21831774   4.143   1.439   6.825 -0.3353  3.0981  1.9364
   99MOL   H21931775   4.202   1.414   6.524 -0.4120  0.5569  1.0550
   99MOL   H22031776   3.947   1.259   6.340  0.6857 -0.2038 -1.8292
   99MOL   H22131777   4.054   1.381   6.382  0.7864  0.1446  1.1003
   99MOL   H22231778   4.118   1.223   6.332  0.8520  0.3024 -0.2341
   99MOL   H22331779   3.821   1.174   6.520 -0.5449 -1.0446 -0.3171
   99MOL   H22431780   3.899   1.126   6.666  0.2966  2.1404  0.3844
   99MOL   H22531781   3.939   1.038   6.513  0.8377  0.2541  1.6240
   99MOL   C22631782   4.369   1.334   6.627  0.2468 -0.2860  0.1415
   99MOL   C22731783   4.433   1.259   6.497  0.7551 -0.4115 -0.0857
   99MOL   C22831784   4.427   1.358   6.370 -0.4229 -0.2561  0.0366
   99MOL   O22931785   4.323   1.355   6.307  0.0864  0.0416 -0.1406
   99MOL   N23031786   4.532   1.444   6.333 -0.8683 -0.3665  0.0219
   99MOL   C23131787   4.530   1.527   6.214  0.0149 -0.3268  0.8596
   99MOL   C23231788   4.659   1.441   6.404 -0.3671 -0.2596 -0.7865
   99MOL   H23331789   4.418   1.431   6.627 -1.0896  0.4055 -0.9728
   99MOL   H23431790   4.396   1.282   6.719 -2.5672 -2.5334 -0.2129
   99MOL   H23531791   4.536   1.239   6.527  0.9044 -0.6482 -0.7551
   99MOL   H23631792   4.545   1.631   6.245  1.2467 -0.1644 -0.2431
   99MOL   H23731793   4.618   1.509   6.152  1.6235  3.8050  1.7626
   99MOL   H23831794   4.434   1.526   6.162 -0.4373 -0.8508  1.6946
   99MOL   H23931795   4.640   1.475   6.506 -0.5789  1.6086 -1.4442
   99MOL   H24031796   4.737   1.504   6.360  1.8322 -1.0327  1.8403
   99MOL   H24131797   4.698   1.339   6.407  1.1147  0.3300  0.5866
   99MOL   C24231798   4.381   1.115   6.462 -0.0910 -0.5236  0.6792
   99MOL   C24331799   4.409   1.001   6.569 -0.1679 -0.0727  0.5654
   99MOL   C24431800   4.550   0.951   6.546 -0.0179  0.2243 -0.0174
   99MOL   O24531801   4.579   0.899   6.436  0.1495  0.2576 -0.3987
   99MOL   N24631802   4.641   0.955   6.651  0.1423  0.4895  0.4824
   99MOL   C24731803   4.628   1.036   6.769 -0.0475 -0.1232 -0.7587
   99MOL   C24831804   4.774   0.885   6.632  0.0490 -0.3411  0.1766
   99MOL   H24931805   4.274   1.127   6.445 -0.2285 -0.6060  1.4803
   99MOL   H25031806   4.424   1.085   6.366  0.5246 -0.0130  0.7907
   99MOL   H25131807   4.391   1.032   6.671 -0.1457 -0.9443  0.8355
   99MOL   H25231808   4.533   1.014   6.819 -0.7422  0.7454 -1.6713
   99MOL   H25331809   4.691   0.999   6.849 -0.1683  3.9090  1.3602
   99MOL   H25431810   4.639   1.145   6.761 -0.5775 -0.0446 -0.4212
   99MOL   H25531811   4.761   0.807   6.557 -0.0386 -0.1667  0.0114
   99MOL   H25631812   4.805   0.821   6.715 -1.5222  0.8983  1.7741
   99MOL   H25731813   4.846   0.950   6.581 -1.4852  0.6051 -0.8181
   99MOL   C25831814   4.305   0.885   6.538  0.1795 -0.5922 -0.3773
   99MOL   C25931815   4.296   0.787   6.656  0.0540 -0.6309  0.3735
   99MOL   C26031816   4.280   0.640   6.599 -0.3716 -0.6392 -0.2715
   99MOL   O26131817   4.164   0.602   6.561  0.0019  0.5625  0.1764
   99MOL   N26231818   4.381   0.548   6.602  0.1873 -0.0111  0.3225
   99MOL   C26331819   4.526   0.578   6.610  0.3496 -0.2747  0.0653
   99MOL   C26431820   4.357   0.404   6.591  0.0052 -0.7404  0.1281
   99MOL   H26531821   4.203   0.922   6.528  0.4521  0.6788  1.4522
   99MOL   H26631822   4.321   0.833   6.443 -1.9200  0.6584 -1.4525
   99MOL   H26731823   4.393   0.799   6.703  0.8651  0.6102 -1.5586
   99MOL   H26831824   4.556   0.629   6.518  0.6424 -0.2190  0.1907
   99MOL   H26931825   4.544   0.655   6.685  1.8683 -0.7109  0.1748
   99MOL   H27031826   4.589   0.489   6.616 -0.9857 -1.2266 -0.0411
   99MOL   H27131827   4.369   0.357   6.689  0.0308 -0.7496  0.1199
   99MOL   H27231828   4.412   0.351   6.514 -1.9668  1.2400 -2.7227
   99MOL   H27331829   4.258   0.368   6.560 -0.2481  1.3254 -1.5376
   99MOL   C27431830   4.185   0.828   6.749  0.6352 -0.2756 -0.0613
   99MOL   C27531831   4.181   0.775   6.892 -0.4093 -0.8252  0.5565
   99MOL   C27631832   4.039   0.808   6.951 -0.5476  0.0517  0.0570
   99MOL   O27731833   4.019   0.918   6.993 -0.2180  0.1607 -0.4020
   99MOL   N27831834   3.943   0.716   6.948  0.6585 -0.2134  0.3860
   99MOL   C27931835   3.959   0.582   6.883 -0.1944  0.5709 -0.1295
   99MOL   C28031836   3.812   0.758   6.988 -0.1654 -0.0700 -0.2042
   99MOL   H28131837   4.177   0.936   6.762  0.5437 -0.0281 -2.0486
   99MOL   H28231838   4.087   0.811   6.704 -0.6136  1.6712  1.7978
   99MOL   H28331839   4.189   0.667   6.888 -1.1312 -0.8781  0.5000
   99MOL   H28431840   4.043   0.521   6.917 -0.2337  0.8429  0.4658
   99MOL   H28531841   3.867   0.531   6.913 -0.1314 -0.1495 -1.1188
   99MOL   H28631842   3.968   0.597   6.776  2.3384  0.6227  0.0582
   99MOL   H28731843   3.793   0.864   6.998 -1.1001 -0.1214 -1.2824
   99MOL   H28831844   3.778   0.723   7.085 -1.6336 -0.0438 -0.6926
   99MOL   H28931845   3.742   0.720   6.913 -1.2868  0.9073  0.3418
   99MOL   C29031846   4.299   0.819   6.980 -0.1134  0.4083  0.4823
   99MOL   C29131847   4.397   0.708   7.027 -0.1706 -0.1342  0.1194
   99MOL   C29231848   4.332   0.604   7.121 -0.0940 -0.1561  0.3856
   99MOL   O29331849   4.291   0.642   7.227 -0.4170  0.2992 -0.1063
   99MOL   N29431850   4.310   0.480   7.078 -0.2934 -0.3458  0.3950
   99MOL   C29531851   4.358   0.423   6.956  0.2814 -1.0345  0.2485
   99MOL   C29631852   4.217   0.391   7.149 -0.4995 -0.2013 -0.3308
   99MOL   H29731853   4.356   0.890   6.920 -1.2270  0.9152  0.0055
   99MOL   H29831854   4.270   0.869   7.072  1.1382  1.5950  0.2512
   99MOL   H29931855   4.439   0.655   6.941  0.4830 -1.3791  1.1656
   99MOL   H30031856   4.304   0.465   6.871 -0.5618  0.4591  1.5019
   99MOL   H30131857   4.465   0.430   6.940  0.0772  3.8930  0.2102
   99MOL   H30231858   4.326   0.320   6.939  1.3645 -0.8775 -3.0875
   99MOL   H30331859   4.266   0.316   7.211 -0.8769 -1.1185 -1.1367
   99MOL   H30431860   4.145   0.345   7.081  1.0817  0.0121 -2.2272
   99MOL   H30531861   4.154   0.446   7.218 -0.0737  0.1286 -0.2020
   99MOL   C30631862   4.516   0.773   7.096 -0.1813 -0.1418 -0.2265
   99MOL   C30731863   4.612   0.683   7.172 -0.1739 -0.3879 -0.1266
   99MOL   C30831864   4.696   0.590   7.084  0.7414 -0.2442 -0.0414
   99MOL   O30931865   4.684   0.595   6.961 -0.1049 -0.3939  0.2843
   99MOL   N31031866   4.768   0.501   7.152 -0.5991 -0.6276  0.1036
   99MOL   C31131867   4.765   0.493   7.298  0.3393 -0.4519 -0.0060
   99MOL   C31231868   4.852   0.393   7.094  1.1569 -0.9847 -0.3897
   99MOL   H31331869   4.571   0.834   7.025  0.1957  0.4033  0.5291
   99MOL   H31431870   4.484   0.841   7.175 -0.2138  0.3959 -0.7078
   99MOL   H31531871   4.690   0.744   7.218  0.5502 -1.3091 -0.1336
   99MOL   H31631872   4.668   0.446   7.311 -0.6269  2.2129  2.9688
   99MOL   H31731873   4.825   0.406   7.326  0.0142 -0.5762  0.3080
   99MOL   H31831874   4.789   0.574   7.366  2.3053 -1.6996  0.8398
   99MOL   H31931875   4.871   0.421   6.990 -0.6869  1.3876 -0.1236
   99MOL   H32031876   4.798   0.298   7.090 -1.5844  0.5072 -0.3382
   99MOL   H32131877   4.948   0.379   7.143  1.9249  0.3455 -1.5053
   99MOL   H32231878   4.560   0.632   7.253 -0.6026 -2.0580 -1.4334
  100MOL     C131879   0.891   0.171   4.068 -0.5416 -0.0262  0.0639
  100MOL     C231880   0.771   0.162   3.976  0.0890  0.0283  0.6372
  100MOL     C331881   0.637   0.164   4.051  0.1795 -0.3269  1.2217
  100MOL     O431882   0.630   0.096   4.155  0.0659  0.7640 -0.2132
  100MOL     N531883   0.540   0.258   4.015 -0.6482  0.0049  0.2234
  100MOL     C631884   0.417   0.277   4.096 -0.0235 -0.4028  0.4478
  100MOL     C731885   0.564   0.358   3.908 -0.1766  0.6362  0.6155
  100MOL     H831886   0.861   0.221   4.160 -0.5968 -0.7390  0.4316
  100MOL     H931887   0.980   0.216   4.023 -2.2119  0.7199 -2.6038
  100MOL    H1031888   0.796   0.255   3.925 -0.9787  0.5438  1.0424
  100MOL    H1131889   0.397   0.377   4.133  0.4604 -0.7730  1.7487
  100MOL    H1231890   0.337   0.218   4.050 -0.8991  0.8355  0.3687
  100MOL    H1331891   0.431   0.225   4.191  0.0501 -0.1642  0.5664
  100MOL    H1431892   0.609   0.306   3.824 -2.2451 -2.6341  1.4621
  100MOL    H1531893   0.616   0.444   3.949  1.3470  0.0356 -0.0434
  100MOL    H1631894   0.467   0.381   3.862  0.6019 -0.2919 -1.5499
  100MOL    H1731895   0.935   0.075   4.095  1.6076 -0.1093 -3.3913
  100MOL    C1831896   0.773   0.049   3.871  0.0828  0.0897  0.1911
  100MOL    C1931897   0.746   7.757   3.923 -0.6318 -0.6342  0.0395
  100MOL    C2031898   0.872   7.701   3.996  1.0481  0.6538  0.4902
  100MOL    O2131899   0.964   7.683   3.919  0.2094  0.1180 -0.4617
  100MOL    N2231900   0.885   7.673   4.129  0.3241  0.4285 -0.7320
  100MOL    C2331901   1.013   7.650   4.189 -0.5408  0.0295  0.6750
  100MOL    C2431902   0.779   7.676   4.223 -0.2349  0.2348  0.0532
  100MOL    H2531903   0.694   0.068   3.798 -0.2379 -0.1332  0.4747
  100MOL    H2631904   0.871   0.061   3.826 -0.1285  1.3769  0.0472
  100MOL    H2731905   0.658   7.759   3.986  0.5878 -1.8820  1.8205
  100MOL    H2831906   1.007   7.683   4.293 -0.5972  0.8039  0.4236
  100MOL    H2931907   1.037   7.544   4.181 -1.2254  0.0101 -1.1828
  100MOL    H3031908   1.099   7.704   4.148 -0.2411  1.0147  2.5150
  100MOL    H3131909   0.792   7.588   4.286 -2.7841  1.7764  2.9154
  100MOL    H3231910   0.680   7.677   4.178 -0.1678  0.0530 -0.0988
  100MOL    H3331911   0.784   7.766   4.285  1.1444 -0.4822  1.0128
  100MOL    C3431912   0.701   7.658   3.812 -0.0827 -0.2024  0.4660
  100MOL    C3531913   0.558   7.654   3.753  0.7300 -0.2021 -0.3532
  100MOL    C3631914   0.465   7.627   3.871 -0.3286  0.8166  0.1139
  100MOL    O3731915   0.483   7.523   3.935  0.7841 -0.2451  0.3376
  100MOL    N3831916   0.383   7.728   3.916 -0.1384 -0.4761  0.4222
  100MOL    C3931917   0.315   7.714   4.044 -0.2135  0.9612 -0.0228
  100MOL    C4031918   0.338   7.839   3.828 -0.2265  0.7601  0.2102
  100MOL    H4131919   0.773   7.659   3.731 -1.3642  1.6627 -0.6722
  100MOL    H4231920   0.717   7.558   3.854 -0.9583  0.2185  1.8471
  100MOL    H4331921   0.539   7.750   3.706 -1.6098 -0.5309 -0.1356
  100MOL    H4431922   0.378   7.733   4.131  0.9302  1.5095 -0.9531
  100MOL    H4531923   0.249   7.799   4.059 -0.3811  0.7845  0.2355
  100MOL    H4631924   0.261   7.620   4.044 -1.1591  1.4853 -0.8593
  100MOL    H4731925   0.413   0.063   3.816 -0.1746  0.8364  1.0613
  100MOL    H4831926   0.251   0.036   3.870 -0.5456  2.1540 -2.0299
  100MOL    H4931927   0.315   7.800   3.728 -0.6741  0.3990  0.4518
  100MOL    C5031928   0.540   7.545   3.648 -0.4841  0.0604  0.0073
  100MOL    C5131929   0.419   7.549   3.556 -0.3847  0.0084  0.3159
  100MOL    C5231930   0.289   7.503   3.618  0.4115 -1.1225 -0.3383
  100MOL    O5331931   0.293   7.416   3.705  0.1468 -0.1838 -0.0958
  100MOL    N5431932   0.172   7.559   3.574 -0.0506 -0.2566  0.2053
  100MOL    C5531933   0.043   7.518   3.636 -0.0336 -0.1340 -0.4944
  100MOL    C5631934   0.164   7.668   3.478  0.2276 -0.2504  0.3100
  100MOL    H5731935   0.618   7.550   3.572 -3.4510  1.1763 -3.1070
  100MOL    H5831936   0.552   7.451   3.701  0.2607  0.9738  1.4960
  100MOL    H5931937   0.408   7.654   3.530  1.6149 -0.9415 -5.1423
  100MOL    H6031938   0.040   7.541   3.742 -3.9154 -1.5395 -0.2126
  100MOL    H6131939   7.811   7.571   3.593  0.7087  0.8611 -0.7509
  100MOL    H6231940   0.044   7.409   3.627  0.7331 -0.2516  0.9158
  100MOL    H6331941   0.062   7.693   3.451  0.3340  4.0951  3.4799
  100MOL    H6431942   0.227   7.648   3.391 -1.4017 -1.2262 -0.6624
  100MOL    H6531943   0.198   7.764   3.516  1.5096  0.0747 -1.5997
  100MOL    C6631944   0.443   7.474   3.423 -0.2829  0.3243 -0.4369
  100MOL    C6731945   0.424   7.314   3.423  0.3942  0.6080 -0.2391
  100MOL    C6831946   0.542   7.242   3.348  0.1872 -0.0088  0.0075
  100MOL    O6931947   0.533   7.249   3.223  0.2102  0.2409 -0.2975
  100MOL    N7031948   0.630   7.156   3.413 -0.1525 -0.4567  0.1122
  100MOL    C7131949   0.674   7.184   3.544  0.5599  0.4846  0.3660
  100MOL    C7231950   0.702   7.054   3.335  1.3290 -0.6029  0.1289
  100MOL    H7331951   0.374   7.517   3.350 -0.4338  1.2320  0.2353
  100MOL    H7431952   0.545   7.492   3.389  0.0991 -0.5461  0.2376
  100MOL    H7531953   0.437   7.287   3.528 -1.4301  0.0544 -0.1355
  100MOL    H7631954   0.783   7.192   3.542  0.5254  0.9525 -4.3375
  100MOL    H7731955   0.636   7.280   3.579 -1.9327  0.1296 -1.2404
  100MOL    H7831956   0.640   7.108   3.615  1.3244  0.5880  0.8559
  100MOL    H7931957   0.800   7.095   3.311  0.6578  2.4668  2.3699
  100MOL    H8031958   0.658   7.034   3.237 -0.2823  2.7078  0.1175
  100MOL    H8131959   0.702   6.957   3.385  1.4523 -0.9864 -0.6205
  100MOL    C8231960   0.281   7.268   3.365  0.3752 -0.2820  0.2762
  100MOL    C8331961   0.272   7.113   3.363  0.1987 -0.1252  0.3644
  100MOL    C8431962   0.139   7.068   3.297 -0.0399  0.5877  0.0037
  100MOL    O8531963   0.040   7.048   3.366 -0.0642  0.3015  0.5675
  100MOL    N8631964   0.134   7.031   3.168 -0.2364  0.1614 -0.3262
  100MOL    C8731965   0.222   7.080   3.063  0.2956  0.2818 -0.7792
  100MOL    C8831966   0.005   6.987   3.103  0.3384  0.7175 -0.4188
  100MOL    H8931967   0.207   7.322   3.425  0.6568  0.9978 -0.5229
  100MOL    H9031968   0.258   7.315   3.270  0.0885 -0.4776  0.2493
  100MOL    H9131969   0.351   7.097   3.289  0.1349  1.3437 -0.0470
  100MOL    H9231970   0.278   7.165   3.102 -2.0382  0.9311  1.2452
  100MOL    H9331971   0.294   7.002   3.036 -1.0616 -1.1096 -0.4260
  100MOL    H9431972   0.161   7.113   2.980 -1.5725  1.5480  1.0490
  100MOL    H9531973   0.017   6.952   3.000 -0.4767 -0.0643 -0.2522
  100MOL    H9631974   7.782   7.064   3.101  0.2534  0.6521  0.1308
  100MOL    H9731975   7.815   6.911   3.167  2.0717 -1.5963 -1.9071
  100MOL    C9831976   0.290   7.050   3.507  0.1630 -0.6667  0.1887
  100MOL    C9931977   0.299   6.890   3.510 -0.0485 -0.0719  0.3081
  100MOL   C10031978   0.294   6.836   3.648 -0.2740 -0.1499 -0.5242
  100MOL   O10131979   0.398   6.817   3.704  0.3214 -0.2017 -0.2979
  100MOL   N10231980   0.177   6.803   3.702  0.2898  0.0790 -0.0285
  100MOL   C10331981   0.046   6.856   3.663  0.3740  0.1756  0.4227
  100MOL   C10431982   0.178   6.728   3.834 -0.2096  0.8432 -0.2700
  100MOL   H10531983   0.383   7.089   3.548 -0.0576  1.8166 -1.5860
  100MOL   H10631984   0.209   7.086   3.570 -1.8046 -2.2811 -1.3352
  100MOL   H10731985   0.213   6.850   3.456  1.0694  0.6402 -2.0476
  100MOL   H10831986   0.020   6.826   3.561  0.1684  1.1742  0.1810
  100MOL   H10931987   7.814   6.818   3.718 -0.4520  0.6427 -0.5265
  100MOL   H11031988   0.049   6.965   3.666 -0.4722  0.1849  0.8224
  100MOL   H11131989   0.221   6.635   3.797  0.2552 -0.9149  4.4619
  100MOL   H11231990   0.078   6.719   3.877 -0.0937  0.1230 -0.1532
  100MOL   H11331991   0.239   6.769   3.914 -1.5061  1.9660  0.1839
  100MOL   C11431992   0.423   6.835   3.434  0.2872 -0.1396 -0.2582
  100MOL   C11531993   0.398   6.702   3.361  0.6267 -0.3137  0.4161
  100MOL   C11631994   0.534   6.632   3.338 -0.1363 -1.1238  0.6144
  100MOL   O11731995   0.617   6.681   3.264 -0.2090  0.4489 -0.4325
  100MOL   N11831996   0.561   6.512   3.390  0.4613 -0.6164 -0.3872
  100MOL   C11931997   0.637   6.418   3.320 -0.6326 -0.2635  0.2186
  100MOL   C12031998   0.502   6.477   3.519  0.3105  0.2201  0.0376
  100MOL   H12131999   0.457   6.901   3.354  1.5439 -0.8498 -0.3164
  100MOL   H12232000   0.512   6.839   3.496  0.2128  0.8059 -0.1966
  100MOL   H12332001   0.338   6.641   3.430 -0.2441  1.4305  1.2318
  100MOL   H12432002   0.739   6.447   3.347  0.2116 -2.1549 -0.8036
  100MOL   H12532003   0.631   6.315   3.354 -0.8089 -0.4707 -0.4397
  100MOL   H12632004   0.621   6.429   3.213  0.5291  2.7621  0.2935
  100MOL   H12732005   0.517   6.558   3.591 -2.3701 -0.1218  1.0044
  100MOL   H12832006   0.541   6.385   3.563 -2.3770 -0.1438  1.7457
  100MOL   H12932007   0.396   6.460   3.500  0.2617  0.1366  0.3840
  100MOL   C13032008   0.320   6.717   3.223 -0.3662  0.1476 -0.2270
  100MOL   C13132009   0.309   6.593   3.126 -0.3911 -0.0681 -0.1574
  100MOL   C13232010   0.248   6.645   2.994  0.1116 -0.5261 -0.1690
  100MOL   O13332011   0.131   6.668   2.983 -0.5431 -0.1777  0.5568
  100MOL   N13432012   0.331   6.672   2.889  0.2541 -0.9612 -0.3092
  100MOL   C13532013   0.271   6.711   2.755  0.4376 -0.4176 -0.1171
  100MOL   C13632014   0.475   6.633   2.884  0.4765  0.1188 -0.0649
  100MOL   H13732015   0.222   6.765   3.235 -0.9592 -0.9621 -0.6451
  100MOL   H13832016   0.367   6.806   3.181  0.9938 -0.5557 -0.2055
  100MOL   H13932017   0.409   6.553   3.114 -0.5183  0.1651 -2.2445
  100MOL   H14032018   0.334   6.777   2.695  1.6973 -1.0527  0.4816
  100MOL   H14132019   0.268   6.623   2.692  0.4440  0.2097 -0.9979
  100MOL   H14232020   0.173   6.756   2.772  0.8515 -0.3838  2.5353
  100MOL   H14332021   0.526   6.662   2.792 -0.2047  0.3909 -0.3574
  100MOL   H14432022   0.477   6.525   2.895 -0.2095 -0.1515 -2.5296
  100MOL   H14532023   0.530   6.679   2.967  2.9790  1.5357 -2.4020
  100MOL   C14632024   0.222   6.474   3.184  0.5437 -0.1677  0.3804
  100MOL   C14732025   0.218   6.341   3.108 -0.0399 -1.0989 -0.1935
  100MOL   C14832026   0.110   6.332   2.997  0.9296  0.5830 -0.0227
  100MOL   O14932027   7.849   6.356   3.031  0.1282  0.0112 -0.1320
  100MOL   N15032028   0.142   6.312   2.868 -0.0593  0.0239  0.4963
  100MOL   C15132029   0.281   6.287   2.824  0.0724  0.0513 -0.1108
  100MOL   C15232030   0.041   6.297   2.771  0.5675  0.1241 -0.0693
  100MOL   H15332031   0.268   6.456   3.282  1.0014  3.2840  0.8557
  100MOL   H15432032   0.120   6.504   3.209  1.7109  3.3787  1.1656
  100MOL   H15532033   0.320   6.333   3.070 -0.0819 -0.3988 -0.4693
  100MOL   H15632034   0.300   6.185   2.856  1.3458  0.2233 -0.2667
  100MOL   H15732035   0.296   6.313   2.719  3.4337 -0.6360  0.1362
  100MOL   H15832036   0.348   6.360   2.871  0.5213  1.4310 -2.7850
  100MOL   H15932037   0.073   6.266   2.671  2.2488  2.5449 -0.3125
  100MOL   H16032038   7.824   6.380   2.773 -0.8032 -1.0606  1.0711
  100MOL   H16132039   7.837   6.209   2.800 -1.7042  0.8963 -2.0195
  100MOL   C16232040   0.201   6.224   3.206 -0.4299 -0.0651 -0.1660
  100MOL   C16332041   0.083   6.214   3.307  0.0036 -1.0342  0.3153
  100MOL   C16432042   0.104   6.311   3.429  0.5404 -0.0987  0.5974
  100MOL   O16532043   0.211   6.293   3.494  0.1158  0.7242 -0.3018
  100MOL   N16632044   0.019   6.412   3.456 -0.4062  0.0392 -0.2868
  100MOL   C16732045   0.045   6.496   3.572  0.3648  0.3608  0.6603
  100MOL   C16832046   7.749   6.444   3.382  0.1958 -0.4176  0.4285
  100MOL   H16932047   0.203   6.134   3.145 -1.2076 -0.0139 -0.2792
  100MOL   H17032048   0.292   6.213   3.264 -1.5122 -3.3691  1.0226
  100MOL   H17132049   7.844   6.237   3.253  0.9381  1.3079 -0.3524
  100MOL   H17232050   0.124   6.473   3.644 -1.2171 -0.3527  2.2142
  100MOL   H17332051   0.090   6.586   3.531  1.3106 -1.3773 -2.2590
  100MOL   H17432052   7.809   6.513   3.633 -1.3223 -3.0405 -0.7536
  100MOL   H17532053   7.740   6.406   3.280  0.5929  2.0097 -0.5504
  100MOL   H17632054   7.752   6.553   3.382 -1.5466 -0.3644  1.2646
  100MOL   H17732055   7.658   6.411   3.431 -0.0536  0.8840  0.8711
  100MOL   C17832056   0.074   6.068   3.351  0.4036  0.2603 -0.2016
  100MOL   C17932057   7.842   6.032   3.482  0.3545  0.3448  0.5257
  100MOL   C18032058   0.015   5.882   3.519 -0.2842  0.4801 -0.5658
  100MOL   O18132059   7.813   5.793   3.453  0.3668  0.3558  0.3558
  100MOL   N18232060   0.085   5.856   3.641  0.1731  0.2840  0.1964
  100MOL   C18332061   0.080   5.723   3.701  0.0014 -0.5558  0.6682
  100MOL   C18432062   0.195   5.946   3.679  0.4351 -0.7204  0.0197
  100MOL   H18532063   0.030   6.015   3.267 -1.9221  1.4697  0.2226
  100MOL   H18632064   0.167   6.011   3.355  0.6967  0.8163  1.2355
  100MOL   H18732065   0.034   6.093   3.561 -0.3371  2.3364 -0.5793
  100MOL   H18832066   0.003   5.758   3.771  0.6265  2.2074  0.0398
  100MOL   H18932067   0.069   5.643   3.628  0.6055  1.8568 -2.1854
  100MOL   H19032068   0.162   5.696   3.768  2.0081  0.0562 -1.5077
  100MOL   H19132069   0.223   6.035   3.623 -1.1277  0.3955  0.9701
  100MOL   H19232070   0.278   5.877   3.697 -0.8142 -2.5993 -1.2118
  100MOL   H19332071   0.173   5.974   3.782  0.0212 -0.7902 -0.0484
  100MOL   C19432072   7.692   6.070   3.464 -0.1995 -0.2532 -0.6606
  100MOL   C19532073   7.623   6.078   3.606 -0.0289 -0.0068 -0.7057
  100MOL   C19632074   7.475   6.066   3.592  0.5806 -0.0192  0.2165
  100MOL   O19732075   7.409   6.169   3.561  0.3858 -0.3258  0.7152
  100MOL   N19832076   7.407   5.948   3.618 -0.4042 -0.2700  0.3021
  100MOL   C19932077   7.261   5.936   3.611 -0.5719 -0.6776  0.1434
  100MOL   C20032078   7.471   5.822   3.660 -0.7397 -0.4875  1.2056
  100MOL   H20132079   7.683   6.164   3.411 -0.2582  0.3290  0.3584
  100MOL   H20232080   7.651   5.994   3.397 -2.0940  2.1167 -2.2737
  100MOL   H20332081   7.659   5.989   3.656 -0.5377  0.8061  1.1517
  100MOL   H20432082   7.221   6.006   3.537 -0.0721  0.6950  1.1349
  100MOL   H20532083   7.214   5.841   3.590 -1.2625 -0.3802  0.3385
  100MOL   H20632084   7.220   5.978   3.703 -0.9569  2.3589 -1.3495
  100MOL   H20732085   7.566   5.804   3.611 -0.7584  1.1098  0.5635
  100MOL   H20832086   7.412   5.736   3.627  0.1918 -0.8209  0.4024
  100MOL   H20932087   7.480   5.808   3.768 -2.1106  0.3922  1.4432
  100MOL   C21032088   7.670   6.197   3.691 -0.2086 -0.4095 -0.5136
  100MOL   C21132089   7.647   6.201   3.846 -0.0724  0.1848 -0.2504
  100MOL   C21232090   7.701   6.069   3.912  0.0785  0.1560  0.1504
  100MOL   O21332091   7.654   5.961   3.883  0.6100  0.1482  0.6551
  100MOL   N21432092   7.800   6.077   4.003  0.7990  0.2794  0.4994
  100MOL   C21532093   0.016   6.192   4.046  0.0934 -0.2579  0.0958
  100MOL   C21632094   7.834   5.959   4.076 -0.1949 -0.5798  0.9010
  100MOL   H21732095   7.777   6.217   3.677 -0.0047 -0.2039  1.2391
  100MOL   H21832096   7.630   6.287   3.644  0.8821  0.6668  0.5578
  100MOL   H21932097   7.698   6.293   3.875 -0.2293  0.8606 -2.0279
  100MOL   H22032098   0.107   6.169   4.101  0.2876  0.1588 -0.0498
  100MOL   H22132099   0.054   6.253   3.963  0.2801 -1.7788 -0.9590
  100MOL   H22232100   7.811   6.261   4.107 -1.0767  1.9827 -3.4422
  100MOL   H22332101   7.782   5.864   4.061 -4.3683  1.4762  1.6970
  100MOL   H22432102   7.846   5.984   4.181  0.6231  0.1462  0.6377
  100MOL   H22532103   0.083   5.942   4.044 -0.1134  1.4298  0.0591
  100MOL   C22632104   7.504   6.223   3.890  0.2411 -0.2794 -0.0516
  100MOL   C22732105   7.454   6.364   3.914  0.4421 -0.4010  0.1020
  100MOL   C22832106   7.531   6.435   4.025 -0.4870 -0.0665  0.0136
  100MOL   O22932107   7.562   6.372   4.125 -0.0849  0.2897  0.6553
  100MOL   N23032108   7.568   6.568   4.014 -0.6442  0.4396  0.2713
  100MOL   C23132109   7.522   6.646   3.897 -0.2527  0.4521 -0.7435
  100MOL   C23232110   7.659   6.636   4.112 -0.6052  0.0087  0.2860
  100MOL   H23332111   7.437   6.168   3.823 -0.0659 -1.2176  1.0064
  100MOL   H23432112   7.490   6.182   3.990 -0.3306  2.7215  1.1234
  100MOL   H23532113   7.486   6.401   3.816  2.5889  0.7258  1.1935
  100MOL   H23632114   7.418   6.675   3.904 -1.7363 -3.8715 -3.0609
  100MOL   H23732115   7.588   6.732   3.888  0.3882 -0.1649 -2.0895
  100MOL   H23832116   7.535   6.595   3.802  1.1380  1.3880 -1.0834
  100MOL   H23932117   7.749   6.574   4.121 -0.8873 -0.9129 -2.8617
  100MOL   H24032118   7.614   6.638   4.211  1.3421 -1.8500  1.2593
  100MOL   H24132119   7.704   6.727   4.072  1.6710  0.0218  2.7085
  100MOL   C24232120   7.301   6.383   3.935  0.1224  0.6560  0.6632
  100MOL   C24332121   7.199   6.362   3.817 -0.8178  0.0561 -0.1417
  100MOL   C24432122   7.220   6.470   3.706 -0.9395 -0.1700 -0.1309
  100MOL   O24532123   7.271   6.578   3.734  0.8535  0.0718 -0.3685
  100MOL   N24632124   7.180   6.447   3.570  0.0168  0.3962 -0.1707
  100MOL   C24732125   7.166   6.557   3.475  0.8421 -0.2601  0.3593
  100MOL   C24832126   7.108   6.326   3.530 -0.2894  0.7319  0.0627
  100MOL   H24932127   7.266   6.320   4.017 -1.9077  1.8316  0.7653
  100MOL   H25032128   7.287   6.482   3.979  3.5544  1.8318 -0.7364
  100MOL   H25132129   7.222   6.263   3.780  0.5055  0.6283 -0.8952
  100MOL   H25232130   7.258   6.612   3.455  0.3037  0.0803 -1.2740
  100MOL   H25332131   7.129   6.524   3.378  1.4128  0.7608 -0.2125
  100MOL   H25432132   7.099   6.631   3.517  2.0766  0.9951  0.1672
  100MOL   H25532133   7.108   6.306   3.423 -3.4366  0.3224  0.0827
  100MOL   H25632134   7.007   6.325   3.570 -0.4674 -1.6068 -0.3649
  100MOL   H25732135   7.167   6.242   3.567  1.6921  1.1318 -2.0403
  100MOL   C25832136   7.047   6.365   3.877  0.5223 -0.7502 -0.3280
  100MOL   C25932137   6.976   6.221   3.892 -0.5444 -0.3116  0.1071
  100MOL   C26032138   6.822   6.244   3.898 -0.1424  0.5204 -0.4085
  100MOL   O26132139   6.792   6.311   3.996 -0.5695  0.2837  0.1077
  100MOL   N26232140   6.734   6.204   3.804  0.1439 -0.9753 -0.0100
  100MOL   C26332141   6.593   6.234   3.814 -0.1967 -0.4480 -0.1720
  100MOL   C26432142   6.761   6.111   3.693  0.5783  0.4807 -0.0080
  100MOL   H26532143   7.062   6.408   3.976 -2.3756 -1.0511  0.2760
  100MOL   H26632144   6.977   6.422   3.815  1.3983  0.6210 -0.0858
  100MOL   H26732145   6.993   6.173   3.795 -0.3029 -2.4243  1.1764
  100MOL   H26832146   6.556   6.276   3.720  1.1582  0.6916 -0.1974
  100MOL   H26932147   6.544   6.138   3.831  0.6131 -0.6275  1.1438
  100MOL   H27032148   6.562   6.288   3.903 -0.6386  1.0202 -1.1940
  100MOL   H27132149   6.794   6.163   3.603 -0.7257  3.1780  1.0209
  100MOL   H27232150   6.674   6.058   3.654  0.5195  1.5230 -1.3359
  100MOL   H27332151   6.829   6.029   3.716  0.0803  0.0888  0.0678
  100MOL   C27432152   7.034   6.129   3.996 -0.3074  0.0735 -0.2192
  100MOL   C27532153   6.959   5.993   4.005 -0.2732 -0.1560 -0.0695
  100MOL   C27632154   6.971   5.937   4.150  0.6085  0.2365  0.5169
  100MOL   O27732155   7.064   5.863   4.173 -0.2274 -0.9823 -0.1858
  100MOL   N27832156   6.879   5.971   4.246 -0.7724 -0.1653 -0.0278
  100MOL   C27932157   6.901   5.919   4.381 -0.1134  0.3718  0.0865
  100MOL   C28032158   6.755   6.051   4.214  0.0456 -0.0048  0.6814
  100MOL   H28132159   7.135   6.105   3.963  0.2304  0.0394  1.3693
  100MOL   H28232160   7.017   6.182   4.090 -3.8299 -3.7543  1.4454
  100MOL   H28332161   6.855   5.999   3.972 -0.6495 -2.7012  0.5080
  100MOL   H28432162   6.882   5.812   4.376  1.3954  0.1261 -0.5862
  100MOL   H28532163   7.003   5.935   4.414 -0.6580  0.4014  1.7966
  100MOL   H28632164   6.824   5.960   4.447 -1.1102  2.7535 -2.4633
  100MOL   H28732165   6.791   6.148   4.181  2.7923 -1.3991 -0.6186
  100MOL   H28832166   6.682   6.063   4.294  0.8175  0.1009  1.3732
  100MOL   H28932167   6.697   6.002   4.135 -1.5354  1.3226  0.9911
  100MOL   C29032168   7.020   5.894   3.903 -0.5758 -0.1306  0.5461
  100MOL   C29132169   6.956   5.745   3.899 -0.0885  0.1161  0.3357
  100MOL   C29232170   7.014   5.687   3.765  0.3042 -0.1827  0.3522
  100MOL   O29332171   6.950   5.700   3.664 -0.1169 -0.3879  0.1758
  100MOL   N29432172   7.117   5.604   3.767  0.1737 -0.3031 -0.6898
  100MOL   C29532173   7.154   5.524   3.653  0.4497  0.0432 -0.6503
  100MOL   C29632174   7.215   5.592   3.877  0.0693 -0.5194  0.1989
  100MOL   H29732175   7.022   5.933   3.801 -2.2276 -0.7879  0.2426
  100MOL   H29832176   7.125   5.888   3.931 -0.1262  1.6111 -0.7172
  100MOL   H29932177   6.989   5.681   3.981  2.3089  0.7033 -0.1117
  100MOL   H30032178   7.079   5.527   3.574 -0.4248 -0.2145  0.1611
  100MOL   H30132179   7.240   5.571   3.606 -0.4809 -0.1415 -2.6088
  100MOL   H30232180   7.203   5.432   3.683 -0.3202 -0.1770 -0.0331
  100MOL   H30332181   7.299   5.528   3.850 -0.2499 -0.9339  0.1864
  100MOL   H30432182   7.166   5.560   3.969 -1.5354  1.9076  0.2320
  100MOL   H30532183   7.265   5.688   3.884 -1.2321  0.2783 -1.2327
  100MOL   C30632184   6.801   5.754   3.900  0.3713 -0.1963 -0.0819
  100MOL   C30732185   6.722   5.612   3.884 -0.4271  0.4244 -0.4600
  100MOL   C30832186   6.712   5.557   4.027  0.1722 -0.2226  1.2716
  100MOL   O30932187   6.644   5.622   4.108  0.0751 -0.0767 -0.5428
  100MOL   N31032188   6.749   5.426   4.045  0.0467  0.0465 -0.5295
  100MOL   C31132189   6.719   5.358   4.165 -0.4758  1.0490  0.4851
  100MOL   C31232190   6.854   5.359   3.968 -0.4139  0.0238  0.2224
  100MOL   H31332191   6.762   5.808   3.986 -0.5756 -0.4027 -0.3676
  100MOL   H31432192   6.768   5.811   3.813 -0.4317 -1.4879 -0.6504
  100MOL   H31532193   6.617   5.635   3.863 -1.2590 -2.2978  0.5288
  100MOL   H31632194   6.629   5.387   4.219 -0.3616 -0.9572  1.7848
  100MOL   H31732195   6.707   5.254   4.134  3.4116  1.2181 -1.9041
  100MOL   H31832196   6.811   5.376   4.221 -0.1353  0.6161  0.0776
  100MOL   H31932197   6.817   5.317   3.875 -0.6394 -2.9743  1.6170
  100MOL   H32032198   6.897   5.272   4.017  0.5549  0.1979 -0.3170
  100MOL   H32132199   6.944   5.419   3.955  1.1671 -2.4939 -0.5878
  100MOL   H32232200   6.771   5.551   3.808 -0.0504  1.6009 -1.1703
  101MOL     C132201   6.185   3.682   3.658 -0.2296  0.2830 -0.4913
  101MOL     C232202   6.096   3.602   3.564  0.4256  0.2122  0.2693
  101MOL     C332203   5.944   3.657   3.562  0.4181 -0.3876 -0.1367
  101MOL     O432204   5.895   3.694   3.672 -0.1524  0.2071 -0.1615
  101MOL     N532205   5.868   3.665   3.448  0.1463 -0.2336  0.3114
  101MOL     C632206   5.919   3.632   3.311  0.1470 -0.3678 -0.7314
  101MOL     C732207   5.734   3.719   3.448  0.0080 -0.9850 -0.9069
  101MOL     H832208   6.205   3.781   3.618 -0.7204  1.7773  2.7472
  101MOL     H932209   6.288   3.647   3.668 -0.7263 -0.6759  1.7063
  101MOL    H1032210   6.143   3.610   3.466 -1.2452  1.4653 -0.4552
  101MOL    H1132211   5.836   3.605   3.246 -1.0429  2.2661 -0.3717
  101MOL    H1232212   5.978   3.714   3.269  1.2675 -1.1474 -0.7138
  101MOL    H1332213   5.985   3.545   3.313  1.3323  0.5043 -0.7318
  101MOL    H1432214   5.732   3.810   3.509  3.7483  0.3116 -2.5622
  101MOL    H1532215   5.678   3.636   3.491  2.0813 -2.0246 -0.1687
  101MOL    H1632216   5.692   3.732   3.348  0.7356 -2.3190 -1.3978
  101MOL    H1732217   6.140   3.693   3.757 -2.0038 -0.5313 -1.1944
  101MOL    C1832218   6.101   3.460   3.618 -0.2673  0.4288  0.0018
  101MOL    C1932219   6.030   3.348   3.547 -0.9002  0.0057 -0.1613
  101MOL    C2032220   5.983   3.236   3.640 -0.5235  0.6962 -0.6324
  101MOL    O2132221   6.072   3.160   3.669  0.1048  0.3725 -0.0867
  101MOL    N2232222   5.856   3.208   3.662 -0.7288 -0.5539  0.2166
  101MOL    C2332223   5.748   3.287   3.598 -0.3182 -0.5245  0.1564
  101MOL    C2432224   5.812   3.088   3.733 -0.3443  0.1849  0.4264
  101MOL    H2532225   6.205   3.433   3.638 -0.3324  1.2844  1.6076
  101MOL    H2632226   6.052   3.471   3.715 -2.0166  2.8508 -1.0927
  101MOL    H2732227   5.943   3.393   3.499 -1.9713 -1.2276  0.5770
  101MOL    H2832228   5.654   3.249   3.638 -1.2074  0.8228 -0.6084
  101MOL    H2932229   5.742   3.396   3.609 -1.8595 -0.6193  0.4043
  101MOL    H3032230   5.746   3.254   3.494 -4.3848 -0.1006  0.0108
  101MOL    H3132231   5.741   3.112   3.813 -0.5147 -0.7975  0.5772
  101MOL    H3232232   5.892   3.039   3.787 -0.2663  2.7586  2.7638
  101MOL    H3332233   5.773   3.013   3.664 -2.9313  1.3072  0.6072
  101MOL    C3432234   6.119   3.292   3.431 -0.0260  0.1581  0.5671
  101MOL    C3532235   6.065   3.182   3.334  0.2395  0.5532  0.0082
  101MOL    C3632236   5.962   3.265   3.245 -0.2665  0.8634  0.1286
  101MOL    O3732237   5.847   3.266   3.283 -0.1847 -0.0632  0.6311
  101MOL    N3832238   5.995   3.313   3.118 -0.2976  0.2845  0.3705
  101MOL    C3932239   6.129   3.328   3.065 -0.2340 -0.2028 -1.1257
  101MOL    C4032240   5.888   3.366   3.027 -0.2777 -0.5193 -0.5784
  101MOL    H4132241   6.163   3.373   3.373  1.5481 -1.1255 -0.0593
  101MOL    H4232242   6.212   3.254   3.474  1.7878  0.7702 -2.6898
  101MOL    H4332243   6.151   3.162   3.270  1.3661  0.8039  1.4255
  101MOL    H4432244   6.142   3.282   2.967  2.0086 -1.9872 -0.0338
  101MOL    H4532245   6.163   3.432   3.056  1.5099 -0.5738  0.7774
  101MOL    H4632246   6.213   3.295   3.127 -0.6626 -0.0221 -0.4435
  101MOL    H4732247   5.822   3.431   3.084 -1.6987 -1.0717 -1.5588
  101MOL    H4832248   5.842   3.292   2.961  1.4888  0.6584 -3.2095
  101MOL    H4932249   5.930   3.443   2.963 -1.7426 -0.6165 -1.7027
  101MOL    C5032250   6.026   3.042   3.368  0.5806 -0.2605 -0.7129
  101MOL    C5132251   6.006   2.938   3.260 -0.3292  0.2194 -0.2529
  101MOL    C5232252   5.887   2.842   3.286 -0.1118 -0.4245 -0.2934
  101MOL    O5332253   5.905   2.750   3.361  0.9314 -0.3372 -0.1595
  101MOL    N5432254   5.774   2.856   3.210 -0.1662 -0.5646 -0.6230
  101MOL    C5532255   5.757   2.959   3.113 -0.2206 -0.5139  0.8810
  101MOL    C5632256   5.655   2.773   3.229 -0.1350 -0.1270 -0.6790
  101MOL    H5732257   6.100   3.003   3.438  0.0371  0.5088  0.3101
  101MOL    H5832258   5.933   3.046   3.425  0.0320  1.1038 -1.6623
  101MOL    H5932259   5.999   2.994   3.167  0.0020 -1.0835 -1.0751
  101MOL    H6032260   5.796   2.932   3.015 -0.7215  0.5652  0.3780
  101MOL    H6132261   5.652   2.984   3.098  0.7463  3.7859  0.6604
  101MOL    H6232262   5.788   3.059   3.143  1.1550 -1.1445  1.5844
  101MOL    H6332263   5.632   2.749   3.333 -1.0360  2.8600 -0.1529
  101MOL    H6432264   5.683   2.678   3.183 -0.3620 -2.0156  2.9765
  101MOL    H6532265   5.563   2.824   3.199 -1.5009 -2.0218  0.1282
  101MOL    C6632266   6.138   2.855   3.232  0.2465 -0.2984 -0.4630
  101MOL    C6732267   6.178   2.813   3.087  0.0470  0.0052  1.2294
  101MOL    C6832268   6.217   2.942   3.011 -0.1353  0.6322  0.0213
  101MOL    O6932269   6.135   2.993   2.940 -0.3115 -0.2215  0.4144
  101MOL    N7032270   6.342   2.980   3.013 -0.9297  0.5312 -0.2639
  101MOL    C7132271   6.392   3.074   2.911  0.2884 -0.2145 -0.1323
  101MOL    C7232272   6.449   2.935   3.113  1.1158 -0.0913  0.4211
  101MOL    H7332273   6.218   2.922   3.264  1.2985 -2.6150  1.9879
  101MOL    H7432274   6.155   2.767   3.294  1.8973  0.8674  0.7912
  101MOL    H7532275   6.264   2.748   3.098  0.2423  0.3557  1.8087
  101MOL    H7632276   6.496   3.046   2.893  0.4051 -0.8138  1.3757
  101MOL    H7732277   6.337   3.072   2.817  0.0888  1.1992 -0.0496
  101MOL    H7832278   6.397   3.179   2.937  0.7749 -0.3773  0.4541
  101MOL    H7932279   6.455   2.827   3.118 -0.1927 -0.2633 -1.1296
  101MOL    H8032280   6.434   2.975   3.213 -1.7176 -1.3339  0.5571
  101MOL    H8132281   6.547   2.966   3.078 -0.1793  0.6123 -2.7697
  101MOL    C8232282   6.066   2.725   3.018 -0.9057  0.1474 -0.9317
  101MOL    C8332283   6.067   2.575   3.061 -0.7865  0.4182 -0.2486
  101MOL    C8432284   6.186   2.496   2.995  0.7660  0.1104 -0.0836
  101MOL    O8532285   6.195   2.493   2.873 -0.1017  0.2983  0.0525
  101MOL    N8632286   6.273   2.417   3.067  0.5415 -0.8388 -0.2167
  101MOL    C8732287   6.365   2.327   2.992 -0.0324 -0.1605 -0.1939
  101MOL    C8832288   6.291   2.433   3.207 -0.5112  0.2646 -0.2582
  101MOL    H8932289   5.967   2.767   3.034  0.7493  3.6145  0.7922
  101MOL    H9032290   6.079   2.740   2.911  1.4008 -0.5799 -0.7947
  101MOL    H9132291   6.062   2.567   3.170 -0.5661  0.3234 -0.2444
  101MOL    H9232292   6.324   2.274   2.906 -0.8350  0.4973 -0.2206
  101MOL    H9332293   6.440   2.394   2.952 -1.6130  1.6571 -0.1404
  101MOL    H9432294   6.412   2.256   3.061  1.2206  0.3555 -0.5194
  101MOL    H9532295   6.380   2.378   3.238  0.3205  0.9359 -1.4489
  101MOL    H9632296   6.206   2.400   3.267  0.3817  0.3478  1.0775
  101MOL    H9732297   6.301   2.539   3.229  0.4695  0.1057  0.0908
  101MOL    C9832298   5.929   2.514   3.025  0.5477  0.7876  0.3732
  101MOL    C9932299   5.882   2.491   2.878  0.6391 -0.3089  0.3216
  101MOL   C10032300   5.877   2.623   2.794  0.3020  0.5147  0.5495
  101MOL   O10132301   5.807   2.709   2.837  0.3659 -0.0927  0.3293
  101MOL   N10232302   5.944   2.641   2.680  0.1644 -0.2445 -0.4558
  101MOL   C10332303   6.002   2.531   2.597 -0.0862 -0.1950 -0.8108
  101MOL   C10432304   5.957   2.770   2.616 -0.2466  0.4347  0.6927
  101MOL   H10532305   5.931   2.416   3.072  1.4793  0.7738  0.3236
  101MOL   H10632306   5.858   2.564   3.091  0.5428 -1.0709  1.8144
  101MOL   H10732307   5.943   2.415   2.829 -0.9187 -0.5049 -1.3877
  101MOL   H10832308   6.027   2.564   2.496  1.5746  0.3354 -0.2338
  101MOL   H10932309   6.084   2.483   2.650 -0.6085  0.9705  1.0971
  101MOL   H11032310   5.937   2.443   2.594 -2.5534  1.5835 -1.6285
  101MOL   H11132311   5.869   2.833   2.628 -0.3184  0.2766  0.9790
  101MOL   H11232312   5.993   2.761   2.513  0.4121  1.3240  0.8441
  101MOL   H11332313   6.041   2.818   2.665 -0.5958  1.7712  0.0162
  101MOL   C11432314   5.740   2.425   2.888  0.0924 -0.3365 -0.0135
  101MOL   C11532315   5.674   2.360   2.760  0.1247 -0.2559 -0.6736
  101MOL   C11632316   5.519   2.340   2.798 -0.8653 -0.3295 -0.0221
  101MOL   O11732317   5.486   2.225   2.828  0.2373  0.0772 -0.1756
  101MOL   N11832318   5.432   2.440   2.794  0.0866  0.1265 -0.7649
  101MOL   C11932319   5.473   2.577   2.749  1.0086  0.0392 -0.0075
  101MOL   C12032320   5.291   2.422   2.816  0.6959 -0.4172  0.3180
  101MOL   H12132321   5.757   2.349   2.965  0.5835  0.7442  0.9522
  101MOL   H12232322   5.679   2.501   2.935  1.2801  0.6244  0.0051
  101MOL   H12332323   5.677   2.436   2.682 -3.4704  0.5169 -0.1381
  101MOL   H12432324   5.428   2.648   2.819 -0.2026 -2.1391  1.4684
  101MOL   H12532325   5.579   2.602   2.740  1.4333 -0.9828  1.7795
  101MOL   H12632326   5.418   2.592   2.657  0.1143 -1.4458  0.2724
  101MOL   H12732327   5.244   2.505   2.870  2.4944  1.0156 -0.2952
  101MOL   H12832328   5.269   2.334   2.878 -2.3769 -1.4346 -2.0991
  101MOL   H12932329   5.238   2.414   2.721 -0.4617  1.3430  0.7808
  101MOL   C13032330   5.747   2.235   2.706 -0.0397  0.1279 -0.0078
  101MOL   C13132331   5.708   2.175   2.563 -0.8937 -0.0181 -0.3995
  101MOL   C13232332   5.636   2.275   2.461 -0.0011 -0.0123 -0.1446
  101MOL   O13332333   5.507   2.285   2.466  0.3573 -0.4963 -0.4173
  101MOL   N13432334   5.701   2.329   2.352 -0.2759 -0.1583 -0.1541
  101MOL   C13532335   5.848   2.328   2.332  0.7954 -0.0535 -0.7936
  101MOL   C13632336   5.622   2.377   2.238  0.3007 -0.7625 -0.6823
  101MOL   H13732337   5.854   2.255   2.714  0.2236 -1.5221  0.6867
  101MOL   H13832338   5.729   2.158   2.781 -4.5531  1.3227  0.3159
  101MOL   H13932339   5.806   2.152   2.521 -0.4285  1.7142 -0.3074
  101MOL   H14032340   5.904   2.314   2.425 -3.0877 -2.2798  1.3211
  101MOL   H14132341   5.873   2.254   2.255 -0.9017  0.6808 -2.0667
  101MOL   H14232342   5.872   2.428   2.297  2.0246 -0.5065 -1.2756
  101MOL   H14332343   5.698   2.410   2.167 -0.4612  1.0863 -0.6868
  101MOL   H14432344   5.568   2.468   2.266 -0.9910 -2.4478  2.6406
  101MOL   H14532345   5.566   2.303   2.182 -0.0696  1.0968 -2.8631
  101MOL   C14632346   5.634   2.039   2.573  0.2590 -0.3151  0.1081
  101MOL   C14732347   5.616   1.956   2.443  1.2402 -0.6302  0.6747
  101MOL   C14832348   5.484   1.882   2.431  0.1026 -1.1524 -0.5118
  101MOL   O14932349   5.462   1.789   2.511 -0.0059 -0.1529 -0.4606
  101MOL   N15032350   5.400   1.911   2.334 -0.1397  0.8348 -0.8828
  101MOL   C15132351   5.366   2.037   2.267  0.3304 -0.0096 -0.9714
  101MOL   C15232352   5.308   1.802   2.284 -0.5942 -0.4204 -0.4835
  101MOL   H15332353   5.682   1.974   2.646 -0.6786  0.0432  1.0578
  101MOL   H15432354   5.536   2.053   2.618  0.5106 -0.0394  0.5663
  101MOL   H15532355   5.624   2.028   2.361  2.0906  0.4641  1.6960
  101MOL   H15632356   5.452   2.062   2.205  0.9557  1.3842  0.4119
  101MOL   H15732357   5.278   2.027   2.204  1.5595 -3.8462 -2.2169
  101MOL   H15832358   5.349   2.122   2.333 -0.9793  0.0322 -1.3626
  101MOL   H15932359   5.343   1.702   2.308  0.0776 -0.0600  0.0572
  101MOL   H16032360   5.310   1.805   2.175  1.5593  1.2856 -0.4393
  101MOL   H16132361   5.206   1.823   2.315 -1.4890 -3.4032 -1.2428
  101MOL   C16232362   5.734   1.860   2.417  0.9345  0.2310  0.5185
  101MOL   C16332363   5.741   1.807   2.267  0.4567 -0.1626 -0.4689
  101MOL   C16432364   5.810   1.670   2.260  0.4268  0.4820 -0.2736
  101MOL   O16532365   5.933   1.667   2.263  0.0407 -0.4035  0.1235
  101MOL   N16632366   5.734   1.560   2.264 -0.5368 -1.1051 -0.0582
  101MOL   C16732367   5.801   1.431   2.241 -0.2719  0.0035 -0.6567
  101MOL   C16832368   5.593   1.552   2.253  0.0110  0.4256 -0.6271
  101MOL   H16932369   5.825   1.905   2.456  1.4467 -1.4685  1.3134
  101MOL   H17032370   5.733   1.774   2.483  1.5302  0.4116  0.7666
  101MOL   H17132371   5.636   1.798   2.238  0.5301  1.0417 -1.1448
  101MOL   H17232372   5.846   1.437   2.142 -0.4569 -1.2683 -0.8319
  101MOL   H17332373   5.876   1.416   2.320 -1.5521  1.0434  0.7879
  101MOL   H17432374   5.734   1.345   2.239  0.2425 -0.4109 -0.3840
  101MOL   H17532375   5.554   1.615   2.332  0.4549  0.4857 -0.4522
  101MOL   H17632376   5.554   1.459   2.293 -2.2271  0.5419 -2.4446
  101MOL   H17732377   5.549   1.589   2.160 -4.0281 -1.0383  0.6151
  101MOL   C17832378   5.810   1.906   2.175  0.3713  0.2374 -0.4939
  101MOL   C17932379   5.781   1.887   2.022  0.8482  0.7150  0.4022
  101MOL   C18032380   5.633   1.934   1.992  0.7244 -0.2974  0.0441
  101MOL   O18132381   5.535   1.865   2.023 -0.7926 -0.4059 -0.0705
  101MOL   N18232382   5.609   2.048   1.922 -0.1381 -0.7666  0.4157
  101MOL   C18332383   5.471   2.104   1.901  0.4349 -0.3145  0.0225
  101MOL   C18432384   5.713   2.138   1.855 -0.3134  0.7589 -0.2499
  101MOL   H18532385   5.779   2.005   2.211 -1.1315 -0.3601 -0.1437
  101MOL   H18632386   5.918   1.910   2.192  0.2246  2.7148  0.1549
  101MOL   H18732387   5.844   1.962   1.975  1.8022 -0.5588 -0.3911
  101MOL   H18832388   5.393   2.065   1.966 -1.0612  1.6005 -0.5886
  101MOL   H18932389   5.456   2.212   1.897 -1.5815 -0.5525  0.9208
  101MOL   H19032390   5.436   2.075   1.802  2.5572 -1.4515 -0.4290
  101MOL   H19132391   5.784   2.172   1.931  0.7511  0.5056 -1.1279
  101MOL   H19232392   5.664   2.228   1.819 -0.7320  1.5623  2.1855
  101MOL   H19332393   5.752   2.096   1.763  1.0123 -0.8003  0.9811
  101MOL   C19432394   5.814   1.752   1.950 -0.9384  0.1146 -0.1484
  101MOL   C19532395   5.810   1.748   1.794  0.2379 -0.5614 -0.5136
  101MOL   C19632396   5.688   1.679   1.728 -0.1951  0.0594  0.7954
  101MOL   O19732397   5.656   1.571   1.782  0.5800  0.2884  0.2996
  101MOL   N19832398   5.624   1.731   1.620  0.4071 -0.5255  0.7631
  101MOL   C19932399   5.524   1.655   1.542  0.1430 -0.5445  0.4709
  101MOL   C20032400   5.669   1.857   1.551  0.3642  0.2008  0.1943
  101MOL   H20132401   5.914   1.714   1.971 -0.9054  0.1731 -0.2017
  101MOL   H20232402   5.752   1.673   1.994 -0.1242 -0.1487  0.5453
  101MOL   H20332403   5.794   1.852   1.762  0.1772 -0.8486 -1.4324
  101MOL   H20432404   5.435   1.716   1.524  1.4125  1.0127 -0.7832
  101MOL   H20532405   5.553   1.628   1.440  1.6842 -0.7699  0.9505
  101MOL   H20632406   5.491   1.564   1.591 -0.8232 -0.9581 -0.9192
  101MOL   H20732407   5.634   1.869   1.448 -0.4018  3.2717  0.7714
  101MOL   H20832408   5.777   1.842   1.543  0.4398  0.2398  1.1101
  101MOL   H20932409   5.643   1.951   1.599  1.1619  1.0926 -1.0903
  101MOL   C21032410   5.939   1.694   1.726 -0.5399 -1.0299  0.2017
  101MOL   C21132411   5.981   1.548   1.753 -0.4288  0.3379  0.5320
  101MOL   C21232412   6.067   1.531   1.883  0.3212  0.4006  0.9722
  101MOL   O21332413   6.143   1.626   1.915 -0.3307  0.0574 -0.7459
  101MOL   N21432414   6.063   1.422   1.960 -0.0880  0.2747 -0.0104
  101MOL   C21532415   5.998   1.288   1.925  0.6170  0.0754  0.1859
  101MOL   C21632416   6.152   1.415   2.076  0.8628  0.0779  1.0095
  101MOL   H21732417   5.915   1.692   1.620  1.3623  2.1981 -0.3558
  101MOL   H21832418   6.021   1.766   1.735 -1.3537  0.0270 -0.7635
  101MOL   H21932419   5.888   1.492   1.751 -1.1169  1.4615  0.0302
  101MOL   H22032420   5.986   1.218   2.007 -0.1799  0.5806  0.4994
  101MOL   H22132421   5.897   1.307   1.889  0.8819  1.8396  0.3591
  101MOL   H22232422   6.055   1.237   1.846  1.3091  0.7799  0.2210
  101MOL   H22332423   6.120   1.475   2.162 -1.3298  0.0577  0.2535
  101MOL   H22432424   6.256   1.433   2.053  1.1596 -0.9698  1.5045
  101MOL   H22532425   6.156   1.311   2.108  0.0852 -0.5026 -0.7127
  101MOL   C22632426   6.057   1.485   1.633  0.3189  0.3780 -0.2449
  101MOL   C22732427   6.195   1.538   1.583 -0.2218  0.5833  0.0326
  101MOL   C22832428   6.184   1.681   1.512  0.3370  0.7786  0.8265
  101MOL   O22932429   6.085   1.704   1.439 -0.0888  0.4231 -0.6470
  101MOL   N23032430   6.278   1.778   1.538  0.0375 -0.2366  0.2993
  101MOL   C23132431   6.421   1.748   1.560 -0.1395 -0.1516 -0.1899
  101MOL   C23232432   6.249   1.908   1.477 -0.3733  0.8852 -0.4145
  101MOL   H23332433   6.068   1.378   1.652  1.9074  0.6816  0.6375
  101MOL   H23432434   5.991   1.480   1.547  1.2538 -0.3703 -0.9339
  101MOL   H23532435   6.256   1.553   1.673 -0.1701 -0.4176  0.1730
  101MOL   H23632436   6.468   1.731   1.464 -0.4358 -0.0694 -0.3498
  101MOL   H23732437   6.476   1.828   1.609 -0.9901  0.6091 -0.4588
  101MOL   H23832438   6.439   1.661   1.623 -1.8639  0.1808  0.8180
  101MOL   H23932439   6.165   1.956   1.527  0.9838  2.1335  0.6988
  101MOL   H24032440   6.222   1.907   1.372 -1.3073  0.3229 -0.1854
  101MOL   H24132441   6.343   1.963   1.472  0.7329 -0.9517 -0.5258
  101MOL   C24232442   6.278   1.422   1.499 -0.2550 -0.6610 -0.7425
  101MOL   C24332443   6.220   1.394   1.354 -0.9987  0.3709  0.0555
  101MOL   C24432444   6.079   1.324   1.339  0.3379 -0.3630 -0.4779
  101MOL   O24532445   6.050   1.238   1.419 -0.3830  0.4739 -0.5754
  101MOL   N24632446   5.996   1.340   1.230  0.8556 -0.5276 -0.5234
  101MOL   C24732447   5.876   1.259   1.212 -1.0730  0.6198 -0.1532
  101MOL   C24832448   6.002   1.449   1.143 -0.1694  0.1662  0.3068
  101MOL   H24932449   6.383   1.451   1.493 -0.7220  0.8604 -1.8373
  101MOL   H25032450   6.265   1.334   1.563  1.4757 -1.1563 -1.0329
  101MOL   H25132451   6.210   1.485   1.294 -0.8438  0.8842  0.8041
  101MOL   H25232452   5.811   1.291   1.293 -0.1590 -0.6847  1.1280
  101MOL   H25332453   5.828   1.279   1.116  0.9348  2.1085 -0.8730
  101MOL   H25432454   5.894   1.153   1.231 -1.7320  0.4846 -0.2528
  101MOL   H25532455   6.018   1.543   1.196 -2.5934 -0.2624  1.9111
  101MOL   H25632456   5.906   1.468   1.094 -0.1856 -0.5654  0.0580
  101MOL   H25732457   6.077   1.438   1.065  0.2093 -0.8092  0.8070
  101MOL   C25832458   6.324   1.320   1.268 -0.1299 -0.2760 -0.0085
  101MOL   C25932459   6.446   1.392   1.215 -0.1505  0.0498  0.3980
  101MOL   C26032460   6.405   1.476   1.090  0.6059 -0.2945  0.4629
  101MOL   O26132461   6.398   1.415   0.983 -0.1526 -0.2270  0.5818
  101MOL   N26232462   6.375   1.608   1.097 -0.3493 -0.2851 -0.8852
  101MOL   C26332463   6.383   1.690   1.217  0.0045 -0.4285  0.2045
  101MOL   C26432464   6.355   1.680   0.969  0.2023  0.3580 -0.1765
  101MOL   H26532465   6.343   1.231   1.329  2.1601  0.6720  0.7047
  101MOL   H26632466   6.273   1.272   1.184 -0.5782 -1.9220  1.1657
  101MOL   H26732467   6.475   1.463   1.293 -0.6128  1.1916 -0.4587
  101MOL   H26832468   6.347   1.641   1.308 -0.2144 -2.3990 -0.9050
  101MOL   H26932469   6.474   1.747   1.229 -0.3948 -0.1185  1.9510
  101MOL   H27032470   6.317   1.776   1.207 -1.3738 -1.4298  0.4553
  101MOL   H27132471   6.404   1.641   0.880  1.2829  0.8416  0.1958
  101MOL   H27232472   6.396   1.781   0.966 -1.2219  0.9404 -0.1520
  101MOL   H27332473   6.247   1.687   0.959  0.2285 -0.8361 -1.4297
  101MOL   C27432474   6.557   1.295   1.178 -0.6752 -0.4208 -0.3718
  101MOL   C27532475   6.681   1.346   1.090 -0.3854 -0.2083  0.1856
  101MOL   C27632476   6.781   1.234   1.063 -0.7410  0.1963  0.3173
  101MOL   O27732477   6.848   1.199   1.153  0.3164  0.0731  0.1994
  101MOL   N27832478   6.783   1.178   0.937  0.5979  0.4190  0.4746
  101MOL   C27932479   6.694   1.222   0.823 -0.3711 -0.4263 -0.4907
  101MOL   C28032480   6.870   1.063   0.918  0.1780  0.4283 -0.0254
  101MOL   H28132481   6.612   1.255   1.264 -0.8622 -2.6507 -1.2508
  101MOL   H28232482   6.522   1.209   1.120 -0.7743 -0.4867 -0.2150
  101MOL   H28332483   6.641   1.385   0.996  0.2135  1.4161  0.5887
  101MOL   H28432484   6.719   1.164   0.734  1.2483  0.5670 -0.7125
  101MOL   H28532485   6.590   1.194   0.836 -0.3192 -0.9798 -1.2736
  101MOL   H28632486   6.713   1.324   0.791  3.1291 -1.0088 -0.5310
  101MOL   H28732487   6.836   0.983   0.983  0.4766  1.0701  0.9357
  101MOL   H28832488   6.973   1.090   0.939 -0.5202  1.6091  2.1493
  101MOL   H28932489   6.865   1.013   0.822  1.1755  0.9588 -0.3557
  101MOL   C29032490   6.743   1.476   1.143  0.7406 -0.5002  0.6337
  101MOL   C29132491   6.833   1.482   1.271  0.0490 -0.0921  0.0890
  101MOL   C29232492   6.766   1.473   1.405 -0.4685 -0.1945 -0.2429
  101MOL   O29332493   6.667   1.536   1.433  0.1791  0.1540 -0.1950
  101MOL   N29432494   6.824   1.388   1.498 -0.9496 -0.3164 -0.8806
  101MOL   C29532495   6.924   1.287   1.465 -0.4995 -0.1293 -0.2203
  101MOL   C29632496   6.786   1.391   1.636  0.2934 -0.1301 -0.2494
  101MOL   H29732497   6.802   1.521   1.064  1.5857 -0.7832  1.0912
  101MOL   H29832498   6.663   1.547   1.164  0.9994 -0.2554  0.8022
  101MOL   H29932499   6.916   1.413   1.254 -1.5764 -2.0154 -0.2005
  101MOL   H30032500   7.023   1.324   1.437 -1.2076  2.9910  1.1972
  101MOL   H30132501   6.933   1.214   1.545  1.2718  2.9446  2.4904
  101MOL   H30232502   6.891   1.217   1.387 -2.9454  0.7046  0.0212
  101MOL   H30332503   6.687   1.349   1.653  0.4482 -0.3077  0.2253
  101MOL   H30432504   6.784   1.493   1.676 -1.3976  0.1129 -0.9027
  101MOL   H30532505   6.849   1.340   1.708 -1.2488 -1.4487  0.1854
  101MOL   C30632506   6.914   1.618   1.272  0.0150  0.1850  0.3697
  101MOL   C30732507   6.833   1.748   1.249 -0.0640 -0.6102 -0.5328
  101MOL   C30832508   6.904   1.881   1.304 -0.0867  0.0342  0.0667
  101MOL   O30932509   7.026   1.895   1.274  0.1944 -0.4286  0.7285
  101MOL   N31032510   6.826   1.976   1.372 -0.0018 -0.3442 -0.1902
  101MOL   C31132511   6.684   1.967   1.401 -0.1750 -0.2708 -0.1579
  101MOL   C31232512   6.875   2.107   1.399  0.2207  0.0191  0.2337
  101MOL   H31332513   6.983   1.625   1.356  0.1540  0.0956  0.2631
  101MOL   H31432514   6.984   1.612   1.189 -1.1459 -1.3075 -0.5391
  101MOL   H31532515   6.831   1.769   1.142  0.3999 -0.8996 -0.6019
  101MOL   H31632516   6.665   2.039   1.480 -0.1054  0.1829 -0.5492
  101MOL   H31732517   6.623   1.990   1.313  2.0241  1.8581 -1.2139
  101MOL   H31832518   6.657   1.866   1.432 -1.1267  0.0166 -0.0167
  101MOL   H31932519   6.851   2.126   1.503  0.0878 -2.1154  0.6286
  101MOL   H32032520   6.824   2.182   1.339  0.9904 -0.0124 -0.4642
  101MOL   H32132521   6.983   2.113   1.396  0.2380  0.4614  1.4924
  101MOL   H32232522   6.731   1.738   1.284 -0.5111 -0.7278 -1.8353
  102MOL     C132523   6.150   5.038   6.001 -0.1293  0.1315  0.8871
  102MOL     C232524   6.079   5.107   5.884 -0.0648  0.7126 -0.4931
  102MOL     C332525   6.013   5.246   5.924 -0.1378 -0.3911  0.0747
  102MOL     O432526   5.905   5.240   5.988  0.0536  0.4011 -0.0882
  102MOL     N532527   6.067   5.365   5.890 -0.3008  0.1306 -0.2608
  102MOL     C632528   6.000   5.486   5.938 -0.1281  0.0119  0.3435
  102MOL     C732529   6.205   5.376   5.840  0.4883 -0.4265  0.5079
  102MOL     H832530   6.209   4.951   5.973 -0.4828 -0.1597  1.0501
  102MOL     H932531   6.075   5.002   6.071  0.0196  1.3591  1.6973
  102MOL    H1032532   6.151   5.121   5.803 -0.3040  2.6492 -0.4033
  102MOL    H1132533   5.894   5.470   5.924  0.3609 -2.2707 -1.0273
  102MOL    H1232534   6.019   5.500   6.044 -0.4773 -1.7639  0.6479
  102MOL    H1332535   6.029   5.577   5.885  3.5603 -1.8769 -1.0644
  102MOL    H1432536   6.247   5.477   5.844  1.0646 -0.6827  0.8997
  102MOL    H1532537   6.197   5.348   5.735  0.0301  0.5171  0.2841
  102MOL    H1632538   6.273   5.320   5.904 -0.3786 -0.1248  1.7040
  102MOL    H1732539   6.214   5.118   6.039 -0.2115  1.8897 -2.4428
  102MOL    C1832540   5.966   5.007   5.830  0.3589  1.2765  0.4330
  102MOL    C1932541   5.905   5.031   5.683 -0.4843 -0.4132  0.0501
  102MOL    C2032542   5.783   4.935   5.662  0.1508  0.2244 -0.4996
  102MOL    O2132543   5.807   4.813   5.671 -0.1014 -0.1441 -0.1744
  102MOL    N2232544   5.660   4.983   5.639  0.3829  0.7823  1.0653
  102MOL    C2332545   5.618   5.121   5.643 -0.5462  0.0402 -0.3096
  102MOL    C2432546   5.552   4.889   5.650  0.3362  0.3338  0.5831
  102MOL    H2532547   6.012   4.909   5.817 -0.9367  0.8957 -1.5632
  102MOL    H2632548   5.883   5.003   5.901 -0.6785 -0.8416 -0.8635
  102MOL    H2732549   5.869   5.134   5.689 -2.0950 -0.7328 -3.0446
  102MOL    H2832550   5.514   5.142   5.616 -1.2468 -0.7999  1.6064
  102MOL    H2932551   5.639   5.158   5.743  2.0482 -0.8591 -0.4954
  102MOL    H3032552   5.683   5.186   5.585 -0.8884  1.0335  0.3994
  102MOL    H3132553   5.561   4.819   5.567 -0.9351  0.2168  0.5304
  102MOL    H3232554   5.455   4.939   5.658  0.5302  0.7905  0.0676
  102MOL    H3332555   5.545   4.827   5.740 -0.1520 -1.3870 -0.6040
  102MOL    C3432556   6.016   5.031   5.576 -0.1981  0.0780 -0.4174
  102MOL    C3532557   5.977   5.083   5.434 -0.2481  0.6258 -0.0726
  102MOL    C3632558   6.075   5.030   5.322  0.2159  0.0699  0.3832
  102MOL    O3732559   6.195   5.062   5.324  0.0981  0.4821  0.3631
  102MOL    N3832560   6.029   4.944   5.231 -1.0402  0.1523 -0.4784
  102MOL    C3932561   5.897   4.882   5.225 -0.2679 -0.1166 -0.3752
  102MOL    C4032562   6.125   4.888   5.132  0.1368  0.1508  0.1121
  102MOL    H4132563   6.100   5.095   5.602 -1.6232  0.9904  2.1435
  102MOL    H4232564   6.052   4.929   5.560  0.9309  0.4357 -0.1429
  102MOL    H4332565   5.871   5.057   5.429  0.0914 -0.4368 -2.1204
  102MOL    H4432566   5.874   4.838   5.322 -1.2143  1.0361 -0.0685
  102MOL    H4532567   5.818   4.957   5.216 -1.7329 -0.7883  5.2273
  102MOL    H4632568   5.882   4.814   5.141  0.2095  0.2520 -0.7647
  102MOL    H4732569   6.221   4.940   5.130  1.3217 -1.9643 -0.8562
  102MOL    H4832570   6.088   4.884   5.030  1.1377  0.4159 -0.2697
  102MOL    H4932571   6.151   4.786   5.163 -0.2508  0.1072  0.3045
  102MOL    C5032572   5.987   5.241   5.415  0.2830  0.1329  0.1934
  102MOL    C5132573   5.942   5.301   5.279 -0.2690  0.2467  0.0627
  102MOL    C5232574   5.985   5.446   5.291  0.1171 -0.1745  0.3233
  102MOL    O5332575   5.921   5.516   5.370 -0.9237 -0.4788 -0.1401
  102MOL    N5432576   6.086   5.503   5.219 -0.0644 -0.1153  0.9495
  102MOL    C5532577   6.103   5.647   5.218  0.2360  0.4930  0.1693
  102MOL    C5632578   6.180   5.414   5.149 -0.7764  0.4042 -0.9127
  102MOL    H5732579   5.943   5.287   5.504 -0.8888 -1.3036  0.3841
  102MOL    H5832580   6.092   5.267   5.405 -0.2296  0.8451 -4.2780
  102MOL    H5932581   6.003   5.261   5.198  2.1293 -0.5249  2.1732
  102MOL    H6032582   6.005   5.695   5.220 -0.7762 -1.4881 -0.4523
  102MOL    H6132583   6.167   5.681   5.300  1.6689  1.3788 -1.2852
  102MOL    H6232584   6.144   5.686   5.125 -0.3556 -0.2060 -0.3818
  102MOL    H6332585   6.245   5.354   5.213 -1.5419 -0.7454 -1.2090
  102MOL    H6432586   6.247   5.487   5.104  0.4738 -0.0539  0.1692
  102MOL    H6532587   6.150   5.351   5.066  0.8990 -1.3876 -0.1947
  102MOL    C6632588   5.791   5.273   5.244  0.0341  0.6558  0.0075
  102MOL    C6732589   5.776   5.224   5.101 -0.0335  0.0891 -0.1877
  102MOL    C6832590   5.822   5.325   4.989 -0.0979  0.1581 -0.4574
  102MOL    O6932591   5.773   5.436   4.991 -0.0455  0.2208  0.1260
  102MOL    N7032592   5.918   5.292   4.901 -0.1793 -0.2999  0.1315
  102MOL    C7132593   5.982   5.397   4.826 -0.3959 -0.2681  0.3910
  102MOL    C7232594   5.973   5.158   4.891 -0.1598 -0.4909 -0.3209
  102MOL    H7332595   5.769   5.181   5.296  2.0349 -0.3249 -0.8528
  102MOL    H7432596   5.723   5.347   5.286 -0.7317 -1.2561  2.2420
  102MOL    H7532597   5.844   5.139   5.105 -0.2248 -0.0269  0.8974
  102MOL    H7632598   5.911   5.433   4.751  0.6426  0.7726 -0.1069
  102MOL    H7732599   6.016   5.478   4.891 -0.9566  0.9323 -0.7886
  102MOL    H7832600   6.066   5.356   4.770  1.7681  2.5285  1.4716
  102MOL    H7932601   5.894   5.083   4.900 -0.7580  0.4491  2.9637
  102MOL    H8032602   6.042   5.145   4.975 -0.8336 -0.8436  0.1841
  102MOL    H8132603   6.012   5.156   4.789 -1.2039  2.9742 -0.8333
  102MOL    C8232604   5.636   5.150   5.075  0.1645  0.0948 -0.1478
  102MOL    C8332605   5.512   5.231   5.023 -0.3272  0.2682  0.6406
  102MOL    C8432606   5.476   5.332   5.131  0.3177  0.2811  0.1839
  102MOL    O8532607   5.484   5.305   5.253  0.4510 -1.0342 -0.0497
  102MOL    N8632608   5.445   5.459   5.092  0.1984  0.3454 -0.8104
  102MOL    C8732609   5.453   5.561   5.195  0.4330 -0.0938 -0.1169
  102MOL    C8832610   5.423   5.510   4.954  0.0258  0.5347  0.5570
  102MOL    H8932611   5.651   5.070   5.002 -0.8437  0.3087 -0.6030
  102MOL    H9032612   5.613   5.093   5.164  0.0959 -0.7545 -0.6996
  102MOL    H9132613   5.548   5.281   4.933  1.2612 -0.3005  0.9408
  102MOL    H9232614   5.382   5.541   5.275 -0.4370 -0.4727 -0.9650
  102MOL    H9332615   5.556   5.561   5.229  0.8373 -1.3962 -1.2583
  102MOL    H9432616   5.439   5.663   5.159 -0.2124  0.1149  0.7148
  102MOL    H9532617   5.374   5.435   4.892  1.0632  1.3672 -1.3105
  102MOL    H9632618   5.516   5.533   4.902 -0.6826  0.5565 -0.7316
  102MOL    H9732619   5.354   5.595   4.961  1.3288  1.5853  0.9744
  102MOL    C9832620   5.397   5.144   4.973  0.5410  0.0837  0.2722
  102MOL    C9932621   5.310   5.066   5.074 -0.2553 -0.1936  0.1215
  102MOL   C10032622   5.383   4.943   5.120 -0.4816  0.8234  0.1361
  102MOL   O10132623   5.424   4.861   5.039 -0.1176 -0.0284 -0.0268
  102MOL   N10232624   5.396   4.921   5.253  0.1693  0.2281 -1.1176
  102MOL   C10332625   5.332   5.001   5.360 -1.1207  0.0994 -0.5996
  102MOL   C10432626   5.463   4.796   5.303  0.1739 -0.0015  0.1992
  102MOL   H10532627   5.332   5.215   4.923  1.0129 -0.9360 -1.8611
  102MOL   H10632628   5.439   5.073   4.901 -0.1769 -0.7959  0.7144
  102MOL   H10732629   5.309   5.131   5.162 -0.5536  0.9662 -0.7181
  102MOL   H10832630   5.356   4.958   5.457  1.9861 -0.8891 -1.7423
  102MOL   H10932631   5.361   5.106   5.367  0.3268 -0.3186 -0.1464
  102MOL   H11032632   5.224   4.999   5.345 -1.1210 -2.4883 -0.5936
  102MOL   H11132633   5.564   4.822   5.335  0.6283 -0.9198 -0.4632
  102MOL   H11232634   5.487   4.721   5.228  1.6694  0.7850 -0.1262
  102MOL   H11332635   5.402   4.756   5.384 -1.7585  1.3729 -0.5357
  102MOL   C11432636   5.169   5.032   5.021 -0.0881  0.2268  0.7426
  102MOL   C11532637   5.070   5.142   4.990 -0.7690 -0.1372 -0.2045
  102MOL   C11632638   5.061   5.245   5.105  0.4199 -1.0789  0.6773
  102MOL   O11732639   5.057   5.202   5.225  0.1639  0.3937  0.5570
  102MOL   N11832640   5.070   5.380   5.073  0.2717 -0.5905 -0.3805
  102MOL   C11932641   5.104   5.477   5.182 -0.0506  0.9627  0.5192
  102MOL   C12032642   5.057   5.430   4.934  0.4514  0.0121  0.7057
  102MOL   H12132643   5.179   4.979   4.925 -0.1579 -0.3109  1.0286
  102MOL   H12232644   5.119   4.970   5.095 -0.3322 -2.1855 -1.3388
  102MOL   H12332645   5.117   5.195   4.907 -0.2133 -0.7395 -0.2774
  102MOL   H12432646   5.126   5.578   5.147 -1.5698  1.0588 -0.2130
  102MOL   H12532647   5.023   5.482   5.255 -0.5572 -4.2771  0.5515
  102MOL   H12632648   5.187   5.447   5.246 -0.3510  2.5032  1.6471
  102MOL   H12732649   5.010   5.528   4.931 -2.2236 -1.2663 -1.8473
  102MOL   H12832650   4.992   5.378   4.865  1.3789  0.7592 -0.7669
  102MOL   H12932651   5.157   5.449   4.894  0.2852 -0.7264 -0.0726
  102MOL   C13032652   4.925   5.104   4.947 -0.1398  0.3043 -0.3036
  102MOL   C13132653   4.835   5.012   5.039  0.0991 -0.2539 -0.5277
  102MOL   C13232654   4.865   4.864   5.021 -0.4274  0.1705  0.5406
  102MOL   O13332655   4.902   4.822   4.912  0.1526 -0.3115  0.2452
  102MOL   N13432656   4.846   4.779   5.125 -0.1297 -0.4455  0.3499
  102MOL   C13532657   4.872   4.637   5.114 -0.3521  0.0319 -0.0933
  102MOL   C13632658   4.785   4.807   5.259  0.5855  0.4555  0.6566
  102MOL   H13732659   4.873   5.199   4.936 -2.1421 -0.7236  0.1143
  102MOL   H13832660   4.927   5.059   4.848  1.5817  1.9549 -1.0577
  102MOL   H13932661   4.859   5.036   5.143 -2.0065  2.7189 -0.6479
  102MOL   H14032662   4.800   4.566   5.153  0.0065 -0.2287  0.0919
  102MOL   H14132663   4.890   4.600   5.013 -2.6658  0.0635 -0.5401
  102MOL   H14232664   4.965   4.632   5.171  0.5246 -0.6219 -1.5462
  102MOL   H14332665   4.780   4.915   5.271 -0.8765  0.5861 -0.8791
  102MOL   H14432666   4.853   4.766   5.333  0.9495 -2.1836 -1.0680
  102MOL   H14532667   4.689   4.756   5.265  0.9344 -0.5803 -1.7472
  102MOL   C14632668   4.681   5.039   5.013  0.9407 -0.3581 -0.0521
  102MOL   C14732669   4.619   5.159   5.081  0.2906 -0.0727  0.1388
  102MOL   C14832670   4.595   5.129   5.232  0.2908  0.2591  0.7872
  102MOL   O14932671   4.530   5.027   5.250  0.0641  0.4319 -0.2617
  102MOL   N15032672   4.637   5.215   5.327  0.7103 -0.5547 -0.1732
  102MOL   C15132673   4.663   5.170   5.464  0.0410  0.0946  0.4560
  102MOL   C15232674   4.679   5.355   5.308 -1.0355 -0.7444  0.8330
  102MOL   H15332675   4.662   5.044   4.905 -0.5156  0.0152  0.2028
  102MOL   H15432676   4.632   4.947   5.042  1.7605 -0.4621  1.0319
  102MOL   H15532677   4.679   5.248   5.062 -1.4419  1.1994  0.4682
  102MOL   H15632678   4.759   5.120   5.482 -0.3032 -1.8626 -2.6498
  102MOL   H15732679   4.650   5.244   5.543 -3.2538 -1.6281  1.6260
  102MOL   H15832680   4.586   5.103   5.501  1.0415 -0.7716  1.0071
  102MOL   H15932681   4.607   5.415   5.252 -1.0176  0.0050  1.5960
  102MOL   H16032682   4.778   5.349   5.263 -0.7357  0.0783  1.3737
  102MOL   H16132683   4.691   5.411   5.401  1.6355 -0.3172  0.2746
  102MOL   C16232684   4.471   5.184   5.024 -0.5118 -0.5361 -0.7322
  102MOL   C16332685   4.447   5.220   4.875 -0.0453  0.0341 -0.8285
  102MOL   C16432686   4.510   5.349   4.836  0.0365 -0.0590 -0.5727
  102MOL   O16532687   4.502   5.450   4.909  0.3049  0.3401  0.4854
  102MOL   N16632688   4.585   5.357   4.724 -0.1912 -0.2580  0.4968
  102MOL   C16732689   4.612   5.254   4.634 -0.2903  0.9890  1.1636
  102MOL   C16832690   4.631   5.487   4.670  0.9134 -0.4628 -0.0026
  102MOL   H16932691   4.424   5.086   5.035  1.3882 -1.4915 -0.8171
  102MOL   H17032692   4.427   5.261   5.088  0.4438 -1.6457  1.3000
  102MOL   H17132693   4.483   5.132   4.821 -2.4737 -0.9510 -0.9330
  102MOL   H17232694   4.648   5.167   4.689 -1.5933 -0.1289  0.2776
  102MOL   H17332695   4.530   5.214   4.574  1.5305 -0.8926 -0.1154
  102MOL   H17432696   4.690   5.274   4.561 -0.1477 -2.4652  0.2907
  102MOL   H17532697   4.738   5.489   4.649  0.8536  1.6900 -0.1415
  102MOL   H17632698   4.598   5.575   4.725  0.4477  0.2918 -1.4532
  102MOL   H17732699   4.582   5.500   4.574  1.6023  0.7882 -0.1899
  102MOL   C17832700   4.293   5.232   4.852 -0.6404 -0.4184 -0.0273
  102MOL   C17932701   4.230   5.192   4.717  0.0124 -0.7468  0.0303
  102MOL   C18032702   4.084   5.242   4.716 -0.2810  0.2955 -0.7961
  102MOL   O18132703   4.020   5.253   4.820 -0.1928  0.2623  0.1365
  102MOL   N18232704   4.023   5.273   4.597 -0.3875 -0.0565  0.4226
  102MOL   C18332705   4.084   5.284   4.467 -0.5222  0.4132  0.0661
  102MOL   C18432706   3.889   5.324   4.589  0.4939 -0.2900 -0.2004
  102MOL   H18532707   4.238   5.194   4.937  0.8004  2.0245  2.0675
  102MOL   H18632708   4.269   5.338   4.861  1.5432 -0.0796  2.4066
  102MOL   H18732709   4.286   5.249   4.643 -0.4967  1.1252  1.0292
  102MOL   H18832710   4.091   5.391   4.445  0.4229  0.1152 -1.1565
  102MOL   H18932711   4.175   5.225   4.459 -1.5252 -1.1449  0.1294
  102MOL   H19032712   4.025   5.232   4.392 -0.9159 -0.4332  0.9720
  102MOL   H19132713   3.837   5.264   4.514  2.7472 -0.0550 -2.0083
  102MOL   H19232714   3.889   5.428   4.558  2.8433  0.2417  1.4613
  102MOL   H19332715   3.835   5.317   4.683  0.6951  0.5691 -0.0181
  102MOL   C19432716   4.244   5.046   4.673  0.0917 -0.2433 -0.5222
  102MOL   C19532717   4.169   4.935   4.734 -0.1112 -0.0214 -0.6113
  102MOL   C19632718   4.197   4.927   4.885 -0.1380 -0.2933  0.0778
  102MOL   O19732719   4.309   4.897   4.926 -0.0641  0.2591 -0.1311
  102MOL   N19832720   4.092   4.951   4.968  0.2725  0.1195 -0.1187
  102MOL   C19932721   3.949   4.952   4.936  0.2316 -0.2332  0.6436
  102MOL   C20032722   4.112   4.936   5.116 -0.4233  0.2385  0.0750
  102MOL   H20132723   4.214   5.051   4.568 -4.0884  0.7622  0.6170
  102MOL   H20232724   4.352   5.037   4.669  0.0416 -0.1124 -2.7647
  102MOL   H20332725   4.064   4.941   4.708 -0.0129  1.0334 -0.7890
  102MOL   H20432726   3.893   4.942   5.029  2.3112  0.6341  2.0277
  102MOL   H20532727   3.917   5.044   4.889  2.5767 -0.0892 -0.7785
  102MOL   H20632728   3.921   4.871   4.868 -0.9285 -0.5135  1.4456
  102MOL   H20732729   4.023   4.918   5.176 -0.7428  2.4822  0.3236
  102MOL   H20832730   4.151   5.033   5.146 -1.7758  0.9062 -0.2355
  102MOL   H20932731   4.181   4.853   5.129 -0.5841  0.0524 -0.2453
  102MOL   C21032732   4.219   4.795   4.664 -0.0559 -0.3410 -0.1865
  102MOL   C21132733   4.168   4.660   4.704 -0.0234 -0.4845 -0.6334
  102MOL   C21232734   4.264   4.542   4.677  0.5989  0.1028  0.5268
  102MOL   O21332735   4.281   4.505   4.565  0.0485 -0.1145  0.2787
  102MOL   N21432736   4.321   4.475   4.779 -0.0081 -0.3383 -0.1241
  102MOL   C21532737   4.326   4.517   4.916  0.0750  0.1104 -0.3119
  102MOL   C21632738   4.409   4.356   4.747 -0.1972 -0.4847 -0.7168
  102MOL   H21732739   4.220   4.806   4.555  0.4367 -0.0082 -0.1468
  102MOL   H21832740   4.327   4.792   4.677 -0.0477  1.3034  0.1939
  102MOL   H21932741   4.160   4.662   4.813  0.2372 -1.2151 -0.5983
  102MOL   H22032742   4.226   4.522   4.960  0.0191 -2.3792 -0.0837
  102MOL   H22132743   4.378   4.455   4.989  2.5795  3.3110  0.6947
  102MOL   H22232744   4.370   4.616   4.921 -1.9000  0.9897  0.2454
  102MOL   H22332745   4.435   4.301   4.838  0.9646 -1.1503 -1.4398
  102MOL   H22432746   4.507   4.373   4.702 -0.3229  1.9577 -0.1267
  102MOL   H22532747   4.362   4.287   4.678 -0.3452 -1.2569  0.1429
  102MOL   C22632748   4.030   4.642   4.642  0.4244  0.0741 -0.0426
  102MOL   C22732749   3.951   4.509   4.665  0.6574  0.0690 -0.0393
  102MOL   C22832750   3.989   4.396   4.567 -0.4442  0.4306 -0.0696
  102MOL   O22932751   3.975   4.423   4.453 -0.4170 -0.2999 -0.1868
  102MOL   N23032752   4.029   4.276   4.613  0.5962 -0.6552 -0.6324
  102MOL   C23132753   4.019   4.227   4.748  0.2831 -0.0418  0.8661
  102MOL   C23232754   4.109   4.186   4.529  0.6537 -0.0850  0.2742
  102MOL   H23332755   3.968   4.716   4.691 -0.7838 -1.0188  0.1138
  102MOL   H23432756   4.033   4.664   4.535 -1.5631  0.2648 -0.0650
  102MOL   H23532757   3.967   4.481   4.770 -1.8430 -1.9931 -0.1486
  102MOL   H23632758   4.038   4.121   4.765  1.6288  0.0360 -0.1142
  102MOL   H23732759   4.073   4.286   4.822 -2.5904  3.3010  0.3724
  102MOL   H23832760   3.915   4.230   4.782 -0.3879  0.3439 -1.1447
  102MOL   H23932761   4.052   4.150   4.444 -2.0426 -1.4409  2.5697
  102MOL   H24032762   4.147   4.100   4.585 -1.7312 -1.3840 -0.0425
  102MOL   H24132763   4.191   4.235   4.478 -0.2156 -0.2176 -1.2801
  102MOL   C24232764   3.803   4.535   4.648 -0.0218 -0.2810  0.3271
  102MOL   C24332765   3.725   4.576   4.771 -0.8632 -0.0028 -0.3397
  102MOL   C24432766   3.740   4.473   4.890 -0.0950  0.2205  0.0801
  102MOL   O24532767   3.728   4.349   4.858 -0.6407 -0.1333 -0.0737
  102MOL   N24632768   3.769   4.519   5.017 -1.1109 -0.1233  0.2621
  102MOL   C24732769   3.776   4.661   5.051 -0.1828  0.5121 -0.2267
  102MOL   C24832770   3.772   4.423   5.124 -0.3078 -0.2077  0.1508
  102MOL   H24932771   3.782   4.596   4.560  1.4423 -2.9078 -1.8858
  102MOL   H25032772   3.753   4.446   4.610 -1.7864  0.5038  0.7249
  102MOL   H25132773   3.768   4.674   4.792  0.0977 -0.6114  0.5634
  102MOL   H25232774   3.694   4.724   5.016  1.3029  2.3925 -0.4187
  102MOL   H25332775   3.787   4.664   5.159  1.8589 -0.4678 -0.3896
  102MOL   H25432776   3.869   4.689   5.002 -0.5336  1.6014 -0.2831
  102MOL   H25532777   3.831   4.335   5.100 -0.2929 -0.2709  0.4239
  102MOL   H25632778   3.673   4.381   5.142 -1.2114  2.1577  0.8890
  102MOL   H25732779   3.807   4.453   5.223  1.3720  0.6268 -0.6816
  102MOL   C25832780   3.579   4.607   4.730 -0.6265  0.0615  0.1692
  102MOL   C25932781   3.553   4.736   4.653  0.5548 -0.4225 -0.0809
  102MOL   C26032782   3.551   4.863   4.747  0.0998 -0.9648 -0.3131
  102MOL   O26132783   3.477   4.858   4.848 -1.0470 -0.5850  0.1552
  102MOL   N26232784   3.623   4.973   4.713 -0.3200 -0.5860 -0.3273
  102MOL   C26332785   3.608   5.096   4.796  0.1630  0.5143 -0.1848
  102MOL   C26432786   3.711   4.985   4.595  0.0463  0.0926  0.5105
  102MOL   H26532787   3.546   4.526   4.664 -1.0664  1.0554 -0.8361
  102MOL   H26632788   3.519   4.605   4.821 -2.1841  0.8215 -0.8202
  102MOL   H26732789   3.634   4.745   4.580  2.8699 -0.7480  2.3942
  102MOL   H26832790   3.506   5.125   4.823 -0.4945 -1.5230 -0.4359
  102MOL   H26932791   3.656   5.090   4.894 -0.4658  0.3823  0.1150
  102MOL   H27032792   3.628   5.182   4.732  0.4003  3.0908  3.2131
  102MOL   H27132793   3.799   4.920   4.592 -0.8161 -1.0345 -1.2439
  102MOL   H27232794   3.751   5.086   4.582  0.6824 -0.4035 -1.6016
  102MOL   H27332795   3.654   4.974   4.503  0.3984  0.1414  0.2829
  102MOL   C27432796   3.420   4.729   4.572 -0.0071  0.3675  0.0639
  102MOL   C27532797   3.282   4.702   4.635  0.0825 -0.1292  0.2842
  102MOL   C27632798   3.259   4.565   4.712 -0.4849 -0.0676  0.1951
  102MOL   O27732799   3.273   4.460   4.646  0.0595 -0.7124 -0.0933
  102MOL   N27832800   3.224   4.565   4.844  0.2871 -0.2994 -0.2246
  102MOL   C27932801   3.224   4.445   4.919  0.1771 -0.1376 -0.0216
  102MOL   C28032802   3.182   4.694   4.905  0.0250 -0.5637  0.1960
  102MOL   H28132803   3.410   4.825   4.521  0.6554  0.6131  0.3912
  102MOL   H28232804   3.428   4.653   4.494 -0.0675  0.3498  0.0745
  102MOL   H28332805   3.272   4.794   4.692  2.6811  0.0934  0.4423
  102MOL   H28432806   3.199   4.457   5.024 -0.2169 -1.8444  0.0828
  102MOL   H28532807   3.150   4.375   4.881  0.2741 -0.5054  0.4748
  102MOL   H28632808   3.315   4.386   4.928  1.1009  1.0810 -1.1159
  102MOL   H28732809   3.130   4.773   4.849  1.8327 -0.3499 -1.2266
  102MOL   H28832810   3.276   4.734   4.943 -1.0597  0.4796  1.8387
  102MOL   H28932811   3.118   4.666   4.989 -0.7031  0.2132 -0.0854
  102MOL   C29032812   3.164   4.718   4.538 -0.0336  0.4066  0.6938
  102MOL   C29132813   3.154   4.859   4.473 -0.0254 -0.6269  0.6189
  102MOL   C29232814   3.157   4.979   4.575  0.4958  0.3821  0.6397
  102MOL   O29332815   3.078   4.977   4.675  0.2405  0.0787 -0.5344
  102MOL   N29432816   3.249   5.079   4.551 -0.4838 -0.2347 -0.0030
  102MOL   C29532817   3.291   5.167   4.663  0.4431  0.6939 -0.5870
  102MOL   C29632818   3.324   5.097   4.429 -0.0408  0.5280  0.2319
  102MOL   H29732819   3.162   4.643   4.459 -0.2563 -0.5478  1.5933
  102MOL   H29832820   3.074   4.699   4.596  0.2342 -3.4857 -0.0161
  102MOL   H29932821   3.240   4.870   4.407 -0.6276 -2.4235 -0.5294
  102MOL   H30032822   3.393   5.198   4.641  0.4439 -0.4565 -2.3793
  102MOL   H30132823   3.222   5.252   4.661 -0.8098 -0.3052 -0.5628
  102MOL   H30232824   3.275   5.124   4.762 -0.4526  0.1933 -0.9432
  102MOL   H30332825   3.410   5.031   4.441 -0.6503 -0.9668 -3.0414
  102MOL   H30432826   3.362   5.199   4.421 -0.6325  0.8510  1.4409
  102MOL   H30532827   3.274   5.077   4.334 -1.2216 -1.1523  1.1861
  102MOL   C30632828   3.036   4.859   4.372 -0.1303  0.3149  0.4380
  102MOL   C30732829   2.900   4.851   4.434 -0.2815 -0.3911 -0.2767
  102MOL   C30832830   2.787   4.814   4.334  0.1813 -0.0664  0.5820
  102MOL   O30932831   2.800   4.846   4.220  0.5634 -0.1154 -0.6480
  102MOL   N31032832   2.676   4.753   4.378 -0.4633  0.6558 -0.4157
  102MOL   C31132833   2.558   4.740   4.290  0.3914  0.0736 -0.0386
  102MOL   C31232834   2.641   4.734   4.522  1.0052 -0.2243  0.3202
  102MOL   H31332835   3.034   4.955   4.320  0.0477 -0.2329 -0.6012
  102MOL   H31432836   3.051   4.779   4.299 -1.8372  0.2807  0.1146
  102MOL   H31532837   2.894   4.763   4.497 -1.9680 -0.3843 -0.3930
  102MOL   H31632838   2.524   4.840   4.264 -0.2730 -0.4960 -1.3886
  102MOL   H31732839   2.572   4.677   4.202 -3.7643  0.0464 -0.7739
  102MOL   H31832840   2.473   4.692   4.339 -0.2070 -1.3331 -2.3721
  102MOL   H31932841   2.667   4.828   4.571 -0.8987  1.0492 -1.0236
  102MOL   H32032842   2.701   4.651   4.559  0.7857 -0.5899 -0.1461
  102MOL   H32132843   2.535   4.718   4.542  0.1497  3.4532 -0.8238
  102MOL   H32232844   2.866   4.939   4.489 -1.7992 -1.8794  1.2230
  103MOL     C132845   0.522   1.638   1.059  0.0613 -0.1477  0.0868
  103MOL     C232846   0.388   1.645   1.137  0.2639 -0.1001 -0.2348
  103MOL     C332847   0.408   1.609   1.289 -0.1752  0.5118 -0.1474
  103MOL     O432848   0.448   1.504   1.320 -0.1007  0.7560  0.4116
  103MOL     N532849   0.395   1.702   1.385  0.2553  0.0632 -0.7356
  103MOL     C632850   0.340   1.835   1.357 -0.6083  0.6465 -0.0381
  103MOL     C732851   0.421   1.671   1.530 -0.2659  0.5222  0.4419
  103MOL     H832852   0.602   1.584   1.109  0.4392  0.7234  0.4388
  103MOL     H932853   0.565   1.736   1.040  0.5556 -0.0542  1.5855
  103MOL    H1032854   0.350   1.745   1.117 -0.9951 -0.9512 -2.2115
  103MOL    H1132855   0.236   1.841   1.326  0.3161  1.3927 -3.1699
  103MOL    H1232856   0.355   1.911   1.433 -1.3956  2.4575 -1.6598
  103MOL    H1332857   0.390   1.893   1.280  2.9957 -2.4797 -0.2004
  103MOL    H1432858   0.440   1.761   1.588  2.7629 -0.5039  1.1037
  103MOL    H1532859   0.506   1.609   1.558 -0.9891  1.1712  4.4313
  103MOL    H1632860   0.331   1.624   1.572  0.4056 -1.3603 -0.2001
  103MOL    H1732861   0.512   1.597   0.959 -1.6900  2.8687 -1.0659
  103MOL    C1832862   0.284   1.554   1.067  0.8619  1.1023  0.0462
  103MOL    C1932863   0.129   1.573   1.083  0.4287  0.0455  0.6323
  103MOL    C2032864   0.077   1.710   1.025  0.2600  0.4296  0.3626
  103MOL    O2132865   0.102   1.812   1.087 -0.0446  0.4552 -0.6546
  103MOL    N2232866   7.850   1.708   0.913 -0.2182  0.2637  0.1715
  103MOL    C2332867   7.769   1.832   0.878  0.0122  0.3063  0.1234
  103MOL    C2432868   7.828   1.592   0.821 -0.6506  0.0143 -0.0977
  103MOL    H2532869   0.295   1.571   0.960 -0.6571 -3.3842 -0.9306
  103MOL    H2632870   0.310   1.448   1.070  0.8106  1.0831 -0.2363
  103MOL    H2732871   0.079   1.491   1.032 -2.7210  0.8624  2.2712
  103MOL    H2832872   7.847   1.899   0.843 -0.1279  0.2151 -0.3660
  103MOL    H2932873   7.685   1.826   0.808 -0.7955 -0.5165  1.1404
  103MOL    H3032874   7.717   1.877   0.964  1.5083 -0.0765  1.2430
  103MOL    H3132875   7.734   1.539   0.838 -1.6468  1.7303 -0.1971
  103MOL    H3232876   0.063   1.529   0.808  0.7698  1.9763 -0.2148
  103MOL    H3332877   7.812   1.645   0.727 -0.1256 -0.7601 -0.6268
  103MOL    C3432878   0.087   1.565   1.237  0.7471 -0.4424 -0.0929
  103MOL    C3532879   0.094   1.429   1.302 -0.3740 -0.2340  0.8458
  103MOL    C3632880   0.013   1.325   1.224 -0.3243 -0.1952 -0.1616
  103MOL    O3732881   7.745   1.330   1.233 -0.2382  0.0543  0.1109
  103MOL    N3832882   0.071   1.220   1.153  0.0134  0.0653 -0.2611
  103MOL    C3932883   7.841   1.121   1.082  0.1393 -0.2787  0.2490
  103MOL    C4032884   0.213   1.193   1.148  0.4474  0.3295 -0.3401
  103MOL    H4132885   0.140   1.642   1.293 -0.5776 -1.0994  2.0962
  103MOL    H4232886   7.837   1.598   1.247  0.6630 -0.6993 -0.0986
  103MOL    H4332887   0.199   1.400   1.297 -0.5742 -0.8739  0.1227
  103MOL    H4432888   7.763   1.088   1.150 -1.1364  0.2894 -0.9174
  103MOL    H4532889   7.792   1.157   0.991  0.7535  0.6468  0.2720
  103MOL    H4632890   0.042   1.029   1.062 -1.0163 -0.9661  0.2591
  103MOL    H4732891   0.265   1.251   1.071  0.4074 -0.3107 -0.8588
  103MOL    H4832892   0.227   1.087   1.130 -1.0316  0.4224 -2.2484
  103MOL    H4932893   0.272   1.200   1.239  0.6564 -0.2159 -0.4327
  103MOL    C5032894   0.049   1.453   1.449  0.1023  0.8338  0.0534
  103MOL    C5132895   0.071   1.339   1.548 -0.1555  0.5838 -0.4300
  103MOL    C5232896   0.221   1.323   1.577  0.3037 -0.5084  0.3817
  103MOL    O5332897   0.292   1.260   1.500  0.2484  0.2754 -0.6048
  103MOL    N5432898   0.268   1.382   1.692 -0.4520  0.7811  0.1883
  103MOL    C5532899   0.194   1.470   1.787 -0.5768 -0.5128  0.0641
  103MOL    C5632900   0.400   1.352   1.739 -0.4557 -0.3902  0.6903
  103MOL    H5732901   0.104   1.536   1.492 -0.2930  0.2267  1.7774
  103MOL    H5832902   7.796   1.477   1.451  0.1394  0.9941  0.0067
  103MOL    H5932903   0.031   1.373   1.643  0.5424 -1.4327  0.6054
  103MOL    H6032904   0.129   1.411   1.852 -0.3180 -1.5422 -0.6038
  103MOL    H6132905   0.262   1.511   1.862  2.8575  0.5907 -3.5117
  103MOL    H6232906   0.133   1.544   1.735 -0.1808  0.6850  1.2704
  103MOL    H6332907   0.435   1.250   1.726  0.1498 -0.3218  1.7281
  103MOL    H6432908   0.404   1.371   1.846  1.2278  0.7045  0.4460
  103MOL    H6532909   0.468   1.429   1.701 -1.0129  0.0323  0.5317
  103MOL    C6632910   0.008   1.197   1.533  0.2545 -0.6068 -0.4182
  103MOL    C6732911   7.712   1.185   1.567  0.2506  0.0560 -0.4084
  103MOL    C6832912   7.681   1.205   1.719  0.2037  0.4417 -0.4846
  103MOL    O6932913   7.749   1.144   1.799 -0.0202 -0.9576 -0.3987
  103MOL    N7032914   7.595   1.299   1.762 -0.3228 -0.0651 -0.2217
  103MOL    C7132915   7.593   1.335   1.903  0.7043  0.0262 -0.0111
  103MOL    C7232916   7.504   1.374   1.678 -0.0220 -0.4300 -0.6733
  103MOL    H7332917   0.036   1.171   1.431  1.4053 -0.5091 -0.1252
  103MOL    H7432918   0.058   1.130   1.602  0.8829  1.8147  1.5487
  103MOL    H7532919   7.649   1.252   1.508 -0.8437  2.3900  3.3007
  103MOL    H7632920   7.544   1.259   1.964 -2.1266  0.6551 -1.3843
  103MOL    H7732921   7.693   1.352   1.943  0.7469 -0.3480  0.0461
  103MOL    H7832922   7.547   1.434   1.905  0.1870 -0.1918 -0.5646
  103MOL    H7932923   7.564   1.449   1.626  1.9041 -0.6877  1.1270
  103MOL    H8032924   7.428   1.429   1.733  1.0049  0.5389 -0.1944
  103MOL    H8132925   7.452   1.297   1.622 -0.0036 -1.4429  0.6829
  103MOL    C8232926   7.678   1.040   1.527 -0.1379 -0.4590  0.3358
  103MOL    C8332927   7.601   1.038   1.389  0.1399  0.2995 -0.0469
  103MOL    C8432928   7.448   1.076   1.413 -0.6284 -0.2403 -0.7008
  103MOL    O8532929   7.401   1.054   1.530 -0.0852 -0.4687  0.5429
  103MOL    N8632930   7.374   1.140   1.322 -0.2945 -0.5085  0.3869
  103MOL    C8732931   7.425   1.188   1.195 -0.2655 -0.0851 -0.0724
  103MOL    C8832932   7.237   1.184   1.348  0.1549 -0.4448  0.4077
  103MOL    H8932933   7.763   0.972   1.521  0.4178  0.1595  1.0790
  103MOL    H9032934   7.627   0.994   1.611  1.1908  1.1054  2.0334
  103MOL    H9132935   7.632   1.118   1.322  1.4602  0.0353  0.2334
  103MOL    H9232936   7.514   1.250   1.198  0.8272 -1.6843  1.1562
  103MOL    H9332937   7.437   1.101   1.131  0.4346  1.8897 -2.6848
  103MOL    H9432938   7.348   1.254   1.154  0.8341  0.7226 -0.8668
  103MOL    H9532939   7.233   1.214   1.453  1.1743 -0.7083  0.5349
  103MOL    H9632940   7.171   1.098   1.339 -2.7193  1.7518 -0.1340
  103MOL    H9732941   7.195   1.263   1.287 -0.7517 -0.3701  1.1217
  103MOL    C9832942   7.605   0.899   1.321  0.5615  0.5491 -0.0779
  103MOL    C9932943   7.532   0.778   1.386 -0.1476 -0.2039  0.1132
  103MOL   C10032944   7.628   0.706   1.486 -0.1094 -0.3190 -0.1016
  103MOL   O10132945   7.740   0.676   1.445 -0.0020 -0.1507  0.2102
  103MOL   N10232946   7.593   0.701   1.619  0.3048  0.3153 -0.4158
  103MOL   C10332947   7.689   0.673   1.725  0.5130  0.5526 -0.6007
  103MOL   C10432948   7.465   0.756   1.673 -1.1555  0.5166  0.1832
  103MOL   H10532949   7.565   0.918   1.222  0.9099 -0.5695 -0.4349
  103MOL   H10632950   7.711   0.875   1.308  0.2017 -1.1675 -0.0021
  103MOL   H10732951   7.441   0.813   1.434 -0.0019 -0.6109  0.6918
  103MOL   H10832952   7.745   0.584   1.697  1.1228  0.4654  0.8246
  103MOL   H10932953   7.745   0.767   1.719 -0.7945  1.2893 -1.7075
  103MOL   H11032954   7.636   0.657   1.819  0.0372 -0.5134 -1.0452
  103MOL   H11132955   7.470   0.865   1.681  4.0837  0.4163 -0.0340
  103MOL   H11232956   7.446   0.715   1.772 -1.4495  0.8878  0.2788
  103MOL   H11332957   7.373   0.727   1.623 -0.1526 -0.9870 -0.8513
  103MOL   C11432958   7.479   0.684   1.281 -0.1185  0.3932 -0.2214
  103MOL   C11532959   7.349   0.734   1.189 -0.5713 -0.0554 -0.5383
  103MOL   C11632960   7.228   0.771   1.275 -0.1366 -0.3867 -0.2375
  103MOL   O11732961   7.225   0.720   1.384 -0.4318  0.2428  0.2974
  103MOL   N11832962   7.119   0.840   1.224 -0.5938 -0.0115 -0.4819
  103MOL   C11932963   6.996   0.848   1.305 -0.1331 -0.1021  0.1390
  103MOL   C12032964   7.117   0.919   1.096  0.0106  0.1568  0.4768
  103MOL   H12132965   7.559   0.665   1.210 -1.6380 -0.6113 -1.7021
  103MOL   H12232966   7.447   0.592   1.329  0.2960 -0.3136 -1.2767
  103MOL   H12332967   7.375   0.826   1.136 -2.7720  1.3234  0.7405
  103MOL   H12432968   6.936   0.761   1.281  0.7734 -0.5778 -0.4373
  103MOL   H12532969   7.015   0.862   1.412 -1.0946 -0.4103  0.3527
  103MOL   H12632970   6.940   0.932   1.264 -0.0499  0.7370  1.7165
  103MOL   H12732971   7.098   1.026   1.106 -0.8557  0.1997 -1.3724
  103MOL   H12832972   7.050   0.867   1.027  0.7996  0.9214 -0.9031
  103MOL   H12932973   7.214   0.927   1.046 -2.1296  0.1896 -3.8926
  103MOL   C13032974   7.310   0.620   1.093  0.7188  0.6459  0.1591
  103MOL   C13132975   7.433   0.561   1.023  0.6051 -0.3314 -0.2900
  103MOL   C13232976   7.505   0.672   0.932  0.4357  1.0078 -0.1711
  103MOL   O13332977   7.432   0.754   0.873  0.0605 -0.2581 -0.2632
  103MOL   N13432978   7.641   0.668   0.919  0.0205  0.4937  0.5299
  103MOL   C13532979   7.744   0.581   0.986 -0.1708 -0.0545 -0.5788
  103MOL   C13632980   7.700   0.764   0.826  0.1892  0.2254  0.6657
  103MOL   H13732981   7.265   0.538   1.150  0.3920  0.4642 -0.3566
  103MOL   H13832982   7.243   0.652   1.014  0.4335  0.8811  0.4964
  103MOL   H13932983   7.501   0.513   1.093  1.2655 -0.4801 -1.0309
  103MOL   H14032984   7.755   0.490   0.928 -1.8985 -0.9009  0.3592
  103MOL   H14132985   7.839   0.633   0.976  0.7749 -1.4620  0.9005
  103MOL   H14232986   7.720   0.563   1.091  1.2458  0.7456 -0.1169
  103MOL   H14332987   7.757   0.830   0.891  1.7059 -1.5436  1.1931
  103MOL   H14432988   7.633   0.827   0.768 -2.0151 -0.0635  2.7942
  103MOL   H14532989   7.760   0.710   0.753 -0.7670 -1.2339  0.9513
  103MOL   C14632990   7.395   0.443   0.927  0.2302 -0.0077 -0.3572
  103MOL   C14732991   7.322   0.322   0.991  0.4636 -0.0244 -0.4106
  103MOL   C14832992   7.380   0.294   1.134 -0.2483 -0.1505 -0.2633
  103MOL   O14932993   7.505   0.279   1.140  0.5458 -0.1183 -0.3772
  103MOL   N15032994   7.301   0.288   1.244 -0.2686  0.1862  0.2903
  103MOL   C15132995   7.154   0.294   1.236 -0.1917  0.8453  0.1545
  103MOL   C15232996   7.358   0.252   1.372 -0.2112  0.4974  0.3817
  103MOL   H15332997   7.333   0.484   0.846 -0.2124  2.5386  1.2169
  103MOL   H15432998   7.491   0.421   0.881  0.4983  0.4620 -0.0228
  103MOL   H15532999   7.219   0.352   1.011  0.5505  0.7577 -1.1132
  103MOL   H15633000   7.124   0.222   1.160  0.6046  0.3740  0.2869
  103MOL   H15733001   7.101   0.252   1.321  3.7442 -3.0463  0.8343
  103MOL   H15833002   7.115   0.395   1.222  0.8104  1.4359  1.5684
  103MOL   H15933003   7.396   0.151   1.359  1.3223  1.4371 -2.7552
  103MOL   H16033004   7.289   0.246   1.457  0.1197  0.3508  0.6423
  103MOL   H16133005   7.438   0.323   1.391  0.6229 -0.3248 -0.0505
  103MOL   C16233006   7.350   0.193   0.899 -0.8727 -0.0392  0.5974
  103MOL   C16333007   7.270   0.180   0.768  0.9262 -0.2696  0.1224
  103MOL   C16433008   7.113   0.158   0.793 -0.3951  0.6801  0.1134
  103MOL   O16533009   7.069   0.071   0.869  0.5480  0.2193 -0.4441
  103MOL   N16633010   7.019   0.238   0.732 -0.2606  0.6819  0.7573
  103MOL   C16733011   7.059   0.378   0.698 -0.6151 -0.9102 -0.9917
  103MOL   C16833012   6.880   0.200   0.728  0.3023  0.0445  0.1017
  103MOL   H16933013   7.453   0.197   0.864 -1.3615 -1.6344 -1.1080
  103MOL   H17033014   7.325   0.102   0.953  0.4531 -1.6114 -1.3466
  103MOL   H17133015   7.298   0.268   0.711  2.3335 -0.3291  0.7154
  103MOL   H17233016   7.126   0.379   0.612 -1.3439 -1.8286 -1.5805
  103MOL   H17333017   6.981   0.450   0.674 -0.6246 -0.7325 -0.4186
  103MOL   H17433018   7.112   0.425   0.780 -0.5810 -2.7856  0.0826
  103MOL   H17533019   6.850   0.166   0.827 -0.7564  0.1614 -0.1701
  103MOL   H17633020   6.853   0.129   0.650  0.8800 -1.8690  1.5943
  103MOL   H17733021   6.820   0.290   0.712 -0.0945  0.0007  1.2540
  103MOL   C17833022   7.345   0.072   0.676 -1.0259 -0.3210  0.1720
  103MOL   C17933023   7.317   0.089   0.527 -0.2900 -0.1811  0.1719
  103MOL   C18033024   7.191   0.012   0.485 -0.1702 -0.3314  0.2355
  103MOL   O18133025   7.179   7.749   0.522  0.7270 -0.2176 -0.0060
  103MOL   N18233026   7.086   0.070   0.421 -0.4827 -0.5577  0.3768
  103MOL   C18333027   7.114   0.181   0.326  0.2001  0.3303  0.1892
  103MOL   C18433028   6.953   0.002   0.426 -0.3092 -0.1407  0.1335
  103MOL   H18533029   7.453   0.088   0.684 -1.4145  1.9222  1.3503
  103MOL   H18633030   7.322   7.825   0.712 -1.3365 -0.0025  0.8690
  103MOL   H18733031   7.299   0.192   0.494 -0.2541  0.3835  1.8817
  103MOL   H18833032   7.104   0.282   0.364  2.0399  1.3098 -1.8338
  103MOL   H18933033   7.210   0.182   0.275 -0.4963 -0.8363 -1.1681
  103MOL   H19033034   7.045   0.180   0.242 -1.7004  1.9606  1.6804
  103MOL   H19133035   6.877   0.081   0.423 -0.3942 -0.1775  1.2158
  103MOL   H19233036   6.947   7.814   0.526 -0.7591  1.2815  0.7136
  103MOL   H19333037   6.938   7.775   0.354  1.9467  0.2014 -0.7642
  103MOL   C19433038   7.436   0.029   0.437 -1.0051  0.2640  0.0418
  103MOL   C19533039   7.565   0.118   0.406  0.1545 -0.8294  0.6320
  103MOL   C19633040   7.503   0.242   0.344 -0.0700  0.2890  0.5422
  103MOL   O19733041   7.462   0.235   0.230 -0.8800 -0.3171 -0.2275
  103MOL   N19833042   7.491   0.363   0.410  0.2328 -0.0461 -0.9995
  103MOL   C19933043   7.401   0.470   0.358  0.2286  0.2283  0.9711
  103MOL   C20033044   7.549   0.382   0.543 -0.3613  0.3346 -0.2438
  103MOL   H20133045   7.475   7.798   0.494 -0.2976  0.7489  0.2966
  103MOL   H20233046   7.397   7.841   0.344  1.0650  0.1067 -0.7884
  103MOL   H20333047   7.621   0.147   0.495  1.1494 -1.6131  0.2767
  103MOL   H20433048   7.307   0.478   0.412  0.6217 -0.0670  1.7018
  103MOL   H20533049   7.451   0.566   0.368 -1.1374  1.2337 -1.2382
  103MOL   H20633050   7.363   0.460   0.256  1.1293 -0.9852  0.7600
  103MOL   H20733051   7.476   0.348   0.617 -0.6008  2.1819  0.3940
  103MOL   H20833052   7.565   0.488   0.562  1.7268 -0.0466  0.2153
  103MOL   H20933053   7.644   0.333   0.566 -1.2251 -0.6187  1.3971
  103MOL   C21033054   7.661   0.040   0.313  0.4488  0.5348  0.2676
  103MOL   C21133055   7.798   0.104   0.272  0.1026 -0.3619 -0.4215
  103MOL   C21233056   0.016   0.188   0.382  1.1057  1.1126 -0.5857
  103MOL   O21333057   7.833   0.304   0.389  0.3434 -0.0681 -0.0057
  103MOL   N21433058   0.116   0.126   0.454  0.1247 -0.5613  0.5101
  103MOL   C21533059   0.152   7.838   0.463  0.5617 -0.0768  0.1745
  103MOL   C21633060   0.184   0.202   0.563  0.4843  0.1275 -0.2446
  103MOL   H21733061   7.680   7.798   0.363  0.1330  0.8741  1.0480
  103MOL   H21833062   7.602   0.016   0.225  0.9482  0.3110 -0.0044
  103MOL   H21933063   0.011   0.019   0.256  1.0600 -0.3541  3.0397
  103MOL   H22033064   0.057   7.784   0.468  0.0347  0.8690  0.4676
  103MOL   H22133065   0.215   7.792   0.387 -3.3775 -2.5413 -1.7727
  103MOL   H22233066   0.180   7.803   0.563  4.2382 -2.9301 -1.7298
  103MOL   H22333067   0.293   0.200   0.557  0.4778  0.3611 -0.4518
  103MOL   H22433068   0.152   0.151   0.654 -0.0955  1.5924  0.3755
  103MOL   H22533069   0.152   0.304   0.582 -0.1802 -0.4015  1.5090
  103MOL   C22633070   7.802   0.177   0.135  0.3622 -0.3310 -0.6019
  103MOL   C22733071   7.794   0.078   0.018 -0.5567 -0.0789 -0.3580
  103MOL   C22833072   0.074   7.852   0.001  0.7251 -0.3339 -0.2620
  103MOL   O22933073   0.173   0.065   7.831  0.0545  0.1917  0.5251
  103MOL   N23033074   0.087   7.715   0.024  1.0789  0.3773  0.6761
  103MOL   C23133075   7.823   7.624   0.028 -0.2948  0.4435  0.1116
  103MOL   C23233076   0.216   7.651   0.049  0.1006  0.7456  0.4725
  103MOL   H23333077   7.718   0.246   0.129  1.6588  1.3310 -0.2846
  103MOL   H23433078   0.034   0.245   0.126 -0.0355  0.2680  0.0347
  103MOL   H23533079   7.714   0.010   0.049  1.8941 -2.2126  1.5361
  103MOL   H23633080   7.738   7.665   7.829 -0.1495 -0.6694 -1.0303
  103MOL   H23733081   7.845   7.530   7.829 -0.6460  0.1355  0.5156
  103MOL   H23833082   7.779   7.593   0.123 -0.2575 -0.9158 -0.2981
  103MOL   H23933083   0.291   7.700   7.840  0.8559 -1.3392 -0.2934
  103MOL   H24033084   0.213   7.545   0.021  0.3154  0.4300  1.6460
  103MOL   H24133085   0.250   7.672   0.150  2.2366 -0.8496  0.1143
  103MOL   C24233086   7.763   0.143   7.733  0.2748 -0.1943 -0.7582
  103MOL   C24333087   7.606   0.162   7.709  0.8917 -0.2141  0.2590
  103MOL   C24433088   7.546   0.018   7.684 -0.3230  0.0947  0.4084
  103MOL   O24533089   7.615   7.787   7.629  0.6380  0.3128 -0.1705
  103MOL   N24633090   7.415   7.849   7.722 -0.3920 -0.1629  0.3280
  103MOL   C24733091   7.329   0.103   7.785 -0.3325 -0.4135  0.5088
  103MOL   C24833092   7.353   7.712   7.698 -0.2613 -0.6464 -0.2976
  103MOL   H24933093   7.809   0.242   7.738  1.5456 -0.7424 -1.4061
  103MOL   H25033094   7.820   0.089   7.657  1.5334  1.2912 -0.8972
  103MOL   H25133095   7.556   0.219   7.787  1.0509 -0.9439  0.9028
  103MOL   H25233096   7.381   0.140   0.020  0.5954  0.6976 -0.4956
  103MOL   H25333097   7.315   0.194   7.727 -0.1689  0.1386  1.3176
  103MOL   H25433098   7.227   0.071   7.803 -0.3001  0.5515  2.5365
  103MOL   H25533099   7.382   7.680   7.598  0.0078 -0.7454 -0.1904
  103MOL   H25633100   7.245   7.713   7.713 -0.2434 -3.1640  0.0816
  103MOL   H25733101   7.402   7.646   7.769  0.3357 -0.1478 -0.2352
  103MOL   C25833102   7.573   0.243   7.575  0.5586  0.0898  0.2882
  103MOL   C25933103   7.596   0.394   7.570 -0.1348 -0.1623  0.6981
  103MOL   C26033104   7.509   0.461   7.673  0.1521  0.3905 -0.5303
  103MOL   O26133105   7.389   0.433   7.671 -0.4008  0.2751  0.4640
  103MOL   N26233106   7.565   0.536   7.769 -0.5657  0.6418 -0.1322
  103MOL   C26333107   7.694   0.609   7.755 -0.2135 -0.0271  0.7441
  103MOL   C26433108   7.503   0.543   0.048  0.0476 -0.2472  0.2343
  103MOL   H26533109   7.640   0.204   7.498 -0.2277 -0.3170 -0.1934
  103MOL   H26633110   7.472   0.225   7.538  0.1424  1.7450  0.5584
  103MOL   H26733111   7.694   0.405   7.617  0.1126 -0.1435  0.1841
  103MOL   H26833112   7.708   0.639   7.651  0.2375  1.2683  1.1776
  103MOL   H26933113   7.685   0.703   7.808  0.4497 -0.0242  0.8492
  103MOL   H27033114   7.778   0.554   7.798  0.3640  2.9259  3.5266
  103MOL   H27133115   7.512   0.442   0.088 -1.4692 -0.3658  0.3024
  103MOL   H27233116   7.399   0.577   0.045  0.0534 -0.3160 -1.2981
  103MOL   H27333117   7.550   0.614   0.116  0.1687 -0.8292  0.7632
  103MOL   C27433118   7.579   0.458   7.436  0.0738  0.1280  0.5005
  103MOL   C27533119   7.677   0.416   7.316 -0.2367  0.1697 -0.1355
  103MOL   C27633120   7.823   0.388   7.366 -0.3141  0.0620  0.2628
  103MOL   O27733121   0.020   0.463   7.454 -0.0636  0.1346  0.6510
  103MOL   N27833122   0.027   0.276   7.321  0.3679 -0.4762  0.1251
  103MOL   C27933123   7.831   0.195   7.205 -0.4456 -0.1011  0.0477
  103MOL   C28033124   0.144   0.220   7.398  0.5036 -0.6343 -0.1455
  103MOL   H28133125   7.478   0.455   7.397  0.7899  1.7850 -1.5807
  103MOL   H28233126   7.593   0.566   7.441  0.5922  0.1438 -1.0912
  103MOL   H28333127   7.634   0.318   7.293  0.7977 -0.2906 -0.1400
  103MOL   H28433128   0.058   0.163   7.139 -1.5096 -1.8721 -0.4163
  103MOL   H28533129   7.786   0.099   7.230 -0.9117  0.2308  0.4953
  103MOL   H28633130   7.771   0.247   7.130  0.5010 -2.2995 -2.2895
  103MOL   H28733131   0.184   0.125   7.362  3.0302 -0.4699  2.0693
  103MOL   H28833132   0.115   0.192   7.499 -0.8346 -2.4422 -0.9829
  103MOL   H28933133   0.232   0.284   7.394 -1.2887  1.8290 -1.5082
  103MOL   C29033134   7.670   0.493   7.184  0.6603 -0.4150 -0.3997
  103MOL   C29133135   7.530   0.466   7.115 -0.3892  0.0573  0.2080
  103MOL   C29233136   7.562   0.453   6.965 -0.2720 -0.0007  0.1735
  103MOL   O29333137   7.604   0.554   6.912 -0.1153  0.5340  0.0387
  103MOL   N29433138   7.540   0.333   6.899  0.3116 -0.8708 -0.0187
  103MOL   C29533139   7.569   0.323   6.758  0.0715  0.0075 -0.0157
  103MOL   C29633140   7.520   0.202   6.965 -0.2962 -0.5799 -0.0840
  103MOL   H29733141   7.685   0.596   7.215  0.5312 -0.8720  1.1983
  103MOL   H29833142   7.749   0.477   7.110  1.2728  1.5461 -0.1807
  103MOL   H29933143   7.480   0.376   7.150  1.6208 -1.3550 -0.4636
  103MOL   H30033144   7.676   0.333   6.738 -0.1468  0.2610 -1.1038
  103MOL   H30133145   7.537   0.232   6.708  1.2433  0.0277 -0.8194
  103MOL   H30233146   7.514   0.400   6.703 -0.5474  0.1345  0.7771
  103MOL   H30333147   7.598   0.173   7.035  1.3571  1.4611 -1.0012
  103MOL   H30433148   7.517   0.119   6.895 -0.1569 -1.6579  1.1743
  103MOL   H30533149   7.426   0.202   7.020 -0.9851  1.6088 -1.1832
  103MOL   C30633150   7.436   0.594   7.140 -0.2661  0.7048  0.0338
  103MOL   C30733151   7.296   0.591   7.073 -0.2995  0.0355 -0.0325
  103MOL   C30833152   7.204   0.479   7.122 -0.0953 -0.4137  0.2233
  103MOL   O30933153   7.250   0.405   7.206  0.5569 -0.4199  0.4973
  103MOL   N31033154   7.086   0.459   7.057  0.7352  0.2960 -0.1286
  103MOL   C31133155   7.039   0.522   6.943  0.0889 -0.9891  0.3755
  103MOL   C31233156   6.985   0.377   7.122 -0.1511 -0.3717  0.0656
  103MOL   H31333157   7.426   0.602   7.248 -3.1586 -2.5086  0.0928
  103MOL   H31433158   7.496   0.678   7.105  0.2278  0.4907  0.3753
  103MOL   H31533159   7.242   0.680   7.105  2.0166  1.2574  0.5734
  103MOL   H31633160   6.955   0.482   6.886 -0.6244 -1.7887  1.9622
  103MOL   H31733161   7.017   0.629   6.952 -0.2809 -0.8278 -2.1188
  103MOL   H31833162   7.124   0.521   6.875  1.9909  1.8571  2.5917
  103MOL   H31933163   7.000   0.381   7.230  2.0446 -2.1143 -0.1299
  103MOL   H32033164   6.990   0.270   7.101 -1.3078 -0.2560 -0.7977
  103MOL   H32133165   6.884   0.403   7.092  0.4396  0.9623 -0.7905
  103MOL   H32233166   7.314   0.603   6.966 -0.8039 -1.3645 -0.2957
  104MOL     C133167   4.179   5.745   2.591 -0.7973  0.6452  0.2886
  104MOL     C233168   4.247   5.813   2.470 -0.8404  0.4434 -0.1645
  104MOL     C333169   4.378   5.893   2.508 -0.8619  0.4488 -0.1905
  104MOL     O433170   4.370   6.010   2.534 -0.2952  0.5796 -0.4776
  104MOL     N533171   4.494   5.821   2.530  0.0655 -0.1538 -0.1735
  104MOL     C633172   4.519   5.683   2.503  0.4531 -0.1612 -0.0638
  104MOL     C733173   4.611   5.894   2.583 -0.0376  0.6228 -0.0886
  104MOL     H833174   4.158   5.822   2.666 -0.5965 -1.7799  2.8971
  104MOL     H933175   4.224   5.659   2.640 -3.3607 -1.6769 -1.3211
  104MOL    H1033176   4.270   5.726   2.409 -0.2789 -0.3149  1.0920
  104MOL    H1133177   4.617   5.653   2.540  0.6262  0.6699  0.1761
  104MOL    H1233178   4.447   5.618   2.552 -0.7349 -1.0960 -2.9886
  104MOL    H1333179   4.509   5.678   2.395 -0.3347 -1.9655  0.0707
  104MOL    H1433180   4.693   5.889   2.511  0.2237 -0.4363  0.2703
  104MOL    H1533181   4.653   5.835   2.664  1.0284 -1.0083 -1.7818
  104MOL    H1633182   4.604   5.999   2.610 -1.7207  0.2592  0.9847
  104MOL    H1733183   4.080   5.703   2.574 -1.5735  3.1364 -1.6338
  104MOL    C1833184   4.146   5.916   2.413  0.3848 -0.1294 -0.1071
  104MOL    C1933185   4.172   5.947   2.267 -0.5311  1.0450 -0.7462
  104MOL    C2033186   4.083   6.067   2.227  0.0308 -0.6964  0.0294
  104MOL    O2133187   3.965   6.034   2.200 -0.0622 -0.1923 -0.1670
  104MOL    N2233188   4.133   6.189   2.199  0.2960  0.3955  0.4779
  104MOL    C2333189   4.050   6.293   2.150  0.5096 -0.1729 -0.2197
  104MOL    C2433190   4.267   6.234   2.233 -0.1120  0.4174  0.2938
  104MOL    H2533191   4.050   5.867   2.433  0.4365 -1.0416 -2.0132
  104MOL    H2633192   4.137   6.012   2.465  0.5846 -0.7638  1.1132
  104MOL    H2733193   4.275   5.982   2.257 -0.2422  0.0096 -1.4933
  104MOL    H2833194   4.034   6.262   2.047 -2.0541 -1.9219  0.6629
  104MOL    H2933195   3.949   6.290   2.191  0.1151 -0.8047 -1.2135
  104MOL    H3033196   4.097   6.390   2.166  1.8955 -1.0831  1.4648
  104MOL    H3133197   4.286   6.337   2.202  0.1675 -0.6675 -3.3528
  104MOL    H3233198   4.344   6.189   2.170  0.7711  0.7158  1.1553
  104MOL    H3333199   4.304   6.229   2.336  2.2280  1.9633 -0.4176
  104MOL    C3433200   4.150   5.823   2.179 -0.4184 -0.5535 -0.2452
  104MOL    C3533201   4.270   5.750   2.128 -0.2933  0.1316 -0.1520
  104MOL    C3633202   4.339   5.831   2.011  0.8244  0.2349  0.0843
  104MOL    O3733203   4.275   5.834   1.906 -0.5470 -0.5818  0.8416
  104MOL    N3833204   4.459   5.889   2.024 -0.0262  0.1593  0.5339
  104MOL    C3933205   4.514   5.953   1.908 -0.2469 -0.2923  0.0450
  104MOL    C4033206   4.539   5.888   2.144 -0.5508 -0.3737 -0.6077
  104MOL    H4133207   4.103   5.758   2.253 -1.1716 -0.6990 -0.8551
  104MOL    H4233208   4.079   5.839   2.099 -0.2395 -0.7278 -0.4368
  104MOL    H4333209   4.350   5.732   2.199  0.6388  1.2572 -0.9073
  104MOL    H4433210   4.623   5.947   1.905 -0.2329  0.4296 -1.3742
  104MOL    H4533211   4.480   5.908   1.815 -0.0838  0.9525 -0.6324
  104MOL    H4633212   4.483   6.057   1.913  0.1186 -0.1916  0.2923
  104MOL    H4733213   4.588   5.792   2.157 -1.3404 -0.7933 -0.7040
  104MOL    H4833214   4.471   5.913   2.226 -0.2237  0.3199 -0.5390
  104MOL    H4933215   4.623   5.957   2.150  0.3163 -1.6267  3.0780
  104MOL    C5033216   4.229   5.607   2.076 -0.2030  0.3972  0.4850
  104MOL    C5133217   4.121   5.522   2.152 -0.0620 -0.2309  0.3487
  104MOL    C5233218   4.158   5.474   2.293 -0.0259 -0.9416 -0.0637
  104MOL    O5333219   4.270   5.481   2.332  0.4681 -0.2947 -0.3592
  104MOL    N5433220   4.064   5.429   2.377 -0.0868  0.2453 -0.2064
  104MOL    C5533221   4.108   5.358   2.493  0.2369 -0.1199  0.7157
  104MOL    C5633222   3.927   5.481   2.375 -0.0638  0.3471 -0.5181
  104MOL    H5733223   4.189   5.628   1.977  0.9229  0.1835 -0.0302
  104MOL    H5833224   4.315   5.541   2.058  1.1759  2.2717  0.0196
  104MOL    H5933225   4.031   5.584   2.155  0.0627 -0.0353 -0.0261
  104MOL    H6033226   4.165   5.416   2.566  0.6345 -1.4625  1.4909
  104MOL    H6133227   4.026   5.319   2.554  0.0626  1.4824  1.5334
  104MOL    H6233228   4.173   5.277   2.459 -1.7698 -0.8115 -1.5716
  104MOL    H6333229   3.884   5.484   2.475 -0.4458  1.0392 -0.6993
  104MOL    H6433230   3.865   5.420   2.310 -0.9064  0.4423  0.1921
  104MOL    H6533231   3.902   5.577   2.330 -2.2343 -0.8516 -1.9503
  104MOL    C6633232   4.075   5.393   2.076  0.4591  0.0916 -0.7393
  104MOL    C6733233   4.024   5.410   1.931 -0.3858  0.0425 -0.3630
  104MOL    C6833234   3.923   5.525   1.922  0.7765  0.3506  0.2252
  104MOL    O6933235   3.816   5.509   1.986 -0.1393 -0.5823  0.3292
  104MOL    N7033236   3.941   5.637   1.850  0.0062 -1.0280  0.3325
  104MOL    C7133237   3.859   5.764   1.872 -0.3297 -0.6966  0.3793
  104MOL    C7233238   4.039   5.649   1.741 -0.9106  0.5575  0.0582
  104MOL    H7333239   4.152   5.317   2.078  0.3028 -0.0515  0.1056
  104MOL    H7433240   3.998   5.350   2.140  1.0149  0.3184  0.0898
  104MOL    H7533241   4.114   5.439   1.876 -1.8246  2.0235 -1.7452
  104MOL    H7633242   3.843   5.788   1.977  2.7123  1.5543  0.3855
  104MOL    H7733243   3.901   5.855   1.828 -1.1053 -0.1033  0.8544
  104MOL    H7833244   3.766   5.747   1.818  0.2073  0.3041 -0.8910
  104MOL    H7933245   4.143   5.658   1.770 -0.5682 -0.6228 -0.7530
  104MOL    H8033246   4.018   5.725   1.666  0.3849 -0.5936 -1.5078
  104MOL    H8133247   4.045   5.551   1.692 -0.6944  0.6688 -0.1367
  104MOL    C8233248   3.991   5.269   1.874  1.3928  0.6645  0.7958
  104MOL    C8333249   3.937   5.263   1.727 -0.3395 -0.2622 -0.2671
  104MOL    C8433250   3.851   5.133   1.712 -0.9187 -0.3198 -0.1781
  104MOL    O8533251   3.895   5.036   1.651 -0.3506 -0.0582  0.0950
  104MOL    N8633252   3.729   5.132   1.771 -0.3299 -0.4435  0.7458
  104MOL    C8733253   3.652   5.004   1.767 -0.5615 -0.7309  0.3787
  104MOL    C8833254   3.666   5.237   1.854  0.1955 -0.1427  0.0936
  104MOL    H8933255   4.072   5.201   1.899  0.3853 -1.2770 -1.0107
  104MOL    H9033256   3.915   5.236   1.944  1.1341  1.0935  0.7206
  104MOL    H9133257   3.875   5.348   1.700 -1.4468 -1.4339 -1.5297
  104MOL    H9233258   3.566   5.007   1.833 -0.2412 -0.0223  0.7749
  104MOL    H9333259   3.612   4.970   1.671  0.6252 -1.0986  0.0035
  104MOL    H9433260   3.715   4.919   1.792  0.0529 -0.6163 -0.7460
  104MOL    H9533261   3.690   5.337   1.817  0.1302  0.5263  1.8011
  104MOL    H9633262   3.683   5.230   1.962 -0.8810 -3.1466  0.1284
  104MOL    H9733263   3.562   5.218   1.826 -0.6066  0.6332  2.4348
  104MOL    C9833264   4.063   5.267   1.633  0.1088  0.7434  0.7190
  104MOL    C9933265   4.029   5.278   1.480  1.0090  0.0891 -0.6083
  104MOL   C10033266   4.077   5.148   1.409 -0.5516 -0.3291 -0.2661
  104MOL   O10133267   4.199   5.125   1.417  0.3346 -0.7183  0.0573
  104MOL   N10233268   3.990   5.069   1.333  0.0844  0.2731  0.0784
  104MOL   C10333269   3.851   5.103   1.306  0.6075 -0.1517  0.2977
  104MOL   C10433270   4.031   4.953   1.255  0.0245  0.1756  0.1329
  104MOL   H10533271   4.125   5.350   1.666  0.2229  1.0383 -0.2240
  104MOL   H10633272   4.123   5.179   1.655  1.1087  1.2830  0.2003
  104MOL   H10733273   3.924   5.295   1.456  0.3382 -1.8568  0.7799
  104MOL   H10833274   3.854   5.206   1.269  0.2265 -0.1548  0.2553
  104MOL   H10933275   3.810   5.055   1.217  0.9372  1.0197 -0.5007
  104MOL   H11033276   3.795   5.091   1.399  0.7011  0.8032  0.4858
  104MOL   H11133277   4.101   4.982   1.177 -0.0344 -0.9448 -0.3511
  104MOL   H11233278   3.948   4.908   1.200 -0.4673 -1.1432  1.8787
  104MOL   H11333279   4.078   4.885   1.326  2.4141  2.6721  1.0103
  104MOL   C11433280   4.101   5.404   1.417  0.3681  0.2939  0.3128
  104MOL   C11533281   4.008   5.490   1.329  0.2043 -0.3259 -0.0318
  104MOL   C11633282   4.080   5.587   1.236  0.0718  0.1115  1.1655
  104MOL   O11733283   4.081   5.710   1.267  0.0379  0.2842  0.1117
  104MOL   N11833284   4.121   5.545   1.113 -0.0255 -0.2231 -0.6201
  104MOL   C11933285   4.116   5.408   1.071  0.5434  0.0383 -0.0405
  104MOL   C12033286   4.179   5.644   1.023  0.1792  0.1317  0.2634
  104MOL   H12133287   4.154   5.466   1.490 -2.1036 -1.1588  3.4559
  104MOL   H12233288   4.183   5.365   1.358 -0.3702  0.9937 -1.1881
  104MOL   H12333289   3.944   5.431   1.264  0.9262  1.3362 -2.3005
  104MOL   H12433290   4.194   5.348   1.119 -0.3404 -3.3872 -2.7014
  104MOL   H12533291   4.018   5.362   1.060  0.5611 -0.2735  1.0423
  104MOL   H12633292   4.154   5.410   0.969  0.6955 -1.1193 -0.0128
  104MOL   H12733293   4.212   5.739   1.065 -0.8790  0.1288  1.1150
  104MOL   H12833294   4.116   5.689   0.946  0.2512 -0.3536 -0.0807
  104MOL   H12933295   4.264   5.607   0.965  0.1001 -0.6856  0.6727
  104MOL   C13033296   3.905   5.574   1.412  0.7685 -0.0467  0.0215
  104MOL   C13133297   3.767   5.605   1.357  0.0881  0.3242 -0.0218
  104MOL   C13233298   3.670   5.486   1.361 -0.7420 -0.0374  0.3728
  104MOL   O13333299   3.680   5.402   1.269 -0.2375 -0.2268 -0.0266
  104MOL   N13433300   3.589   5.469   1.463  0.0170 -0.4259  0.4053
  104MOL   C13533301   3.580   5.555   1.581 -0.2311 -0.9013 -0.1533
  104MOL   C13633302   3.506   5.352   1.472 -0.2201  0.8359 -0.1176
  104MOL   H13733303   3.887   5.519   1.505  1.3935  0.2385  0.3127
  104MOL   H13833304   3.945   5.669   1.448  1.7324 -0.5161  0.2196
  104MOL   H13933305   3.736   5.687   1.421 -0.8061 -1.1566  1.4910
  104MOL   H14033306   3.592   5.658   1.549 -0.1661 -1.0742 -0.6928
  104MOL   H14133307   3.487   5.529   1.633 -0.5560  3.8211  1.8259
  104MOL   H14233308   3.665   5.533   1.645  0.9482  0.2413 -1.3106
  104MOL   H14333309   3.488   5.323   1.575  0.4211  1.8584  0.2960
  104MOL   H14433310   3.542   5.265   1.417 -1.5466 -0.2219  0.6498
  104MOL   H14533311   3.410   5.370   1.422  0.6568  0.6418 -1.9139
  104MOL   C14633312   3.774   5.676   1.211 -0.7472  0.2555  0.2930
  104MOL   C14733313   3.641   5.734   1.152  0.1619  0.8118  0.6624
  104MOL   C14833314   3.662   5.779   1.004  0.0262  0.2621 -0.1748
  104MOL   O14933315   3.742   5.876   0.982  0.3236 -0.5213 -0.1908
  104MOL   N15033316   3.603   5.714   0.901 -0.2734  0.3217 -0.1478
  104MOL   C15133317   3.645   5.742   0.762  0.2599  0.0181 -0.2033
  104MOL   C15233318   3.509   5.602   0.917 -0.8842 -0.5725 -0.4866
  104MOL   H15333319   3.847   5.758   1.218 -1.4638  1.1265 -2.0592
  104MOL   H15433320   3.810   5.609   1.133  1.8885  1.6432  0.2350
  104MOL   H15533321   3.576   5.646   1.156  2.6583 -1.1369  0.2009
  104MOL   H15633322   3.737   5.684   0.751  0.1002 -0.6850  1.8912
  104MOL   H15733323   3.565   5.719   0.691  0.5741 -0.9734 -0.2414
  104MOL   H15833324   3.662   5.849   0.756 -0.3082  0.1171 -0.0691
  104MOL   H15933325   3.563   5.519   0.961 -2.0651 -0.1784  1.7605
  104MOL   H16033326   3.463   5.563   0.826  0.2268  0.2093 -1.4105
  104MOL   H16133327   3.430   5.642   0.980 -0.9488 -0.1497 -0.8300
  104MOL   C16233328   3.580   5.842   1.245  0.7738 -0.4407 -0.5317
  104MOL   C16333329   3.428   5.873   1.238  0.1511 -0.0396 -0.0423
  104MOL   C16433330   3.342   5.757   1.288  0.4863 -0.4168  0.1830
  104MOL   O16533331   3.326   5.670   1.208 -0.0369  0.7503 -0.4873
  104MOL   N16633332   3.285   5.762   1.410 -0.2469 -0.7152  0.1900
  104MOL   C16733333   3.308   5.866   1.503 -0.4228 -0.3497 -0.5293
  104MOL   C16833334   3.189   5.657   1.439  0.0752  1.0122  0.8018
  104MOL   H16933335   3.587   5.811   1.349 -1.1699 -0.0311 -0.2589
  104MOL   H17033336   3.640   5.932   1.233 -0.7269  1.1160  2.8256
  104MOL   H17133337   3.415   5.957   1.307  1.1871 -0.9174  1.2503
  104MOL   H17233338   3.401   5.923   1.500 -0.6969  0.0943 -0.6379
  104MOL   H17333339   3.225   5.936   1.492 -0.8691 -0.9802 -1.1695
  104MOL   H17433340   3.297   5.828   1.605  0.7482 -0.4432 -0.4298
  104MOL   H17533341   3.104   5.670   1.372  1.8528  2.7599 -1.2160
  104MOL   H17633342   3.148   5.645   1.539 -0.0878  0.8442  0.7150
  104MOL   H17733343   3.231   5.557   1.420 -0.3478  0.7789  1.1041
  104MOL   C17833344   3.376   5.935   1.097  0.0372  0.5872 -0.0921
  104MOL   C17933345   3.274   6.055   1.116 -0.4699  0.9918 -0.2588
  104MOL   C18033346   3.339   6.180   1.169  0.7532  0.3675  0.0594
  104MOL   O18133347   3.320   6.200   1.288 -0.3632 -0.3833  0.2048
  104MOL   N18233348   3.394   6.273   1.087  0.0972  0.5003 -0.0463
  104MOL   C18333349   3.422   6.258   0.950  0.6816  0.1102 -0.1588
  104MOL   C18433350   3.437   6.396   1.150 -0.0627  0.2342  0.1474
  104MOL   H18533351   3.467   5.968   1.046  0.0938 -0.8447 -0.9493
  104MOL   H18633352   3.331   5.859   1.032  1.3412 -0.7488  0.5347
  104MOL   H18733353   3.248   6.079   1.013  0.9656  4.0759  0.0585
  104MOL   H18833354   3.350   6.313   0.889  0.3718  0.5300  0.5822
  104MOL   H18933355   3.519   6.301   0.924  1.5203 -1.3709  0.4689
  104MOL   H19033356   3.431   6.157   0.908 -0.5021  0.0666 -0.3252
  104MOL   H19133357   3.510   6.455   1.097  1.6408  0.3708  2.5473
  104MOL   H19233358   3.498   6.369   1.237  1.5813 -1.4886 -1.5019
  104MOL   H19333359   3.356   6.461   1.183 -1.2450 -0.7988 -0.6675
  104MOL   C19433360   3.139   6.012   1.187  0.0944  0.5491  0.4454
  104MOL   C19533361   3.043   5.910   1.122  0.2403  0.2594  0.5081
  104MOL   C19633362   2.996   5.967   0.985  0.1783  0.2421  0.3324
  104MOL   O19733363   2.965   6.087   0.977  0.2864 -0.0763  0.1001
  104MOL   N19833364   2.985   5.878   0.880  0.2203  0.3202 -0.0222
  104MOL   C19933365   2.924   5.908   0.752  0.0719  0.4973  0.4738
  104MOL   C20033366   3.022   5.740   0.888  0.0702  0.1068 -0.1369
  104MOL   H20133367   3.151   5.982   1.291  0.7484  0.6725  0.4073
  104MOL   H20233368   3.084   6.106   1.195  0.7434  0.7833  2.3630
  104MOL   H20333369   3.110   5.826   1.106 -0.0051  0.5155 -2.1012
  104MOL   H20433370   2.889   6.010   0.739  1.1550  0.7138 -0.8762
  104MOL   H20533371   3.004   5.886   0.681 -0.8010  1.7299 -0.9128
  104MOL   H20633372   2.843   5.840   0.726  1.2651 -1.0167  0.6145
  104MOL   H20733373   2.989   5.681   0.803  1.6837 -1.9947  0.6563
  104MOL   H20833374   2.992   5.691   0.981 -0.5532 -1.0861 -0.9579
  104MOL   H20933375   3.131   5.735   0.896  0.0888  1.9732  1.1482
  104MOL   C21033376   2.925   5.870   1.213  0.3303 -0.3513 -0.3134
  104MOL   C21133377   2.812   5.972   1.249  0.4943  0.3267  0.0156
  104MOL   C21233378   2.846   6.066   1.366  0.6645 -0.4527 -0.1514
  104MOL   O21333379   2.889   6.008   1.467  0.0229  0.2728 -0.0282
  104MOL   N21433380   2.823   6.201   1.357 -0.6291  0.3287 -0.1591
  104MOL   C21533381   2.855   6.296   1.463  0.5767  0.0049 -0.0435
  104MOL   C21633382   2.794   6.267   1.230 -0.7540  0.2170 -0.7232
  104MOL   H21733383   2.877   5.792   1.154 -0.5423  0.2042 -0.3452
  104MOL   H21833384   2.968   5.820   1.300  1.3728 -0.2834 -0.7833
  104MOL   H21933385   2.774   6.031   1.166 -0.0527  0.6801  0.5148
  104MOL   H22033386   2.875   6.255   1.562  1.5493  2.4441  0.8121
  104MOL   H22133387   2.951   6.343   1.441  2.0721 -2.3262  1.3409
  104MOL   H22233388   2.780   6.376   1.470 -0.2701 -0.7761 -0.0775
  104MOL   H22333389   2.693   6.252   1.192 -0.2208  0.6374 -2.3444
  104MOL   H22433390   2.866   6.230   1.158  0.0429 -1.2380  0.7929
  104MOL   H22533391   2.813   6.374   1.233  0.4043  0.0201 -1.0109
  104MOL   C22633392   2.693   5.879   1.294 -0.9344 -0.1273  0.1530
  104MOL   C22733393   2.600   5.847   1.178  0.4909  1.0032 -0.0406
  104MOL   C22833394   2.506   5.971   1.143 -0.0806  0.3266 -0.2163
  104MOL   O22933395   2.431   6.010   1.237 -0.8471  0.1376 -0.0364
  104MOL   N23033396   2.511   6.030   1.021  0.1352  0.8699  0.3173
  104MOL   C23133397   2.609   6.016   0.913 -0.4897 -0.2356  0.0965
  104MOL   C23233398   2.417   6.132   0.994  0.9095 -0.1684  0.0742
  104MOL   H23333399   2.733   5.784   1.329  0.4518  0.9788  1.5997
  104MOL   H23433400   2.636   5.923   1.376  0.3984  0.2619  0.8826
  104MOL   H23533401   2.662   5.809   1.097 -0.4760  0.6425 -0.6204
  104MOL   H23633402   2.702   6.066   0.936  0.6959 -1.9820 -0.7302
  104MOL   H23733403   2.629   5.909   0.903  0.9116 -0.1320  1.5461
  104MOL   H23833404   2.574   6.044   0.814  2.1083 -1.7056 -1.2951
  104MOL   H23933405   2.316   6.091   1.001  0.4170  1.1787  1.3683
  104MOL   H24033406   2.430   6.173   0.894  1.8279 -0.5145  0.0455
  104MOL   H24133407   2.434   6.208   1.071 -1.6679 -0.6560  1.1950
  104MOL   C24233408   2.504   5.724   1.218 -0.0276  0.2546  0.4486
  104MOL   C24333409   2.393   5.692   1.111 -0.1320  0.9717 -0.2288
  104MOL   C24433410   2.300   5.579   1.165 -0.5203 -0.0656 -0.1579
  104MOL   O24533411   2.306   5.467   1.109 -0.4627  0.1081  0.2460
  104MOL   N24633412   2.214   5.604   1.259 -0.0559 -0.1351 -0.4752
  104MOL   C24733413   2.166   5.496   1.337  0.1255  0.2444  0.1325
  104MOL   C24833414   2.184   5.742   1.305  0.3634 -0.8328  0.2462
  104MOL   H24933415   2.572   5.638   1.225 -1.5845 -1.2085 -1.7951
  104MOL   H25033416   2.454   5.765   1.306 -2.6396  0.3934 -1.0826
  104MOL   H25133417   2.330   5.780   1.101  0.8308  1.6972  0.0556
  104MOL   H25233418   2.122   5.531   1.430  2.8829  1.8863  0.8851
  104MOL   H25333419   2.084   5.442   1.291 -0.4518  0.2758  1.1278
  104MOL   H25433420   2.237   5.417   1.361 -0.4273 -0.3774 -0.2878
  104MOL   H25533421   2.081   5.746   1.341  0.7045 -1.2717  1.2645
  104MOL   H25633422   2.196   5.826   1.236 -0.9915 -1.5935 -0.9385
  104MOL   H25733423   2.241   5.768   1.394 -1.2715 -1.7522  1.6016
  104MOL   C25833424   2.453   5.644   0.972  0.3887 -0.4002 -0.3514
  104MOL   C25933425   2.351   5.645   0.859  0.0099  0.5298 -1.0330
  104MOL   C26033426   2.406   5.571   0.738 -0.9296 -0.0020  0.6409
  104MOL   O26133427   2.484   5.637   0.673 -0.5661 -0.0615  0.4161
  104MOL   N26233428   2.379   5.444   0.708  0.2294 -0.3207  0.0611
  104MOL   C26333429   2.273   5.366   0.772 -0.3607  0.6887 -0.4886
  104MOL   C26433430   2.448   5.378   0.598 -0.4849 -0.2592  0.2014
  104MOL   H26533431   2.533   5.710   0.938 -0.1213 -0.0088 -0.8067
  104MOL   H26633432   2.502   5.548   0.986 -0.3588 -0.3154  3.4810
  104MOL   H26733433   2.270   5.584   0.898 -0.1931  1.8885  0.7168
  104MOL   H26833434   2.174   5.411   0.772  0.0359  1.5624 -0.3246
  104MOL   H26933435   2.247   5.267   0.734  0.9277 -0.3849  1.3523
  104MOL   H27033436   2.306   5.347   0.874  0.1705 -0.7143 -0.9153
  104MOL   H27133437   2.401   5.281   0.580 -0.6723 -0.4149  1.4875
  104MOL   H27233438   2.556   5.364   0.607 -0.5115 -1.4655 -1.1231
  104MOL   H27333439   2.444   5.431   0.503 -0.2654 -1.2328 -0.3578
  104MOL   C27433440   2.294   5.788   0.819 -0.1700 -0.0847 -1.1871
  104MOL   C27533441   2.142   5.779   0.786  0.2823 -0.1962 -0.1853
  104MOL   C27633442   2.099   5.906   0.707 -0.4892  1.0101 -0.3112
  104MOL   O27733443   2.083   6.002   0.778  0.0012  0.0491  0.1816
  104MOL   N27833444   2.082   5.895   0.573  0.7112 -0.2870 -0.1284
  104MOL   C27933445   2.055   6.018   0.490  0.4094  0.0635 -0.1787
  104MOL   C28033446   2.126   5.780   0.488  0.1697  0.3246  0.3625
  104MOL   H28133447   2.300   5.861   0.899  1.5665  2.4971 -3.5985
  104MOL   H28233448   2.351   5.844   0.745  1.6177  2.1316  1.7697
  104MOL   H28333449   2.123   5.689   0.728 -2.1285  0.2619 -0.1617
  104MOL   H28433450   2.099   6.020   0.391 -0.0702 -1.0372 -0.4293
  104MOL   H28533451   1.946   6.025   0.484  0.2729  1.1564  2.6637
  104MOL   H28633452   2.081   6.110   0.541  2.0061  0.0954 -1.0319
  104MOL   H28733453   2.092   5.792   0.385  0.5075 -0.2010  0.1881
  104MOL   H28833454   2.095   5.679   0.514  0.7405 -0.0201 -0.2713
  104MOL   H28933455   2.234   5.779   0.476  0.4965 -1.5093  3.0183
  104MOL   C29033456   2.061   5.768   0.922  0.3539  0.0043 -0.1486
  104MOL   C29133457   1.906   5.761   0.906  0.1656  0.1821  0.1913
  104MOL   C29233458   1.845   5.722   1.046  0.2831 -0.5066  0.1152
  104MOL   O29333459   1.817   5.604   1.063  0.5528 -0.1389  0.4286
  104MOL   N29433460   1.829   5.813   1.141 -0.1370  0.7523 -0.2265
  104MOL   C29533461   1.780   5.777   1.272  0.1474 -0.0875  0.0530
  104MOL   C29633462   1.878   5.946   1.131 -0.1284 -0.2916  0.4653
  104MOL   H29733463   2.108   5.687   0.978  0.7462 -0.0514 -0.5625
  104MOL   H29833464   2.078   5.853   0.988  0.4411 -0.4436  0.4046
  104MOL   H29933465   1.865   5.858   0.878  0.1591  0.3972  0.9532
  104MOL   H30033466   1.860   5.791   1.345 -0.2166 -0.5616  0.5499
  104MOL   H30133467   1.697   5.837   1.310 -2.3851 -3.2555 -0.2762
  104MOL   H30233468   1.752   5.673   1.289 -3.0473  0.6971  0.0719
  104MOL   H30333469   1.984   5.943   1.154 -0.3223  0.1482  1.4420
  104MOL   H30433470   1.833   6.011   1.207  0.5722 -0.4507  1.0207
  104MOL   H30533471   1.879   6.001   1.037 -1.8932 -1.8590 -0.5265
  104MOL   C30633472   1.860   5.659   0.788  0.9175  0.6989  0.1754
  104MOL   C30733473   1.707   5.653   0.763  0.1673 -0.2805  0.1029
  104MOL   C30833474   1.677   5.569   0.638 -0.2293 -0.2331 -0.1357
  104MOL   O30933475   1.755   5.577   0.547 -0.0273 -0.0875  0.0874
  104MOL   N31033476   1.564   5.493   0.626 -0.0273 -0.4016 -0.1794
  104MOL   C31133477   1.463   5.474   0.726 -0.2644 -0.4770  0.3490
  104MOL   C31233478   1.506   5.456   0.496 -0.2580  0.2155 -0.1234
  104MOL   H31333479   1.908   5.684   0.693 -0.6556 -1.3356 -1.2108
  104MOL   H31433480   1.893   5.557   0.810 -1.0261  0.8998  4.6515
  104MOL   H31533481   1.662   5.605   0.850  1.2366 -0.7057  0.4345
  104MOL   H31633482   1.367   5.448   0.681 -0.7873  0.5330  0.8470
  104MOL   H31733483   1.481   5.387   0.788  0.0456 -0.0068  0.9205
  104MOL   H31833484   1.454   5.566   0.785 -0.0209 -0.0959 -0.1988
  104MOL   H31933485   1.446   5.541   0.464  1.3045  1.3370 -0.1425
  104MOL   H32033486   1.452   5.361   0.490 -2.1058  1.2765 -0.4114
  104MOL   H32133487   1.588   5.454   0.423 -0.4167  1.7465 -0.3489
  104MOL   H32233488   1.669   5.750   0.732  1.8397  0.0366 -1.0298
  105MOL     C133489   0.680   0.091   0.874  0.2571  0.5575 -0.0609
  105MOL     C233490   0.689   0.152   0.732  0.1030 -0.4961 -0.5379
  105MOL     C333491   0.763   0.038   0.647  0.0720  0.0611 -0.0383
  105MOL     O433492   0.875   0.015   0.673 -0.0182  0.7606 -0.4280
  105MOL     N533493   0.692   7.819   0.554  0.5192 -0.3380 -0.2747
  105MOL     C633494   0.749   7.714   0.469  0.3908  0.5956 -0.0509
  105MOL     C733495   0.549   7.826   0.555  0.4185 -0.2672  0.0636
  105MOL     H833496   0.635   0.159   0.946  0.3112  0.3232  0.1972
  105MOL     H933497   0.775   0.049   0.907 -0.6632 -0.9169  0.7723
  105MOL    H1033498   0.588   0.170   0.697  0.4653  0.2006 -1.2188
  105MOL    H1133499   0.828   7.768   0.417 -0.6446  2.6510  0.4590
  105MOL    H1233500   0.789   7.627   0.521  0.0796  0.3030 -0.2996
  105MOL    H1333501   0.676   7.666   0.404 -1.0552  0.3493  1.7072
  105MOL    H1433502   0.500   7.824   0.652 -0.9705  0.6320 -0.6005
  105MOL    H1533503   0.498   7.741   0.509  0.6081 -1.5782  2.2336
  105MOL    H1633504   0.517   0.057   0.493 -1.6981 -0.7287  0.4913
  105MOL    H1733505   0.610   0.008   0.864  0.3827  0.2214  1.6126
  105MOL    C1833506   0.765   0.289   0.739  0.5561 -0.4266  0.4121
  105MOL    C1933507   0.790   0.356   0.607 -0.1804 -0.3738  0.9308
  105MOL    C2033508   0.897   0.471   0.621 -0.6820  0.2406 -0.2039
  105MOL    O2133509   0.860   0.579   0.650  0.3749 -0.0754 -0.2383
  105MOL    N2233510   1.032   0.441   0.606 -0.2834 -0.5008  0.9868
  105MOL    C2333511   1.080   0.312   0.550 -0.7149  0.1004  0.6467
  105MOL    C2433512   1.138   0.541   0.620 -0.2299 -0.3826  0.6784
  105MOL    H2533513   0.715   0.362   0.803 -0.6478  0.5329 -1.5810
  105MOL    H2633514   0.856   0.274   0.797  0.5507  2.6856  1.2952
  105MOL    H2733515   0.833   0.279   0.543 -1.9364  0.0281 -0.7446
  105MOL    H2833516   1.080   0.302   0.441  1.3012  0.4332  0.5912
  105MOL    H2933517   1.186   0.298   0.569  0.1380  1.9803 -2.3565
  105MOL    H3033518   1.042   0.220   0.594  0.2621 -1.1132 -0.9755
  105MOL    H3133519   1.117   0.610   0.701  2.3263  1.5748 -0.2562
  105MOL    H3233520   1.139   0.598   0.528 -2.6527 -0.5356  0.5318
  105MOL    H3333521   1.242   0.516   0.643  0.3308  2.0813  0.9490
  105MOL    C3433522   0.658   0.403   0.536  0.1031  0.0264  0.5227
  105MOL    C3533523   0.645   0.401   0.381  0.2952  0.1816 -0.2098
  105MOL    C3633524   0.641   0.257   0.320 -0.3589  0.1267  0.1370
  105MOL    O3733525   0.746   0.193   0.332  0.1723  0.2810  0.2799
  105MOL    N3833526   0.529   0.209   0.259 -0.3927 -1.2461  0.3349
  105MOL    C3933527   0.396   0.263   0.281 -0.0466  0.0094  0.0010
  105MOL    C4033528   0.539   0.078   0.188  0.0940 -0.1283 -0.0621
  105MOL    H4133529   0.575   0.335   0.559  1.2391 -2.0406 -1.2388
  105MOL    H4233530   0.636   0.500   0.580 -0.0501 -0.7735  2.2465
  105MOL    H4333531   0.553   0.455   0.359 -0.8003 -1.2298  0.8240
  105MOL    H4433532   0.381   0.345   0.211  2.0330  1.8784  1.7164
  105MOL    H4533533   0.327   0.180   0.262 -0.1839  0.2894 -0.7419
  105MOL    H4633534   0.369   0.318   0.371 -2.0868  1.6530 -1.5528
  105MOL    H4733535   0.440   0.033   0.174  0.2814 -0.7607  0.6448
  105MOL    H4833536   0.602   0.014   0.248 -0.0287 -2.4658 -2.3502
  105MOL    H4933537   0.589   0.102   0.094  0.6728  0.0760  0.3000
  105MOL    C5033538   0.757   0.492   0.316  0.6590 -0.4809  0.6201
  105MOL    C5133539   0.750   0.505   0.157 -0.1006 -0.3918  0.0673
  105MOL    C5233540   0.885   0.536   0.087 -0.2772 -0.7837 -0.3968
  105MOL    O5333541   0.943   0.635   0.129 -0.4729 -0.0867  0.4757
  105MOL    N5433542   0.940   0.453   7.850  0.5717 -0.0366  0.4480
  105MOL    C5533543   0.898   0.317   7.818  0.1337 -0.4899 -0.5471
  105MOL    C5633544   1.060   0.516   7.789 -0.1962 -0.3014 -0.0070
  105MOL    H5733545   0.775   0.587   0.365 -3.0919 -1.4676  4.1564
  105MOL    H5833546   0.852   0.441   0.334  0.4940 -0.7258  0.7938
  105MOL    H5933547   0.714   0.408   0.122  1.4654 -1.0259  0.1307
  105MOL    H6033548   0.968   0.278   7.744  0.4489 -0.2369 -0.3816
  105MOL    H6133549   0.897   0.256   0.054 -1.8249  0.7092  0.2890
  105MOL    H6233550   0.805   0.306   7.761  0.0964 -2.1885 -0.1860
  105MOL    H6333551   1.090   0.456   7.703  1.9591 -1.8122  1.7556
  105MOL    H6433552   1.134   0.536   0.013 -2.7419 -0.2464  2.4916
  105MOL    H6533553   1.044   0.617   7.754  0.2084  0.5212  2.0972
  105MOL    C6633554   0.628   0.589   0.104 -0.5070 -0.1522  0.1717
  105MOL    C6733555   0.621   0.740   0.148  0.4441  0.2592 -0.4080
  105MOL    C6833556   0.546   0.753   0.285 -0.3644  0.0680  1.0139
  105MOL    O6933557   0.438   0.690   0.299 -0.3751  0.0637 -0.5318
  105MOL    N7033558   0.603   0.830   0.378 -0.2106 -0.1762 -0.2610
  105MOL    C7133559   0.561   0.833   0.521  0.0001 -0.5625 -0.2534
  105MOL    C7233560   0.728   0.908   0.355 -0.1335 -0.6589  0.1160
  105MOL    H7333561   0.612   0.567   7.851  1.7006 -1.3743  0.0708
  105MOL    H7433562   0.537   0.538   0.134 -0.0340 -1.8216 -1.1222
  105MOL    H7533563   0.724   0.778   0.149  0.4897  0.1814 -1.4589
  105MOL    H7633564   0.622   0.754   0.566  0.5247  0.5070  0.9291
  105MOL    H7733565   0.583   0.931   0.562  0.8901 -0.4447 -1.0155
  105MOL    H7833566   0.457   0.799   0.529 -0.5175  1.1995  0.7213
  105MOL    H7933567   0.716   0.952   0.257 -1.1792  0.8948  0.9206
  105MOL    H8033568   0.818   0.846   0.352  1.0660  1.0842 -0.5178
  105MOL    H8133569   0.746   0.990   0.424  0.2802 -1.1635  0.6158
  105MOL    C8233570   0.563   0.840   0.039  0.2337  0.0825 -0.0855
  105MOL    C8333571   0.410   0.824   7.841 -0.0338  0.0710  0.0268
  105MOL    C8433572   0.397   0.718   7.729  0.4455 -0.2743 -0.5793
  105MOL    O8533573   0.474   0.731   7.640  0.7823  0.1279  0.4151
  105MOL    N8633574   0.308   0.610   7.748  0.4827  0.2937  0.9449
  105MOL    C8733575   0.281   0.510   7.642 -0.1107  0.8685  0.4398
  105MOL    C8833576   0.217   0.597   0.012 -0.7146 -0.2573 -0.2116
  105MOL    H8933577   0.583   0.945   0.059 -1.3063  0.4997 -0.6710
  105MOL    H9033578   0.617   0.824   7.798 -0.6758  0.4383 -0.6749
  105MOL    H9133579   0.360   0.802   0.081 -0.5536 -0.7981 -0.4490
  105MOL    H9233580   0.191   0.451   7.653 -0.6642  1.3276 -1.4843
  105MOL    H9333581   0.275   0.564   7.548  0.2705 -1.1825 -0.7909
  105MOL    H9433582   0.366   0.442   7.637  0.2951  1.3822  0.2782
  105MOL    H9533583   0.125   0.656   0.012 -0.6534 -0.1614 -0.2467
  105MOL    H9633584   0.275   0.609   0.104  0.5236  0.7128 -1.0877
  105MOL    H9733585   0.200   0.490   0.020  1.3773 -0.4101  3.2918
  105MOL    C9833586   0.359   0.962   7.791  0.1015 -0.0624  0.2011
  105MOL    C9933587   0.211   0.974   7.754 -0.6877  0.3779 -0.0157
  105MOL   C10033588   0.191   1.109   7.686  0.1450 -0.3916  0.4257
  105MOL   O10133589   0.277   1.196   7.704 -0.2609 -0.0067 -0.1440
  105MOL   N10233590   0.090   1.132   7.597  1.4370  0.5106 -0.7255
  105MOL   C10333591   0.074   1.265   7.543  0.0113  0.0132  0.3860
  105MOL   C10433592   7.835   1.035   7.557 -0.2402 -0.7759 -0.2094
  105MOL   H10533593   0.389   1.044   0.003  0.0643  0.7676 -0.8111
  105MOL   H10633594   0.419   0.980   7.702 -0.1073 -1.6158 -0.2668
  105MOL   H10733595   0.177   0.893   7.689  0.2041 -0.3948  0.4752
  105MOL   H10833596   0.147   1.256   7.463 -0.7804 -0.6200 -0.2802
  105MOL   H10933597   7.829   1.296   7.508  1.2670  2.7520 -0.9307
  105MOL   H11033598   0.097   1.340   7.619  1.2165 -0.9196  0.9586
  105MOL   H11133599   7.778   0.999   7.643  3.7584 -0.4270  2.7217
  105MOL   H11233600   0.033   0.952   7.510  0.6206  0.5319 -1.6432
  105MOL   H11333601   7.782   1.080   7.473 -1.8337 -0.2743  1.0328
  105MOL   C11433602   0.121   0.956   0.029  1.2743 -0.3296  0.0344
  105MOL   C11533603   0.096   1.078   0.121  0.0336 -0.0554  0.2914
  105MOL   C11633604   0.217   1.135   0.196  0.6080 -0.7358  0.1237
  105MOL   O11733605   0.292   1.051   0.247  0.5820  0.1143 -0.5864
  105MOL   N11833606   0.251   1.266   0.186 -0.0631  0.0187  1.1375
  105MOL   C11933607   0.389   1.294   0.234  0.2560  0.1770 -1.1464
  105MOL   C12033608   0.170   1.373   0.122  0.4267 -0.2922 -0.7949
  105MOL   H12133609   0.022   0.920   0.002  0.8121  2.1063 -1.6867
  105MOL   H12233610   0.155   0.875   0.094 -0.5682 -0.4532  0.8817
  105MOL   H12333611   0.071   1.156   0.050 -0.7544 -1.7246 -1.3124
  105MOL   H12433612   0.469   1.235   0.189  0.8231  0.8572 -1.0434
  105MOL   H12533613   0.421   1.398   0.225  3.2057 -0.4219  1.4062
  105MOL   H12633614   0.383   1.273   0.340 -3.8804  0.1421 -1.3220
  105MOL   H12733615   0.087   1.380   0.192 -0.5339 -1.3224 -1.8165
  105MOL   H12833616   0.140   1.359   0.018 -0.6864 -3.9090 -0.0717
  105MOL   H12933617   0.224   1.468   0.119 -1.0127  0.6865  2.4516
  105MOL   C13033618   7.827   1.058   0.222  0.6569  0.2722 -0.1334
  105MOL   C13133619   7.844   0.944   0.329  0.7210 -0.2261 -0.2582
  105MOL   C13233620   7.802   0.811   0.267 -0.1607 -0.4244  0.1965
  105MOL   O13333621   7.702   0.811   0.192 -0.7392 -0.0995 -0.1413
  105MOL   N13433622   0.013   0.698   0.292  0.1341 -0.1560  0.8170
  105MOL   C13533623   0.132   0.689   0.375  0.3707  0.0501  0.0497
  105MOL   C13633624   7.803   0.567   0.263  0.3671  0.2057 -0.3028
  105MOL   H13733625   7.835   1.158   0.263 -0.8703 -0.1067  1.1400
  105MOL   H13833626   7.735   1.040   0.166 -0.8501  0.2631  2.2867
  105MOL   H13933627   0.096   0.924   0.348  0.4138 -1.7814 -0.1589
  105MOL   H14033628   0.219   0.746   0.343 -0.9375  1.8810 -0.3144
  105MOL   H14133629   0.110   0.708   0.480  1.3985 -1.6836  0.5915
  105MOL   H14233630   0.165   0.585   0.379 -1.4868 -0.5165  1.2609
  105MOL   H14333631   0.020   0.484   0.261 -2.2468 -2.1218  1.1142
  105MOL   H14433632   7.759   0.552   0.164  1.6824  1.4802 -1.1085
  105MOL   H14533633   7.726   0.553   0.339 -0.7011 -1.4002 -1.6475
  105MOL   C14633634   7.762   0.984   0.457  0.0378  0.5258 -0.6679
  105MOL   C14733635   7.833   1.093   0.539 -0.6789 -1.1201 -0.1572
  105MOL   C14833636   0.100   1.040   0.619  1.1270 -0.4843  0.6485
  105MOL   O14933637   0.099   0.922   0.648 -0.2161  0.2356 -0.2113
  105MOL   N15033638   0.194   1.123   0.664 -0.3621 -0.2651 -0.2821
  105MOL   C15133639   0.186   1.272   0.656  0.4174 -1.2961 -0.3913
  105MOL   C15233640   0.321   1.071   0.716 -0.1441  1.0106  0.1624
  105MOL   H15333641   7.667   1.016   0.416  0.4334  0.8231 -1.3581
  105MOL   H15433642   7.744   0.887   0.503  0.2311  0.1375 -1.3917
  105MOL   H15533643   0.015   1.167   0.466 -0.6902  0.0682  1.0265
  105MOL   H15633644   0.260   1.337   0.704 -0.8040  1.1811 -1.7535
  105MOL   H15733645   0.165   1.297   0.552 -0.5326 -1.1033 -0.1665
  105MOL   H15833646   0.097   1.293   0.716  0.9032  1.2963 -0.5115
  105MOL   H15933647   0.351   1.123   0.807  0.1844  1.3385 -0.1309
  105MOL   H16033648   0.391   1.091   0.635 -0.2397  1.2686  0.1428
  105MOL   H16133649   0.316   0.965   0.742  0.0556  0.6629 -1.1409
  105MOL   C16233650   7.734   1.142   0.646  0.3698  0.4463 -0.0737
  105MOL   C16333651   7.622   1.240   0.600 -0.2547 -0.5952  0.4971
  105MOL   C16433652   7.682   1.350   0.512  0.6051  0.5674  0.7695
  105MOL   O16533653   7.760   1.425   0.571 -0.1516  0.4524  0.8502
  105MOL   N16633654   7.646   1.369   0.382  0.1864 -0.6357  0.2173
  105MOL   C16733655   7.697   1.481   0.299 -0.2481  0.4277  0.1433
  105MOL   C16833656   7.524   1.305   0.325 -1.0342  0.6859  0.5241
  105MOL   H16933657   7.686   1.055   0.690 -0.5919  2.3779  2.9202
  105MOL   H17033658   7.775   1.184   0.739  0.5142  1.9121 -0.7850
  105MOL   H17133659   7.560   1.170   0.545  1.1765 -0.5658 -1.1982
  105MOL   H17233660   7.736   1.447   0.203  1.1029 -2.4649  1.6903
  105MOL   H17333661   7.612   1.542   0.268 -1.0065  0.2545  1.8135
  105MOL   H17433662   7.781   1.537   0.341 -0.2652  0.0845  0.6348
  105MOL   H17533663   7.516   1.196   0.328 -0.7289  0.6523  0.1316
  105MOL   H17633664   7.519   1.321   0.218  0.1688  1.7010  0.6006
  105MOL   H17733665   7.437   1.349   0.373 -1.7216 -0.1040  0.0121
  105MOL   C17833666   7.534   1.290   0.718 -0.0399 -0.4635 -0.2761
  105MOL   C17933667   7.411   1.378   0.681 -0.5103 -0.0320 -0.0536
  105MOL   C18033668   7.441   1.528   0.653 -0.1528  0.0461  0.6786
  105MOL   O18133669   7.435   1.563   0.538  0.1071 -0.0236  0.0116
  105MOL   N18233670   7.443   1.623   0.746  0.6714 -0.2585 -1.0885
  105MOL   C18333671   7.445   1.766   0.705  0.6267 -0.2809  0.0603
  105MOL   C18433672   7.467   1.599   0.888  0.8075  0.1038  0.6075
  105MOL   H18533673   7.512   1.204   0.781 -0.4612  0.6287  1.0773
  105MOL   H18633674   7.600   1.353   0.777  1.6406 -0.5687 -1.9760
  105MOL   H18733675   7.386   1.333   0.585  5.3150 -2.8595 -0.4882
  105MOL   H18833676   7.363   1.789   0.636 -1.9305 -2.6038  2.2062
  105MOL   H18933677   7.449   1.845   0.780 -0.1727 -0.3173  0.1412
  105MOL   H19033678   7.535   1.778   0.645 -0.5214 -1.5869 -1.9579
  105MOL   H19133679   7.380   1.618   0.951  0.8324  0.0809  0.6494
  105MOL   H19233680   7.556   1.654   0.921  2.6330 -2.1550 -0.4255
  105MOL   H19333681   7.507   1.498   0.895 -0.7631 -0.7263 -1.9201
  105MOL   C19433682   7.291   1.357   0.786  0.0112 -0.1969 -0.4466
  105MOL   C19533683   7.154   1.429   0.759 -0.0698 -0.1035  0.2714
  105MOL   C19633684   7.110   1.524   0.871 -0.1228  0.2046 -0.1753
  105MOL   O19733685   7.104   1.482   0.987  0.1703  0.1364  0.6449
  105MOL   N19833686   7.083   1.654   0.841 -0.2830  0.2994  0.4921
  105MOL   C19933687   7.026   1.694   0.715 -0.3909  0.2830  0.7143
  105MOL   C20033688   7.069   1.755   0.945  0.4142 -0.1869 -0.1719
  105MOL   H20133689   7.277   1.252   0.809 -0.5361  0.4549  2.3710
  105MOL   H20233690   7.320   1.380   0.889 -1.3841 -0.2014 -0.0469
  105MOL   H20333691   7.182   1.481   0.667  0.0909 -1.1275 -0.2621
  105MOL   H20433692   7.112   1.723   0.655 -0.5255  0.4926  0.6238
  105MOL   H20533693   6.971   1.617   0.660  0.5168  0.1472 -0.0180
  105MOL   H20633694   6.965   1.783   0.733 -0.0106  0.7528 -0.2799
  105MOL   H20733695   7.128   1.734   1.034 -0.1396 -0.3433  0.1579
  105MOL   H20833696   6.970   1.757   0.990  0.7194 -1.5503  0.5664
  105MOL   H20933697   7.074   1.860   0.916 -0.1987  0.4863  2.0336
  105MOL   C21033698   7.036   1.324   0.737 -0.7474  0.4406 -0.2109
  105MOL   C21133699   7.040   1.269   0.596  0.4892 -0.1437  0.0907
  105MOL   C21233700   6.956   1.366   0.510  0.6511  0.8252  0.7415
  105MOL   O21333701   6.838   1.384   0.539 -0.5279 -0.8064 -0.3617
  105MOL   N21433702   7.014   1.434   0.412 -0.3260 -0.2718 -0.2730
  105MOL   C21533703   7.152   1.424   0.360 -0.7980  0.6100  0.2483
  105MOL   C21633704   6.943   1.549   0.351  0.1480 -0.0607 -0.0038
  105MOL   H21733705   7.061   1.242   0.804 -1.6678 -1.8030 -2.5393
  105MOL   H21833706   6.944   1.374   0.767 -1.4364 -1.9586  1.9558
  105MOL   H21933707   7.144   1.252   0.569  0.4611 -0.7477  0.3554
  105MOL   H22033708   7.159   1.487   0.271 -0.7356  0.0179 -0.1634
  105MOL   H22133709   7.234   1.457   0.424  0.3976 -0.4005 -0.7455
  105MOL   H22233710   7.171   1.323   0.323 -1.8125  0.3280  0.4754
  105MOL   H22333711   6.957   1.642   0.405 -2.2232 -1.2348  2.7229
  105MOL   H22433712   6.834   1.549   0.345  0.2691 -0.6433 -4.2861
  105MOL   H22533713   6.962   1.566   0.245 -1.0679 -0.3467 -0.2755
  105MOL   C22633714   6.991   1.123   0.580  0.1462  0.3449 -0.5157
  105MOL   C22733715   7.056   1.016   0.478 -0.1899  0.0979 -0.5332
  105MOL   C22833716   7.210   1.019   0.487 -0.3461  0.0381  0.5463
  105MOL   O22933717   7.281   1.105   0.429  0.6450  0.6390  0.2249
  105MOL   N23033718   7.270   0.923   0.561 -0.2980  0.1457  0.4561
  105MOL   C23133719   7.413   0.896   0.540  0.0043 -0.7142  0.2904
  105MOL   C23233720   7.217   0.845   0.670  0.3874  0.3971  0.0552
  105MOL   H23333721   7.013   1.075   0.676  1.1300 -2.8107 -2.2369
  105MOL   H23433722   6.884   1.128   0.557  0.5303  1.0589 -2.1940
  105MOL   H23533723   7.024   0.913   0.499 -0.6658  0.0721 -1.3557
  105MOL   H23633724   7.430   0.788   0.537  0.3403 -0.6253 -2.0339
  105MOL   H23733725   7.433   0.927   0.437  1.8688 -1.0900  0.5149
  105MOL   H23833726   7.491   0.933   0.607 -1.2827  1.0776  0.8171
  105MOL   H23933727   7.199   0.906   0.758 -1.5536  1.9760 -1.3696
  105MOL   H24033728   7.279   0.763   0.705 -0.5382 -0.4526 -0.2689
  105MOL   H24133729   7.125   0.793   0.642  1.8174 -1.0513 -2.0671
  105MOL   C24233730   7.007   1.042   0.338  0.0975 -0.7155 -0.0607
  105MOL   C24333731   7.040   0.947   0.226 -1.1371 -0.2436  0.0234
  105MOL   C24433732   7.167   0.997   0.151  0.6134  0.3247 -0.2962
  105MOL   O24533733   7.159   1.099   0.083  0.0236  0.0836 -0.4001
  105MOL   N24633734   7.279   0.926   0.157  0.0546 -0.2833 -0.4716
  105MOL   C24733735   7.295   0.786   0.211  0.2433 -0.3100 -0.1560
  105MOL   C24833736   7.404   0.988   0.109  0.9657  0.4458 -0.1775
  105MOL   H24933737   6.898   1.047   0.345  0.1911  0.2455  0.8436
  105MOL   H25033738   7.011   1.147   0.311  0.5969 -0.6346  0.3141
  105MOL   H25133739   7.054   0.849   0.271  0.2133 -0.8183 -1.6121
  105MOL   H25233740   7.397   0.746   0.216  0.3724  0.0919  0.5304
  105MOL   H25333741   7.272   0.775   0.317  0.9371 -1.4354 -0.1128
  105MOL   H25433742   7.233   0.716   0.157 -0.7132  0.6088 -0.2599
  105MOL   H25533743   7.494   0.934   0.138  0.0199 -1.2423 -0.2867
  105MOL   H25633744   7.414   1.089   0.149 -0.4035  0.2676  0.6402
  105MOL   H25733745   7.406   0.982   7.853  1.5687 -1.1601 -0.0985
  105MOL   C25833746   6.927   0.931   0.119 -0.5277 -0.1733 -0.2876
  105MOL   C25933747   6.936   0.816   0.014  0.2877  0.0430 -0.8328
  105MOL   C26033748   6.817   0.836   7.769 -0.6337 -0.1411 -0.1372
  105MOL   O26133749   6.707   0.789   7.804 -0.2586 -0.4436 -0.6682
  105MOL   N26233750   6.832   0.898   7.650  0.4226 -0.3170 -0.0440
  105MOL   C26333751   6.730   0.883   7.550  0.2885 -0.1188 -0.7255
  105MOL   C26433752   6.949   0.975   7.613  0.1139 -0.0542 -0.1785
  105MOL   H26533753   6.833   0.923   0.173  0.2178  0.1057  1.0792
  105MOL   H26633754   6.912   1.027   0.070 -1.7580  0.5316  1.4065
  105MOL   H26733755   7.026   0.820   7.807  0.1775 -1.6956 -1.1482
  105MOL   H26833756   6.636   0.933   7.570  1.3443  1.4516  0.4813
  105MOL   H26933757   6.772   0.916   7.455  0.6662  1.8824  0.1163
  105MOL   H27033758   6.716   0.776   7.537 -0.0673 -0.0113 -1.2025
  105MOL   H27133759   7.031   0.911   7.582 -1.3043 -1.6070 -0.8045
  105MOL   H27233760   6.973   1.029   7.705 -2.2791 -1.9433  1.6215
  105MOL   H27333761   6.925   1.056   7.543 -0.1769 -2.2809 -2.7084
  105MOL   C27433762   6.919   0.674   0.070  0.3050  0.2125 -0.1798
  105MOL   C27533763   6.921   0.550   7.830 -0.8270  0.0556  0.4335
  105MOL   C27633764   6.879   0.427   0.058 -0.0769  0.1885 -0.3220
  105MOL   O27733765   6.954   0.391   0.156 -0.0571 -0.9432 -0.7286
  105MOL   N27833766   6.767   0.360   0.035  0.4626  0.2482 -0.1385
  105MOL   C27933767   6.751   0.228   0.084 -0.0309  0.0103 -0.1452
  105MOL   C28033768   6.664   0.419   7.808  0.2710 -0.0863 -0.0672
  105MOL   H28133769   7.009   0.672   0.130  1.8426  3.5919 -2.2106
  105MOL   H28233770   6.830   0.685   0.133  1.2499 -0.1168  1.2258
  105MOL   H28333771   6.856   0.556   7.742  1.4434  1.7501 -1.2034
  105MOL   H28433772   6.668   0.216   0.155 -0.7098  0.9794 -0.7725
  105MOL   H28533773   6.729   0.159   0.002 -0.2366  1.0689 -0.9860
  105MOL   H28633774   6.846   0.188   0.119 -0.2062  1.8308  2.6503
  105MOL   H28733775   6.580   0.354   7.781 -0.6192  0.1017  2.1705
  105MOL   H28833776   6.710   0.442   7.712  1.6767  2.7551  1.2318
  105MOL   H28933777   6.627   0.513   7.849 -0.4279 -1.1216  1.7401
  105MOL   C29033778   7.060   0.530   7.757  0.6505  0.0010 -0.7286
  105MOL   C29133779   7.061   0.461   7.617  0.4622  0.3016  0.0151
  105MOL   C29233780   6.989   0.549   7.512  0.2965  0.0308  0.2962
  105MOL   O29333781   6.867   0.532   7.495  0.2227  0.5727 -0.2869
  105MOL   N29433782   7.063   0.638   7.436  0.7977 -0.9281  0.2970
  105MOL   C29533783   7.202   0.667   7.464  0.3690  0.6970  0.0350
  105MOL   C29633784   7.000   0.730   7.337  0.5036 -0.0044  0.3999
  105MOL   H29733785   7.102   0.628   7.737  0.4604  0.8935  3.0210
  105MOL   H29833786   7.134   0.484   7.822  1.2470  0.4647 -1.0710
  105MOL   H29933787   7.167   0.452   7.593  0.8110  1.2906  1.1123
  105MOL   H30033788   7.268   0.585   7.437 -0.5606 -0.4903  1.2655
  105MOL   H30133789   7.238   0.760   7.420  2.4450 -0.3262 -0.4939
  105MOL   H30233790   7.210   0.677   7.573 -1.3584 -0.6632  0.2989
  105MOL   H30333791   7.025   0.835   7.354 -1.1099  0.3073  0.9750
  105MOL   H30433792   6.891   0.721   7.334  0.3564  1.3871  1.2960
  105MOL   H30533793   7.041   0.697   7.242 -3.0206  1.6900 -1.8169
  105MOL   C30633794   7.020   0.311   7.630  0.6028  0.7635  0.3650
  105MOL   C30733795   7.073   0.234   7.504  0.6933  0.0108  0.4525
  105MOL   C30833796   7.058   0.082   7.509  0.8464  0.0396  0.0889
  105MOL   O30933797   6.977   0.042   7.598 -0.6597 -0.2376 -0.0358
  105MOL   N31033798   7.124   0.002   7.422  0.0865 -0.4205 -0.3702
  105MOL   C31133799   7.228   0.058   7.331 -0.8348 -0.3724  0.0898
  105MOL   C31233800   7.097   7.715   7.411 -0.6392  0.1916  0.1372
  105MOL   H31333801   7.069   0.264   7.715  1.9292 -1.9394 -1.7826
  105MOL   H31433802   6.912   0.298   7.636  0.8928 -2.9178 -0.6872
  105MOL   H31533803   7.010   0.267   7.421  0.9009 -0.7165  0.0001
  105MOL   H31633804   7.307   7.837   7.344 -0.0497  0.2115 -1.1761
  105MOL   H31733805   7.196   0.042   7.228 -3.6579 -0.0546  0.8928
  105MOL   H31833806   7.273   0.157   7.338 -0.5840 -0.5010  0.3708
  105MOL   H31933807   7.187   7.662   7.440 -0.6500 -0.4087 -0.9100
  105MOL   H32033808   7.086   7.681   7.309  0.3272  1.1744 -0.3106
  105MOL   H32133809   7.005   7.679   7.459  0.0581  0.7135  1.9144
  105MOL   H32233810   7.171   0.275   7.480  0.2765 -0.6553 -2.5339
  106MOL     C133811   6.939   7.415   3.175  0.1454  0.0197 -0.1593
  106MOL     C233812   7.044   7.445   3.287  0.2258  0.2919 -0.2358
  106MOL     C333813   7.096   7.594   3.292  0.2262  0.0634 -0.0653
  106MOL     O433814   7.195   7.620   3.230  0.2458  0.1024  0.1801
  106MOL     N533815   7.031   7.692   3.364 -0.1884  0.2761  0.0225
  106MOL     C633816   6.894   7.680   3.413  0.2964 -0.1379 -0.1124
  106MOL     C733817   7.090   7.819   3.378 -0.3767  0.3589  0.1035
  106MOL     H833818   6.912   7.313   3.146 -1.6051  0.2646  0.5757
  106MOL     H933819   6.964   7.465   3.081 -2.5800  2.0338  0.1577
  106MOL    H1033820   6.993   7.423   3.381  0.0333  1.4554 -0.0544
  106MOL    H1133821   6.890   7.582   3.461  0.1479 -0.3109 -0.4820
  106MOL    H1233822   6.878   7.747   3.497  0.9962  0.4797 -0.4644
  106MOL    H1333823   6.812   7.672   3.341 -0.9000 -0.2188  1.2356
  106MOL    H1433824   7.121   7.853   3.477  0.7259 -0.5850  0.0965
  106MOL    H1533825   7.019   0.042   3.346 -0.3542 -0.5719 -2.2557
  106MOL    H1633826   7.174   7.848   3.316  2.3045 -0.9852  2.9631
  106MOL    H1733827   6.848   7.468   3.203 -0.6823 -0.9158 -1.0463
  106MOL    C1833828   7.157   7.339   3.287  0.2973 -0.3715 -0.7780
  106MOL    C1933829   7.259   7.329   3.407 -0.2195  0.4766  0.0836
  106MOL    C2033830   7.378   7.237   3.373 -0.0893  0.9041 -0.5412
  106MOL    O2133831   7.361   7.136   3.302 -0.0785  0.0377 -0.2185
  106MOL    N2233832   7.503   7.268   3.413 -0.0821  0.0200 -0.9739
  106MOL    C2333833   7.528   7.405   3.464 -0.0718 -0.6404  0.2667
  106MOL    C2433834   7.614   7.177   3.389 -0.3770 -0.4967  0.0429
  106MOL    H2533835   7.112   7.240   3.279 -0.5801  0.0178 -0.7617
  106MOL    H2633836   7.212   7.353   3.193  1.6723  0.7753  0.1783
  106MOL    H2733837   7.287   7.433   3.417  1.1231  0.0613  0.6985
  106MOL    H2833838   7.499   7.421   3.568 -2.3246 -0.4778 -0.3660
  106MOL    H2933839   7.636   7.419   3.475 -0.1205 -1.1981  1.5067
  106MOL    H3033840   7.501   7.483   3.393  1.0261 -1.8104 -1.4694
  106MOL    H3133841   7.594   7.073   3.361 -2.2656  0.4172 -2.1276
  106MOL    H3233842   7.680   7.185   3.475  0.4741 -2.0194 -0.4329
  106MOL    H3333843   7.682   7.207   3.308  1.9396  0.4223  2.2637
  106MOL    C3433844   7.186   7.289   3.537 -0.2128 -0.2034  0.1903
  106MOL    C3533845   7.130   7.142   3.560  0.2447  0.3098  0.1389
  106MOL    C3633846   6.981   7.123   3.535 -0.1588 -0.0221  0.2111
  106MOL    O3733847   6.911   7.197   3.604 -0.0955  0.2765  0.0135
  106MOL    N3833848   6.927   7.038   3.444 -0.6113 -0.0971 -0.1528
  106MOL    C3933849   6.794   7.045   3.398  0.1389  0.2033  0.2947
  106MOL    C4033850   7.004   6.932   3.376  0.5504 -0.0473 -0.0476
  106MOL    H4133851   7.252   7.311   3.621 -0.2006  2.5133 -0.4928
  106MOL    H4233852   7.102   7.352   3.567 -1.2224 -2.4181  2.1600
  106MOL    H4333853   7.185   7.073   3.496  1.4102 -0.8993  2.3588
  106MOL    H4433854   6.753   7.140   3.432  0.9634  0.6001  0.1904
  106MOL    H4533855   6.790   7.050   3.289 -3.0374 -2.0435  0.2447
  106MOL    H4633856   6.727   6.974   3.447  1.4049 -1.2241 -0.0152
  106MOL    H4733857   6.941   6.849   3.344  1.4099 -0.9170  0.5037
  106MOL    H4833858   7.069   6.894   3.454  0.6717 -0.4278 -0.3373
  106MOL    H4933859   7.052   6.963   3.284  2.2021 -0.0114  0.8165
  106MOL    C5033860   7.159   7.099   3.706 -0.0017  0.8000 -0.2069
  106MOL    C5133861   7.307   7.063   3.735 -0.0208  0.1741 -0.1257
  106MOL    C5233862   7.357   6.939   3.653  0.1592  0.1327 -0.1369
  106MOL    O5333863   7.274   6.860   3.616 -0.1371  0.0316 -0.5352
  106MOL    N5433864   7.485   6.927   3.614 -0.0871  1.5491 -0.2212
  106MOL    C5533865   7.593   7.010   3.661 -0.4003 -0.5090  0.2781
  106MOL    C5633866   7.517   6.825   3.514  0.1339  0.5279 -0.3312
  106MOL    H5733867   7.129   7.180   3.772 -0.7831 -0.2456  0.7295
  106MOL    H5833868   7.094   7.016   3.734  0.3512  0.8132  0.6677
  106MOL    H5933869   7.364   7.151   3.706 -0.2205 -0.0345 -1.1885
  106MOL    H6033870   7.678   6.997   3.594 -0.3694 -1.1560  0.4321
  106MOL    H6133871   7.568   7.116   3.670  0.8762 -0.2621  0.9875
  106MOL    H6233872   7.612   6.985   3.765 -0.3277 -0.9195  0.1675
  106MOL    H6333873   7.612   6.847   3.464  0.7251 -1.2438 -0.0088
  106MOL    H6433874   7.447   6.816   3.431 -0.2214 -0.7775  0.1013
  106MOL    H6533875   7.530   6.729   3.563 -1.0196  0.3199 -0.4244
  106MOL    C6633876   7.348   7.044   3.886  0.2046  0.0448  0.0721
  106MOL    C6733877   7.272   6.949   3.987 -0.0033 -0.0350 -0.2454
  106MOL    C6833878   7.131   7.001   4.020  0.4324 -0.3048  0.8780
  106MOL    O6933879   7.118   7.108   4.071  0.4986 -0.1128 -0.5066
  106MOL    N7033880   7.025   6.920   4.000 -1.0492 -0.4984 -0.2008
  106MOL    C7133881   7.025   6.809   3.906 -0.2448 -0.0936  0.2059
  106MOL    C7233882   6.891   6.962   4.031 -0.9355  0.1134  0.2697
  106MOL    H7333883   7.452   7.011   3.891  0.2493  0.6151  3.6627
  106MOL    H7433884   7.361   7.143   3.929  0.4335  0.9459 -1.9834
  106MOL    H7533885   7.269   6.851   3.939 -2.4103  0.7823 -1.8982
  106MOL    H7633886   6.942   6.808   3.835  2.5408  0.5922 -3.1571
  106MOL    H7733887   7.102   6.820   3.830  0.3475  0.2422  0.8509
  106MOL    H7833888   7.025   6.709   3.950 -1.0673  0.4755  1.5520
  106MOL    H7933889   6.842   6.884   4.089  1.3819  0.5236  2.9045
  106MOL    H8033890   6.841   6.983   3.936  1.9649 -1.1453 -1.5838
  106MOL    H8133891   6.891   7.039   4.109  0.2440 -1.3736  1.7834
  106MOL    C8233892   7.361   6.926   4.110 -0.2547 -0.5002  0.0120
  106MOL    C8333893   7.298   6.873   4.244 -0.2847  0.6609  0.0894
  106MOL    C8433894   7.388   6.892   4.362 -0.3359 -0.2909  0.4668
  106MOL    O8533895   7.484   6.821   4.371 -0.1246 -0.0048  0.4491
  106MOL    N8633896   7.361   6.982   4.464  0.4499  0.6153 -0.6094
  106MOL    C8733897   7.425   6.965   4.597  0.1805 -0.1486  0.0089
  106MOL    C8833898   7.282   7.107   4.435 -0.4172 -0.0597 -0.2369
  106MOL    H8933899   7.449   6.869   4.081  0.5797  1.3004 -1.1254
  106MOL    H9033900   7.412   7.018   4.138 -1.0295  0.1796 -0.7949
  106MOL    H9133901   7.213   6.937   4.265 -1.8207 -1.7117  1.4065
  106MOL    H9233902   7.436   6.857   4.605  0.2734 -0.1952 -0.6831
  106MOL    H9333903   7.529   6.996   4.593  0.8664 -1.6900  3.4289
  106MOL    H9433904   7.370   7.009   4.680  2.7448 -0.6812  2.0709
  106MOL    H9533905   7.328   7.183   4.498 -1.7162  1.7701 -1.4619
  106MOL    H9633906   7.177   7.088   4.457 -0.1863 -0.4821  0.5342
  106MOL    H9733907   7.291   7.141   4.332 -1.3584  2.2295  0.4131
  106MOL    C9833908   7.258   6.719   4.227  0.0669  0.0093  0.3493
  106MOL    C9933909   7.188   6.651   4.349 -0.4111  0.4230  0.0992
  106MOL   C10033910   7.173   6.502   4.305 -0.1932 -0.4079 -0.6710
  106MOL   O10133911   7.075   6.475   4.232  0.1443 -0.0759 -0.5518
  106MOL   N10233912   7.241   6.400   4.367  0.3689 -0.0728  0.4753
  106MOL   C10333913   7.374   6.411   4.426 -0.2157 -0.1604 -0.6150
  106MOL   C10433914   7.175   6.267   4.362 -0.3253 -0.4919 -0.1883
  106MOL   H10533915   7.185   6.706   4.147 -1.6421  1.5763  1.6135
  106MOL   H10633916   7.351   6.679   4.189  1.9070  3.5045  0.9527
  106MOL   H10733917   7.265   6.658   4.425 -1.0701  0.5263  0.7600
  106MOL   H10833918   7.376   6.451   4.527 -0.0452  1.5050 -1.2609
  106MOL   H10933919   7.410   6.309   4.431  1.3152  0.4160  0.3972
  106MOL   H11033920   7.438   6.471   4.361 -1.3196  1.2875 -0.4046
  106MOL   H11133921   7.222   6.183   4.413 -0.8266  0.1167  1.3216
  106MOL   H11233922   7.151   6.234   4.261 -0.7371 -1.7526  0.3121
  106MOL   H11333923   7.084   6.288   4.419  0.2394  0.3981  0.4060
  106MOL   C11433924   7.065   6.727   4.403 -0.1744  0.1242 -0.2087
  106MOL   C11533925   6.975   6.652   4.504 -0.3722  0.7597  0.3710
  106MOL   C11633926   6.833   6.716   4.487  0.0369  0.2250  0.3512
  106MOL   O11733927   6.804   6.817   4.549 -0.2276 -0.0204 -0.0506
  106MOL   N11833928   6.731   6.648   4.426  0.3688 -0.2698  0.3417
  106MOL   C11933929   6.755   6.546   4.320  0.3890  0.5550  0.0867
  106MOL   C12033930   6.584   6.665   4.450  0.0511 -0.3006 -0.0654
  106MOL   H12133931   7.107   6.815   4.452  1.8714 -1.0870  0.2782
  106MOL   H12233932   7.009   6.775   4.323 -0.7909 -0.9325 -0.4150
  106MOL   H12333933   6.965   6.546   4.482 -0.5970  1.1068 -1.2559
  106MOL   H12433934   6.826   6.580   4.245  0.7401  0.8918  0.5680
  106MOL   H12533935   6.787   6.453   4.366  0.2796  0.3666 -0.2169
  106MOL   H12633936   6.660   6.516   4.275  0.8123  0.1783 -0.5602
  106MOL   H12733937   6.547   6.569   4.487 -2.6599  0.2156 -1.2741
  106MOL   H12833938   6.532   6.702   4.361 -1.6185 -1.0302  0.5791
  106MOL   H12933939   6.563   6.739   4.527 -2.5000  1.4267 -2.3239
  106MOL   C13033940   7.032   6.665   4.639  0.3615  0.0583  0.1061
  106MOL   C13133941   6.974   6.571   4.751 -0.1572  0.5071 -0.1331
  106MOL   C13233942   7.005   6.424   4.728 -0.3192 -0.4550 -0.6717
  106MOL   O13333943   6.953   6.361   4.630 -0.4718 -0.3677 -0.4638
  106MOL   N13433944   7.095   6.356   4.807 -0.0321  0.2746  0.0953
  106MOL   C13533945   7.111   6.212   4.783 -0.6313 -0.3362  0.5292
  106MOL   C13633946   7.173   6.413   4.925 -0.0005  0.0826 -0.2334
  106MOL   H13733947   7.140   6.651   4.634  0.5467  1.0156  1.3483
  106MOL   H13833948   7.017   6.768   4.670 -0.3373 -0.0143  0.0190
  106MOL   H13933949   7.022   6.601   4.843  0.1748 -1.8878  0.5027
  106MOL   H14033950   7.022   6.160   4.817  0.1394 -2.3362 -0.4669
  106MOL   H14133951   7.117   6.191   4.676  4.2610 -2.3214  1.0887
  106MOL   H14233952   7.190   6.161   4.838 -0.4591  2.2790  2.8725
  106MOL   H14333953   7.228   6.502   4.894 -0.4541  0.2629 -0.5133
  106MOL   H14433954   7.247   6.351   4.978 -1.1549 -1.0090  0.1252
  106MOL   H14533955   7.102   6.448   5.000 -0.2167 -0.1281 -0.3393
  106MOL   C14633956   6.824   6.598   4.779  0.1654  0.3487 -0.7664
  106MOL   C14733957   6.746   6.509   4.876 -0.0881  0.3653  0.1162
  106MOL   C14833958   6.604   6.530   4.835 -0.0038 -0.3247  0.0095
  106MOL   O14933959   6.543   6.628   4.874  0.1774 -0.2594  0.1561
  106MOL   N15033960   6.534   6.431   4.776 -0.0582 -0.2373  0.1852
  106MOL   C15133961   6.600   6.334   4.684 -0.0104 -0.2540 -0.2916
  106MOL   C15233962   6.389   6.433   4.766  0.3945 -0.6912 -0.2782
  106MOL   H15333963   6.805   6.704   4.793  0.1359  0.1250  0.9116
  106MOL   H15433964   6.792   6.563   4.681  1.2482  0.1989 -1.0760
  106MOL   H15533965   6.779   6.408   4.850  0.8406  0.7347 -0.1551
  106MOL   H15633966   6.614   6.236   4.730  2.0066  0.9669  1.7965
  106MOL   H15733967   6.532   6.317   4.601  1.1574  0.3074 -1.3774
  106MOL   H15833968   6.696   6.363   4.641 -0.2677 -0.6543 -1.1361
  106MOL   H15933969   6.367   6.469   4.666  1.9575  1.4582  0.0880
  106MOL   H16033970   6.330   6.490   4.838  1.6529  1.0616 -0.5949
  106MOL   H16133971   6.351   6.331   4.768 -0.9764 -0.1696  1.4878
  106MOL   C16233972   6.772   6.549   5.028  0.0929 -0.6579 -0.0916
  106MOL   C16333973   6.681   6.480   5.134 -0.7129  0.2078 -0.4196
  106MOL   C16433974   6.700   6.543   5.276 -0.2979 -0.1209  0.2539
  106MOL   O16533975   6.756   6.471   5.359  0.3072  0.0985 -0.3931
  106MOL   N16633976   6.641   6.665   5.299 -0.6278 -0.0243  0.7302
  106MOL   C16733977   6.574   6.761   5.205 -0.1653  0.1834  0.4591
  106MOL   C16833978   6.676   6.731   5.423  0.2116 -0.3308  0.2107
  106MOL   H16933979   6.877   6.545   5.056 -0.2115 -0.7402  1.0496
  106MOL   H17033980   6.759   6.657   5.035  1.1783 -0.6818  3.2145
  106MOL   H17133981   6.579   6.493   5.099  0.3601  1.0907 -3.3570
  106MOL   H17233982   6.628   6.855   5.195  0.7085 -0.3709 -0.1090
  106MOL   H17333983   6.560   6.725   5.103 -0.5991  3.0664 -0.5237
  106MOL   H17433984   6.473   6.791   5.232 -0.7840  0.0412 -1.6095
  106MOL   H17533985   6.716   6.661   5.497  0.8370  1.1512  1.2918
  106MOL   H17633986   6.588   6.758   5.481  0.4877  0.8150  0.0978
  106MOL   H17733987   6.754   6.808   5.418  2.2314 -2.3326 -0.1235
  106MOL   C17833988   6.703   6.326   5.133 -0.7320 -0.6090 -0.0715
  106MOL   C17933989   6.602   6.231   5.216 -0.3483  1.0911 -0.0633
  106MOL   C18033990   6.675   6.095   5.207 -0.5021 -0.0789 -0.2597
  106MOL   O18133991   6.665   6.029   5.107 -0.5402  0.5079  0.7461
  106MOL   N18233992   6.740   6.041   5.314  0.5298  0.1592  0.1296
  106MOL   C18333993   6.780   6.116   5.435  0.5784 -0.2662 -0.1532
  106MOL   C18433994   6.785   5.894   5.323  0.1541  0.0870 -0.2617
  106MOL   H18533995   6.690   6.303   5.027 -1.6951 -0.6359  0.0485
  106MOL   H18633996   6.807   6.314   5.164 -1.1316 -1.5547  0.9564
  106MOL   H18733997   6.612   6.261   5.321  0.0042 -0.7193  0.4351
  106MOL   H18833998   6.838   6.206   5.411  1.1110  0.0647  2.2539
  106MOL   H18933999   6.698   6.156   5.494 -1.0278 -1.6312 -1.4045
  106MOL   H19034000   6.837   6.053   5.504  0.4553 -0.1633  0.0413
  106MOL   H19134001   6.884   5.874   5.282  0.5865  1.1554  0.2369
  106MOL   H19234002   6.721   5.838   5.255  2.5666 -1.9975 -0.8669
  106MOL   H19334003   6.790   5.850   5.422 -0.1154  0.6080 -0.0124
  106MOL   C19434004   6.451   6.235   5.178 -0.3557  0.0502 -0.3966
  106MOL   C19534005   6.349   6.204   5.292  0.5188  0.2421  0.2224
  106MOL   C19634006   6.386   6.068   5.348 -0.9760 -0.1991  0.4453
  106MOL   O19734007   6.382   5.970   5.277 -0.3833  0.4664 -0.0155
  106MOL   N19834008   6.401   6.057   5.483 -0.3420 -0.2395 -0.0205
  106MOL   C19934009   6.388   6.176   5.572  0.4728  1.0536  0.7204
  106MOL   C20034010   6.452   5.938   5.547  0.4037 -0.0533 -0.0086
  106MOL   H20134011   6.425   6.330   5.133  2.0741 -0.0197 -2.0345
  106MOL   H20234012   6.433   6.170   5.092 -2.5235 -0.7853  0.6295
  106MOL   H20334013   6.361   6.290   5.358  1.2303  0.1681  0.1849
  106MOL   H20434014   6.468   6.250   5.573  0.6461  0.8607  2.0377
  106MOL   H20534015   6.287   6.217   5.562  0.7491  1.0517 -2.4115
  106MOL   H20634016   6.382   6.142   5.676  0.7693  2.3704  1.1836
  106MOL   H20734017   6.375   5.869   5.581 -1.5845  0.5339 -3.1814
  106MOL   H20834018   6.511   5.972   5.633  4.2174  0.1167 -2.5647
  106MOL   H20934019   6.531   5.889   5.490  0.2526  0.5732 -0.7545
  106MOL   C21034020   6.202   6.198   5.253 -0.1168 -0.4884 -0.0216
  106MOL   C21134021   6.141   6.328   5.189 -0.1345 -0.0021 -0.8655
  106MOL   C21234022   6.147   6.451   5.281 -0.1355 -0.1842 -0.8488
  106MOL   O21334023   6.138   6.437   5.403 -0.1523 -0.1076 -0.7995
  106MOL   N21434024   6.171   6.575   5.224  0.2339  0.1670 -0.1419
  106MOL   C21534025   6.123   6.699   5.292  0.2949 -0.2380 -0.0562
  106MOL   C21634026   6.247   6.595   5.093  0.3569  0.6968 -0.7359
  106MOL   H21734027   6.185   6.117   5.182 -1.2950 -0.1919 -0.0829
  106MOL   H21834028   6.139   6.178   5.340 -1.9515  0.8480 -0.9958
  106MOL   H21934029   6.201   6.351   5.101 -0.3110 -0.9040 -1.2274
  106MOL   H22034030   6.052   6.671   5.370 -0.2308  0.1863 -0.3855
  106MOL   H22134031   6.203   6.752   5.343 -0.5766  0.1134  0.9496
  106MOL   H22234032   6.078   6.758   5.212  0.8896 -1.2389 -1.1539
  106MOL   H22334033   6.287   6.696   5.098 -0.0106  0.8164 -0.0629
  106MOL   H22434034   6.184   6.584   5.005  0.8264 -1.3990 -0.8324
  106MOL   H22534035   6.325   6.523   5.070 -0.8495 -0.1723 -2.1736
  106MOL   C22634036   5.996   6.312   5.127 -0.3541 -0.2883  0.4053
  106MOL   C22734037   5.962   6.184   5.042 -1.3640 -0.1396 -0.1469
  106MOL   C22834038   6.069   6.155   4.938  0.7261 -0.4682 -0.5441
  106MOL   O22934039   6.118   6.249   4.878 -0.2146  0.3672 -0.2290
  106MOL   N23034040   6.117   6.029   4.936 -0.8193 -0.0645  0.2543
  106MOL   C23134041   6.253   6.004   4.897 -0.2531 -0.2406  0.2703
  106MOL   C23234042   6.037   5.906   4.947 -0.3051  0.4600 -0.2878
  106MOL   H23334043   5.917   6.337   5.198 -0.6869 -0.2850  0.0360
  106MOL   H23434044   6.013   6.399   5.064 -1.9190  0.2329  0.6755
  106MOL   H23534045   5.950   6.103   5.115 -0.1273  0.6164  0.9200
  106MOL   H23634046   6.289   6.064   4.813  2.5710 -2.7438 -0.4031
  106MOL   H23734047   6.321   6.012   4.982 -0.9693  0.2182  0.8014
  106MOL   H23834048   6.263   5.902   4.858 -1.1627  0.2376 -1.2823
  106MOL   H23934049   6.106   5.824   4.969 -1.4719  0.1282  2.3626
  106MOL   H24034050   5.968   5.878   4.868  0.5314 -1.6111 -0.3271
  106MOL   H24134051   5.981   5.894   5.040 -1.1839 -1.8786 -1.0727
  106MOL   C24234052   5.823   6.178   4.971 -0.1057 -0.9584  0.5862
  106MOL   C24334053   5.776   6.290   4.868  0.7954 -1.3895  0.4168
  106MOL   C24434054   5.774   6.436   4.923  0.1118 -0.5984 -1.1486
  106MOL   O24534055   5.725   6.450   5.036  0.0240 -0.1279  0.4104
  106MOL   N24634056   5.856   6.532   4.884 -1.1863 -0.3383 -0.2923
  106MOL   C24734057   5.856   6.659   4.960 -0.9596  0.2894  0.6588
  106MOL   C24834058   5.935   6.537   4.760 -0.0502 -0.2827 -0.3019
  106MOL   H24934059   5.817   6.083   4.919  1.6365 -2.8486  3.7147
  106MOL   H25034060   5.745   6.171   5.047  0.2750  0.1831  1.0870
  106MOL   H25134061   5.843   6.294   4.782 -0.1181  0.4723 -0.2188
  106MOL   H25234062   5.912   6.647   5.053 -1.5287  0.8861  1.0781
  106MOL   H25334063   5.904   6.747   4.916  0.1519  0.3483  1.9407
  106MOL   H25434064   5.757   6.686   4.996 -1.4979 -1.7476  0.7495
  106MOL   H25534065   5.875   6.568   4.675 -0.8704  0.9575  0.7138
  106MOL   H25634066   5.984   6.443   4.736  1.5553 -0.1079  2.0646
  106MOL   H25734067   6.020   6.604   4.773  0.3521 -1.0678  1.2364
  106MOL   C25834068   5.632   6.238   4.818  0.7154  0.2600 -0.0389
  106MOL   C25934069   5.627   6.189   4.671 -0.1028  0.4355 -0.0055
  106MOL   C26034070   5.656   6.299   4.576 -0.3468 -0.1700  0.6046
  106MOL   O26134071   5.614   6.416   4.602  0.3207 -0.3824  0.0545
  106MOL   N26234072   5.750   6.277   4.478  0.2741 -0.1172  0.1806
  106MOL   C26334073   5.785   6.142   4.436 -0.0465 -0.8886  0.7905
  106MOL   C26434074   5.815   6.382   4.402 -0.3043 -0.4595 -0.7775
  106MOL   H26534075   5.592   6.170   4.894  0.7527  0.7609  0.4303
  106MOL   H26634076   5.562   6.321   4.829 -1.4509 -1.6315  0.7624
  106MOL   H26734077   5.698   6.106   4.664  0.7677  1.3931 -2.9392
  106MOL   H26834078   5.859   6.097   4.503  0.1874  0.5745  1.5248
  106MOL   H26934079   5.700   6.074   4.438 -2.0727  1.6388  2.1395
  106MOL   H27034080   5.826   6.131   4.336 -0.6792 -0.9266  0.5365
  106MOL   H27134081   5.782   6.391   4.298  0.9031 -1.4184 -1.2636
  106MOL   H27234082   5.919   6.353   4.385 -0.1402  0.9245 -2.2952
  106MOL   H27334083   5.802   6.477   4.453  0.1009 -2.3822  3.0448
  106MOL   C27434084   5.491   6.123   4.652  0.3421 -0.0793  0.3830
  106MOL   C27534085   5.460   5.993   4.724  0.0241  0.1190 -0.7619
  106MOL   C27634086   5.570   5.884   4.714 -0.3755 -0.3419  0.3886
  106MOL   O27734087   5.606   5.844   4.604  0.5898  0.1970  0.1247
  106MOL   N27834088   5.624   5.828   4.826 -0.3131  1.0515  0.1661
  106MOL   C27934089   5.568   5.837   4.962  0.1806 -0.4288  0.0446
  106MOL   C28034090   5.727   5.721   4.809 -0.0910 -0.5039  0.4678
  106MOL   H28134091   5.421   6.205   4.669  0.6214  0.2549 -0.0831
  106MOL   H28234092   5.486   6.098   4.546 -1.6947 -0.8978  0.6412
  106MOL   H28334093   5.455   6.026   4.828 -2.4428  2.0020 -1.4501
  106MOL   H28434094   5.581   5.937   5.004 -1.3089 -0.9796  1.8522
  106MOL   H28534095   5.464   5.810   4.977  0.3783 -2.0238 -1.3978
  106MOL   H28634096   5.622   5.781   5.038  0.3611 -0.4015 -0.0620
  106MOL   H28734097   5.776   5.684   4.900  0.0777 -0.1704  0.5127
  106MOL   H28834098   5.811   5.759   4.751 -0.3040  0.9854  1.1200
  106MOL   H28934099   5.688   5.633   4.758  0.0171 -0.2151 -0.1150
  106MOL   C29034100   5.324   5.919   4.677 -0.0978 -0.1993  0.4318
  106MOL   C29134101   5.188   5.943   4.751 -0.2030  0.0129 -0.0791
  106MOL   C29234102   5.148   6.090   4.744 -0.2169  0.8572 -0.7366
  106MOL   O29334103   5.203   6.173   4.820 -0.3095 -0.1682 -0.9315
  106MOL   N29434104   5.043   6.134   4.669  0.2911  1.0631  0.3068
  106MOL   C29534105   4.976   6.261   4.698 -0.2337  0.6322 -0.0584
  106MOL   C29634106   4.970   6.040   4.580  0.1022  0.1884  0.2562
  106MOL   H29734107   5.305   5.935   4.571 -0.4138  0.0201  0.5227
  106MOL   H29834108   5.348   5.813   4.678  0.4180 -0.1331 -1.5792
  106MOL   H29934109   5.124   5.874   4.696 -1.4411  0.0247  1.3058
  106MOL   H30034110   4.896   6.291   4.629 -1.5910 -0.2015  1.1277
  106MOL   H30134111   4.929   6.281   4.794 -0.7331 -0.9041  0.0335
  106MOL   H30234112   5.036   6.350   4.680  0.2940  0.4734  0.9259
  106MOL   H30334113   4.896   5.980   4.633 -2.5436  2.0195 -1.2014
  106MOL   H30434114   5.036   5.976   4.521 -0.2154  0.3687 -0.2948
  106MOL   H30534115   4.911   6.101   4.512  0.7109  0.6284  0.1262
  106MOL   C30634116   5.213   5.891   4.902  0.5330  0.2097  0.1488
  106MOL   C30734117   5.094   5.909   5.007 -0.3884 -0.6184 -0.1199
  106MOL   C30834118   4.956   5.841   4.966  0.1663 -0.3049  0.1944
  106MOL   O30934119   4.932   5.814   4.848 -0.6565 -0.1320  0.1044
  106MOL   N31034120   4.874   5.802   5.066 -0.3598 -0.4428 -0.1014
  106MOL   C31134121   4.755   5.725   5.024  0.3929 -0.6504  0.2638
  106MOL   C31234122   4.889   5.825   5.210 -0.3056 -0.1993 -0.3573
  106MOL   H31334123   5.256   5.791   4.893  0.2537  0.2243 -1.5631
  106MOL   H31434124   5.290   5.956   4.942  0.9688 -0.3539  0.2342
  106MOL   H31534125   5.126   5.879   5.106  1.4007  0.3956 -0.3737
  106MOL   H31634126   4.732   5.636   5.083  0.0499 -2.6240 -2.7169
  106MOL   H31734127   4.668   5.788   5.036  0.9745  0.0403  0.9363
  106MOL   H31834128   4.752   5.686   4.922  1.6418  0.9034 -0.3959
  106MOL   H31934129   4.989   5.795   5.243 -1.8579 -1.4806  3.4221
  106MOL   H32034130   4.818   5.767   5.269 -0.5720 -0.5293 -0.9966
  106MOL   H32134131   4.874   5.933   5.218  0.4201 -0.2933  2.9743
  106MOL   H32234132   5.068   6.015   5.017  1.9993  0.1611 -1.8474
  107MOL     C134133   2.858   4.549   4.134 -0.2336  0.0715 -0.2039
  107MOL     C234134   2.898   4.403   4.141  0.4729 -0.9410  0.2580
  107MOL     C334135   2.964   4.368   4.008 -0.5507  1.1310 -0.2772
  107MOL     O434136   2.889   4.326   3.924  0.6896 -0.0905 -0.0750
  107MOL     N534137   3.098   4.378   3.991 -0.1542 -0.4001 -0.2535
  107MOL     C634138   3.189   4.426   4.100 -0.0273  0.1970  0.2360
  107MOL     C734139   3.151   4.332   3.859  0.4831 -0.5579  0.4990
  107MOL     H834140   2.937   4.622   4.149  1.1477 -1.4719  0.1298
  107MOL     H934141   2.777   4.568   4.204  0.8806 -0.9538  1.4085
  107MOL    H1034142   2.977   4.399   4.216  0.6163 -1.3007  0.0848
  107MOL    H1134143   3.150   4.526   4.118  0.9325  1.0833 -2.3011
  107MOL    H1234144   3.180   4.366   4.190 -2.4659  0.8335  0.4576
  107MOL    H1334145   3.291   4.438   4.063 -0.8738  0.0227 -2.2958
  107MOL    H1434146   3.119   4.230   3.837 -0.2714 -0.5855  1.6820
  107MOL    H1534147   3.259   4.346   3.856  0.2659  1.0367 -1.5389
  107MOL    H1634148   3.099   4.390   3.783  0.6127 -1.9484 -0.6664
  107MOL    H1734149   2.821   4.569   4.034 -1.0956  1.3220  0.3429
  107MOL    C1834150   2.777   4.310   4.175 -0.0398  0.0684 -0.2227
  107MOL    C1934151   2.755   4.291   4.320 -0.0585  0.4233 -0.7531
  107MOL    C2034152   2.883   4.219   4.376  0.1955  0.0836  0.4854
  107MOL    O2134153   2.907   4.108   4.327 -0.3167  0.2688 -0.7194
  107MOL    N2234154   2.966   4.280   4.467 -0.7467 -0.4782  0.6362
  107MOL    C2334155   2.949   4.417   4.513  1.0088  0.3576  0.0633
  107MOL    C2434156   3.081   4.217   4.532  0.5247 -0.0834 -0.1617
  107MOL    H2534157   2.692   4.336   4.112  0.2579  0.0690 -0.6287
  107MOL    H2634158   2.799   4.210   4.137 -2.4479 -1.0125  1.0803
  107MOL    H2734159   2.732   4.390   4.360 -3.7012 -1.1104  1.2224
  107MOL    H2834160   2.989   4.492   4.444  3.0385  1.1861  2.0902
  107MOL    H2934161   2.845   4.443   4.533  0.4082 -0.5092 -1.7822
  107MOL    H3034162   3.002   4.435   4.606  0.9798  1.5383 -0.1400
  107MOL    H3134163   3.058   4.200   4.637 -0.1332  0.2219 -0.2560
  107MOL    H3234164   3.170   4.280   4.531  0.1681  0.4318  0.0346
  107MOL    H3334165   3.110   4.121   4.489 -1.6973 -1.1618  0.6874
  107MOL    C3434166   2.620   4.209   4.336 -0.5422  0.0528  0.1655
  107MOL    C3534167   2.558   4.194   4.478  0.4717  0.6345  0.5961
  107MOL    C3634168   2.491   4.323   4.526 -0.0381 -0.0288  0.3615
  107MOL    O3734169   2.568   4.415   4.544 -0.4011  0.5907  1.0557
  107MOL    N3834170   2.354   4.331   4.546 -0.5020 -0.0559  0.1089
  107MOL    C3934171   2.263   4.220   4.579  0.1628 -0.1161 -0.6826
  107MOL    C4034172   2.297   4.466   4.547  0.1960 -0.8646 -0.7178
  107MOL    H4134173   2.548   4.258   4.269  0.2113  0.3899 -0.4046
  107MOL    H4234174   2.636   4.111   4.292  0.1291  1.0718 -1.9311
  107MOL    H4334175   2.471   4.132   4.457  0.5823  0.0970  1.6950
  107MOL    H4434176   2.182   4.226   4.651  1.1852 -0.7967  0.5307
  107MOL    H4534177   2.225   4.205   4.478  2.6618  2.7033 -2.1169
  107MOL    H4634178   2.318   4.140   4.627 -1.1036 -0.8238 -0.3828
  107MOL    H4734179   2.200   4.467   4.497 -2.0047 -2.3485  3.3111
  107MOL    H4834180   2.369   4.526   4.491  2.1585 -1.9701  0.5547
  107MOL    H4934181   2.284   4.509   4.646  2.2383 -1.1988 -0.2756
  107MOL    C5034182   2.647   4.123   4.578  0.1576  0.2052 -0.8711
  107MOL    C5134183   2.685   3.973   4.553 -0.0635  0.3298 -0.0008
  107MOL    C5234184   2.573   3.868   4.540 -0.6455  0.5716  0.4185
  107MOL    O5334185   2.468   3.887   4.607  0.2996  0.2770 -0.1211
  107MOL    N5434186   2.594   3.751   4.465  0.3554 -0.4488  0.4095
  107MOL    C5534187   2.733   3.710   4.433 -0.6702 -0.5271 -0.3511
  107MOL    C5634188   2.489   3.652   4.436  0.5419  0.1749  0.5604
  107MOL    H5734189   2.725   4.192   4.609  0.0532  0.2185 -0.6363
  107MOL    H5834190   2.583   4.120   4.666 -1.1700 -0.8970 -1.8485
  107MOL    H5934191   2.728   3.980   4.453  2.0331  1.1886  0.9527
  107MOL    H6034192   2.719   3.609   4.392 -0.4325 -0.0358 -1.6675
  107MOL    H6134193   2.779   3.776   4.360 -0.2834  0.3055  0.6358
  107MOL    H6234194   2.803   3.710   4.516  0.5937 -1.5185 -1.3803
  107MOL    H6334195   2.399   3.671   4.494 -1.2254  2.6339 -2.8259
  107MOL    H6434196   2.528   3.553   4.459  0.1066 -0.4092 -1.1308
  107MOL    H6534197   2.471   3.648   4.329 -1.4639  1.1319  0.8367
  107MOL    C6634198   2.799   3.939   4.649  0.1835  0.3570 -0.3798
  107MOL    C6734199   2.762   3.867   4.780 -0.1974  0.4326  0.0788
  107MOL    C6834200   2.672   3.962   4.867 -1.1614  0.0388 -1.2093
  107MOL    O6934201   2.711   4.076   4.893  0.0082  0.1029  0.2345
  107MOL    N7034202   2.554   3.913   4.909  0.6407  0.3981  0.3543
  107MOL    C7134203   2.495   3.784   4.882 -0.1357 -0.2908 -0.1834
  107MOL    C7234204   2.461   4.002   4.973 -0.1519 -0.6958 -0.3171
  107MOL    H7334205   2.874   3.882   4.595 -1.0374  0.2701 -2.0227
  107MOL    H7434206   2.853   4.029   4.680  0.5016 -0.1533  0.5792
  107MOL    H7534207   2.706   3.778   4.752 -0.1609 -0.0619  1.5656
  107MOL    H7634208   2.558   3.705   4.842 -2.2365 -0.0419 -4.2043
  107MOL    H7734209   2.464   3.724   4.968 -0.6961  1.6606  1.0211
  107MOL    H7834210   2.401   3.800   4.829 -0.3164 -0.0471  0.2061
  107MOL    H7934211   2.417   4.067   4.897  0.2641  2.0458  1.7052
  107MOL    H8034212   2.513   4.055   5.053 -0.6124 -0.6420 -0.0472
  107MOL    H8134213   2.370   3.950   5.002  0.3332 -1.6977 -0.5540
  107MOL    C8234214   2.891   3.827   4.858  0.7808  0.3035  0.5853
  107MOL    C8334215   2.875   3.723   4.972 -0.0899  0.4423 -0.2433
  107MOL    C8434216   2.904   3.805   5.100  0.3622 -0.5199  0.6322
  107MOL    O8534217   3.016   3.847   5.119  0.1565 -0.1507  0.4942
  107MOL    N8634218   2.806   3.848   5.178  0.0906 -0.5293 -0.3927
  107MOL    C8734219   2.819   3.962   5.272 -0.3966  0.3222  0.3540
  107MOL    C8834220   2.682   3.767   5.196  0.0011 -0.4361  0.2048
  107MOL    H8934221   2.962   3.787   4.786 -0.7052 -1.9335  0.3032
  107MOL    H9034222   2.955   3.911   4.884  0.8275  0.6401 -0.6122
  107MOL    H9134223   2.774   3.682   4.973  1.1804 -2.8541 -2.1592
  107MOL    H9234224   2.843   3.931   5.374 -0.2216 -1.0057 -0.0854
  107MOL    H9334225   2.898   4.034   5.250  1.6624 -2.1003 -0.4345
  107MOL    H9434226   2.725   4.017   5.269 -2.3601 -2.8526  1.5104
  107MOL    H9534227   2.693   3.661   5.173 -0.1906 -0.4524  0.1813
  107MOL    H9634228   2.627   3.819   5.117 -0.2376 -3.9282 -2.0329
  107MOL    H9734229   2.631   3.772   5.293  0.4758  0.2434  0.4253
  107MOL    C9834230   2.971   3.602   4.961 -0.0226 -0.5586 -0.0797
  107MOL    C9934231   2.937   3.507   4.838 -0.3293  0.0365 -0.3426
  107MOL   C10034232   2.822   3.416   4.883  0.3132  0.4755  1.0266
  107MOL   O10134233   2.842   3.356   4.988 -0.0511  0.4632  0.2516
  107MOL   N10234234   2.699   3.405   4.822 -0.6400 -0.3880  0.4106
  107MOL   C10334235   2.586   3.337   4.886 -0.9982 -0.0506 -0.5865
  107MOL   C10434236   2.663   3.467   4.691  0.5945  0.2252  0.4740
  107MOL   H10534237   3.069   3.646   4.941  0.2566 -1.7738 -1.4471
  107MOL   H10634238   2.977   3.563   5.063 -3.9352 -0.7724  0.1439
  107MOL   H10734239   2.916   3.560   4.746  1.3797 -0.4731 -1.0517
  107MOL   H10834240   2.506   3.327   4.813  1.0990 -3.1681 -2.6093
  107MOL   H10934241   2.628   3.239   4.910 -1.1281  0.1123  0.3132
  107MOL   H11034242   2.550   3.392   4.973 -1.5182 -0.5490 -0.4759
  107MOL   H11134243   2.711   3.397   4.621  0.8236 -0.5944  1.4344
  107MOL   H11234244   2.705   3.565   4.670  0.4666  0.0455 -0.6893
  107MOL   H11334245   2.558   3.460   4.663 -0.0528  1.1276  2.6238
  107MOL   C11434246   3.051   3.416   4.781 -0.1301 -0.3452 -0.7868
  107MOL   C11534247   3.171   3.489   4.716 -0.6410 -0.7154 -0.0776
  107MOL   C11634248   3.130   3.585   4.596  0.6410 -0.0057 -0.1075
  107MOL   O11734249   3.054   3.543   4.505  0.4175  0.2477 -0.0949
  107MOL   N11834250   3.193   3.702   4.578 -0.3982 -0.5995  0.5592
  107MOL   C11934251   3.264   3.770   4.687 -0.3927  0.4624  0.2841
  107MOL   C12034252   3.172   3.792   4.461  1.1253 -0.0606 -0.0444
  107MOL   H12134253   3.068   3.337   4.854 -1.9988  0.0296  0.1003
  107MOL   H12234254   3.012   3.355   4.698  0.8951 -0.7951 -0.9391
  107MOL   H12334255   3.220   3.557   4.785  2.0519 -2.1750 -0.4956
  107MOL   H12434256   3.199   3.779   4.774  0.3161 -0.9074  0.9803
  107MOL   H12534257   3.359   3.726   4.717  0.1873  2.1459  0.9666
  107MOL   H12634258   3.288   3.865   4.639 -2.5419  0.2296 -1.3318
  107MOL   H12734259   3.265   3.832   4.421 -0.6011  3.6140 -0.6253
  107MOL   H12834260   3.098   3.869   4.484 -0.2063 -1.0254 -0.9603
  107MOL   H12934261   3.129   3.732   4.380  1.0611 -1.1583  0.7907
  107MOL   C13034262   3.270   3.384   4.657  0.1887  1.1620  0.3281
  107MOL   C13134263   3.409   3.431   4.605  0.5555  0.4778  0.1561
  107MOL   C13234264   3.442   3.345   4.478  0.0124  0.1794 -0.3247
  107MOL   O13334265   3.466   3.221   4.491 -0.0719 -0.5140 -0.5877
  107MOL   N13434266   3.422   3.403   4.354 -0.6598  0.0936  0.0552
  107MOL   C13534267   3.420   3.551   4.328 -1.1435 -0.2941 -0.1948
  107MOL   C13634268   3.414   3.317   4.229  0.2373  0.0359 -0.3274
  107MOL   H13734269   3.296   3.300   4.722  0.2839 -0.6000 -1.8828
  107MOL   H13834270   3.210   3.341   4.577 -1.0930  0.7316  1.5019
  107MOL   H13934271   3.402   3.536   4.576 -1.8982  0.3998  0.3866
  107MOL   H14034272   3.439   3.570   4.222  3.5628  0.1575  0.6110
  107MOL   H14134273   3.327   3.595   4.363 -0.7766  0.4962 -0.1872
  107MOL   H14234274   3.497   3.608   4.380 -1.2401  0.7219 -1.1401
  107MOL   H14334275   3.516   3.289   4.204  0.3590  0.3582 -0.2009
  107MOL   H14434276   3.357   3.373   4.155  0.9098  0.1231 -0.7791
  107MOL   H14534277   3.353   3.228   4.245  0.6695 -0.5165 -1.7015
  107MOL   C14634278   3.529   3.420   4.711 -0.3240 -0.5580  0.4133
  107MOL   C14734279   3.655   3.489   4.673 -0.1732 -1.0673 -0.5391
  107MOL   C14834280   3.769   3.415   4.736 -0.2000  0.3763  0.3727
  107MOL   O14934281   3.781   3.426   4.857  0.0186  0.6886 -0.2278
  107MOL   N15034282   3.857   3.340   4.659 -0.8712 -0.7485  0.5252
  107MOL   C15134283   3.859   3.329   4.515 -0.1676  0.3197  0.1159
  107MOL   C15234284   3.950   3.249   4.727  0.0530  0.0493  0.4274
  107MOL   H15334285   3.497   3.438   4.813  0.4065  1.0785  0.3731
  107MOL   H15434286   3.547   3.313   4.710 -1.3112 -0.7356 -1.2995
  107MOL   H15534287   3.658   3.499   4.564  0.2524 -0.0122 -0.4325
  107MOL   H15634288   3.825   3.425   4.474 -0.0037 -0.2821 -1.4522
  107MOL   H15734289   3.958   3.305   4.477  0.2720  0.2878  1.2662
  107MOL   H15834290   3.785   3.263   4.471 -2.5387  2.8583  0.0844
  107MOL   H15934291   4.020   3.202   4.658 -1.7922 -0.2726 -1.2897
  107MOL   H16034292   3.891   3.161   4.755 -0.5672  0.6797  1.1228
  107MOL   H16134293   3.983   3.285   4.824  0.3703 -0.3507  0.4675
  107MOL   C16234294   3.653   3.640   4.729  0.5678 -0.5135  0.1128
  107MOL   C16334295   3.776   3.732   4.716 -0.4631 -0.2112  0.3779
  107MOL   C16434296   3.780   3.841   4.832  0.2605 -0.2308 -0.0492
  107MOL   O16534297   3.677   3.897   4.861  0.0333 -0.1684  0.0490
  107MOL   N16634298   3.893   3.857   4.905 -0.1392 -0.1593 -0.1539
  107MOL   C16734299   4.012   3.795   4.868 -0.2273 -0.1856  0.0412
  107MOL   C16834300   3.890   3.923   5.037  0.5827 -0.0818 -0.1355
  107MOL   H16934301   3.572   3.695   4.680  1.9295  1.2756 -0.1603
  107MOL   H17034302   3.627   3.636   4.834  2.0320  0.5312  0.5201
  107MOL   H17134303   3.864   3.669   4.727 -0.0128 -0.2722 -3.1642
  107MOL   H17234304   4.020   3.690   4.895  2.7323  0.8429  3.4787
  107MOL   H17334305   4.035   3.804   4.761  0.3919  2.0699  0.3396
  107MOL   H17434306   4.100   3.844   4.911 -0.8396  2.5032 -1.6227
  107MOL   H17534307   3.797   3.914   5.093 -0.2592 -1.4365 -1.6870
  107MOL   H17634308   3.920   4.024   5.011 -3.0667  1.7323  2.2408
  107MOL   H17734309   3.977   3.882   5.088  0.6955 -0.2588 -0.4712
  107MOL   C17834310   3.802   3.788   4.569  0.5736 -0.0712  0.6232
  107MOL   C17934311   3.761   3.932   4.516 -0.5007  0.4675  0.0141
  107MOL   C18034312   3.603   3.950   4.521 -0.4581 -0.4257 -0.4720
  107MOL   O18134313   3.529   3.862   4.473  0.1171 -0.1243 -0.4324
  107MOL   N18234314   3.552   4.069   4.567 -0.8906  0.6902  0.3066
  107MOL   C18334315   3.634   4.170   4.633 -0.2421  0.5054  0.1803
  107MOL   C18434316   3.408   4.100   4.568  0.4677 -0.5406  0.4137
  107MOL   H18534317   3.908   3.782   4.545  0.9019  0.2484  1.9492
  107MOL   H18634318   3.761   3.721   4.493  1.5716  1.7053 -1.5438
  107MOL   H18734319   3.808   4.002   4.585 -0.9027  2.8133 -2.0251
  107MOL   H18834320   3.658   4.119   4.726 -2.9576  0.8884  1.1485
  107MOL   H18934321   3.722   4.187   4.571 -0.9824 -0.1042 -1.0665
  107MOL   H19034322   3.573   4.260   4.647  1.0582  1.2932  0.8939
  107MOL   H19134323   3.352   4.027   4.509 -1.0505  0.4283  0.6333
  107MOL   H19234324   3.386   4.203   4.540  3.2909 -0.4350 -1.7332
  107MOL   H19334325   3.373   4.080   4.669  0.1401  0.1066  0.4284
  107MOL   C19434326   3.830   3.969   4.385  0.0780 -0.3747  0.3923
  107MOL   C19534327   3.815   3.869   4.264  0.2743  0.3128 -0.1730
  107MOL   C19634328   3.925   3.761   4.257  0.1660 -0.3871  0.3545
  107MOL   O19734329   4.038   3.802   4.275 -0.7107  0.3484 -0.0298
  107MOL   N19834330   3.892   3.632   4.233 -0.1840  0.5113 -0.4090
  107MOL   C19934331   3.994   3.531   4.256 -0.2045  0.1356 -0.0371
  107MOL   C20034332   3.759   3.577   4.194 -0.2968 -0.7111  0.0785
  107MOL   H20134333   3.803   4.068   4.350 -1.8617 -0.4902  1.5063
  107MOL   H20234334   3.937   3.986   4.399  0.0524  1.0009 -0.9372
  107MOL   H20334335   3.718   3.821   4.277  0.2248  0.7265  1.0646
  107MOL   H20434336   3.956   3.431   4.236  1.2285  0.0708 -2.6059
  107MOL   H20534337   4.086   3.551   4.201 -0.2432  3.1013  0.8797
  107MOL   H20634338   4.026   3.531   4.360  1.0148 -0.3387 -0.4028
  107MOL   H20734339   3.766   3.484   4.138  0.2535 -0.9750  0.5837
  107MOL   H20834340   3.713   3.644   4.122  1.1191  0.9809  0.7101
  107MOL   H20934341   3.711   3.570   4.291 -0.9183 -0.8124 -0.2366
  107MOL   C21034342   3.814   3.954   4.126  0.7289  0.6577  0.2769
  107MOL   C21134343   3.680   4.035   4.098 -0.0335 -0.7663  0.4945
  107MOL   C21234344   3.560   3.946   4.058  0.7434 -0.1177  0.1369
  107MOL   O21334345   3.592   3.862   3.972 -0.0532 -0.1739 -0.1132
  107MOL   N21434346   3.432   3.968   4.108  0.2340  0.3248 -0.1540
  107MOL   C21534347   3.321   3.890   4.047  0.0535  0.2567 -0.3854
  107MOL   C21634348   3.392   4.073   4.201 -0.0471 -0.1336  0.1069
  107MOL   H21734349   3.894   4.028   4.126  0.8348  0.5628 -1.2471
  107MOL   H21834350   3.842   3.880   4.051 -0.5338 -0.2874  0.7143
  107MOL   H21934351   3.654   4.092   4.187  0.8422 -0.0568  0.3022
  107MOL   H22034352   3.308   3.805   4.113  1.8596  0.5244  0.3506
  107MOL   H22134353   3.228   3.946   4.050  1.5608  2.8090  0.8794
  107MOL   H22234354   3.332   3.845   3.948  1.7238 -1.3226  0.4975
  107MOL   H22334355   3.453   4.057   4.290 -2.0413 -2.1790  1.1655
  107MOL   H22434356   3.291   4.043   4.228  0.1193  1.8443  3.1882
  107MOL   H22534357   3.409   4.169   4.153  1.6512 -0.4446  0.0630
  107MOL   C22634358   3.707   4.119   3.974 -0.1271  0.2149  0.2132
  107MOL   C22734359   3.741   4.262   3.995 -0.1726 -0.9620  0.2471
  107MOL   C22834360   3.620   4.332   4.071 -0.5076  0.3240 -0.1870
  107MOL   O22934361   3.505   4.336   4.020  0.0687 -0.6520 -0.0339
  107MOL   N23034362   3.640   4.390   4.186 -0.0503 -0.3593 -0.0099
  107MOL   C23134363   3.538   4.470   4.254  0.0231  0.7250  0.0233
  107MOL   C23234364   3.764   4.387   4.258 -0.1342  0.3405 -1.0831
  107MOL   H23334365   3.791   4.074   3.921 -0.3171  0.5349 -0.3631
  107MOL   H23434366   3.624   4.117   3.904 -0.5204 -0.2442  0.6881
  107MOL   H23534367   3.835   4.266   4.050  0.0549 -2.6481  0.0134
  107MOL   H23634368   3.517   4.424   4.351  0.4454  3.6224  1.5450
  107MOL   H23734369   3.588   4.565   4.269 -0.1300  1.0578 -1.5040
  107MOL   H23834370   3.449   4.495   4.196 -1.1455 -1.9395  0.5874
  107MOL   H23934371   3.835   4.463   4.227 -0.5881  0.9959 -0.5329
  107MOL   H24034372   3.817   4.291   4.254  0.0782  0.3805  0.4282
  107MOL   H24134373   3.749   4.405   4.365  0.5583 -0.7822 -0.7868
  107MOL   C24234374   3.754   4.338   3.862 -0.3624 -0.9655 -0.3275
  107MOL   C24334375   3.777   4.489   3.867 -0.0529  0.1436 -0.5088
  107MOL   C24434376   3.753   4.535   3.716  0.0479  0.2263 -0.5493
  107MOL   O24534377   3.846   4.548   3.640 -0.3442 -0.4760 -0.0679
  107MOL   N24634378   3.628   4.575   3.685 -0.4772  0.8894 -0.2281
  107MOL   C24734379   3.503   4.570   3.763  0.1455  0.0653 -0.3945
  107MOL   C24834380   3.602   4.634   3.555 -0.0355 -0.4640  0.3158
  107MOL   H24934381   3.837   4.290   3.811  0.6688 -0.0814  0.5078
  107MOL   H25034382   3.671   4.324   3.792  0.6071 -2.2049 -1.2404
  107MOL   H25134383   3.705   4.545   3.926  1.4132  3.4434 -1.7418
  107MOL   H25234384   3.491   4.665   3.815  1.0940  0.2742 -0.5491
  107MOL   H25334385   3.412   4.565   3.704 -0.8486  1.4564  1.0122
  107MOL   H25434386   3.501   4.494   3.841 -2.2143  1.5894  1.0586
  107MOL   H25534387   3.496   4.643   3.532  0.3579  1.5066 -0.8149
  107MOL   H25634388   3.658   4.596   3.469  1.3091 -0.7271  1.2870
  107MOL   H25734389   3.633   4.738   3.571  0.5419 -0.6694  0.5372
  107MOL   C25834390   3.927   4.522   3.911  0.9183 -0.7603  0.5217
  107MOL   C25934391   3.971   4.664   3.944  0.6167 -0.1016 -0.6952
  107MOL   C26034392   3.893   4.731   4.066  0.4596  0.6754 -0.0959
  107MOL   O26134393   3.772   4.746   4.045 -0.0619 -0.8995  1.1760
  107MOL   N26234394   3.958   4.755   4.182 -0.3424  0.3546 -0.2492
  107MOL   C26334395   3.883   4.799   4.296 -0.4182 -0.4792 -0.4631
  107MOL   C26434396   4.096   4.719   4.217 -0.7948  0.2021 -0.3052
  107MOL   H26534397   3.947   4.448   3.988 -1.1221  0.0115  1.8299
  107MOL   H26634398   3.999   4.483   3.839  0.4045 -0.9276  0.0949
  107MOL   H26734399   4.070   4.641   3.984  0.4718  0.9259  0.2635
  107MOL   H26834400   3.792   4.849   4.262 -1.2310 -1.3270  0.4518
  107MOL   H26934401   3.851   4.713   4.354 -0.2761  0.7165  1.4261
  107MOL   H27034402   3.938   4.865   4.363  3.0696 -1.6779 -2.0824
  107MOL   H27134403   4.122   4.748   4.319 -0.9748 -0.1510 -0.1576
  107MOL   H27234404   4.166   4.771   4.151 -2.2140  0.2330 -1.8037
  107MOL   H27334405   4.101   4.611   4.200  0.0834  0.1638  0.1530
  107MOL   C27434406   3.983   4.760   3.823  1.0339  0.2616  0.0773
  107MOL   C27534407   4.043   4.903   3.835 -0.4748  0.3541  0.6083
  107MOL   C27634408   3.999   5.006   3.724  0.8166 -0.1236 -0.0939
  107MOL   O27734409   4.074   5.033   3.624  0.3979 -0.6257  0.2756
  107MOL   N27834410   3.880   5.064   3.747 -0.1473  0.4605 -0.7932
  107MOL   C27934411   3.821   5.159   3.659  0.4122  1.1498  0.2670
  107MOL   C28034412   3.790   5.040   3.861 -0.2879  0.0913  0.1199
  107MOL   H28134413   4.042   4.696   3.757  0.0333 -1.5626  0.9288
  107MOL   H28234414   3.883   4.772   3.781  0.7705  1.6989  1.0855
  107MOL   H28334415   4.027   4.942   3.935  1.4784 -1.0478  1.4915
  107MOL   H28434416   3.808   5.256   3.708 -2.1810  0.1841  1.6400
  107MOL   H28534417   3.877   5.187   3.570 -0.7878 -0.0051 -0.8736
  107MOL   H28634418   3.721   5.133   3.623 -0.4012  2.8996  1.1906
  107MOL   H28734419   3.825   5.082   3.956  3.0875  1.0914 -1.4879
  107MOL   H28834420   3.778   4.932   3.873 -0.4917  0.0213 -0.7304
  107MOL   H28934421   3.693   5.087   3.851 -0.1259  0.2988 -0.4587
  107MOL   C29034422   4.203   4.885   3.832  0.6766 -0.5041 -0.0724
  107MOL   C29134423   4.278   5.011   3.878 -0.6570 -0.3462  0.0573
  107MOL   C29234424   4.398   5.036   3.786 -0.8923  0.7476 -0.0978
  107MOL   O29334425   4.473   4.942   3.754 -0.3500  0.2737  0.1861
  107MOL   N29434426   4.425   5.155   3.743  0.7746 -0.4106 -0.4153
  107MOL   C29534427   4.354   5.287   3.765 -0.6909  0.6057 -0.2606
  107MOL   C29634428   4.538   5.179   3.654  0.0297 -0.4639 -0.5502
  107MOL   H29734429   4.234   4.806   3.901  2.1960  0.6980  0.6660
  107MOL   H29834430   4.229   4.852   3.732  0.0625 -0.8167 -0.1295
  107MOL   H29934431   4.208   5.094   3.870  0.0511  0.2335 -0.1141
  107MOL   H30034432   4.287   5.286   3.851 -1.5977 -3.1871 -0.9170
  107MOL   H30134433   4.421   5.371   3.786  1.8009 -0.3927 -3.7272
  107MOL   H30234434   4.288   5.302   3.680 -0.9782  0.7422 -0.0133
  107MOL   H30334435   4.584   5.094   3.605 -0.9466 -0.6648 -1.1390
  107MOL   H30434436   4.614   5.242   3.701 -1.0181 -0.3565  1.0481
  107MOL   H30534437   4.494   5.242   3.577  1.8603 -2.0746 -2.9654
  107MOL   C30634438   4.322   5.010   4.031  0.5391  0.0407 -0.0492
  107MOL   C30734439   4.440   4.914   4.062  0.4884  1.2291  0.0371
  107MOL   C30834440   4.445   4.860   4.206  0.3395 -0.3430  0.2699
  107MOL   O30934441   4.357   4.904   4.283 -0.3657 -0.4808 -0.2324
  107MOL   N31034442   4.542   4.772   4.248 -0.3909 -0.2053  0.4279
  107MOL   C31134443   4.635   4.710   4.153 -0.0686 -1.2868  0.5141
  107MOL   C31234444   4.546   4.722   4.385  0.2773  0.0392  0.2538
  107MOL   H31334445   4.344   5.112   4.062  2.3677 -0.2321 -0.4096
  107MOL   H31434446   4.226   4.988   4.078  0.3355  0.4032 -0.2929
  107MOL   H31534447   4.437   4.828   3.994  1.0054 -0.3414  1.9535
  107MOL   H31634448   4.663   4.781   4.075  0.4363  0.7575  2.4914
  107MOL   H31734449   4.722   4.673   4.207  1.4001 -0.0647 -0.9470
  107MOL   H31834450   4.578   4.634   4.100 -2.0477  0.6102 -0.1587
  107MOL   H31934451   4.444   4.693   4.409  0.0321 -1.4194 -2.3704
  107MOL   H32034452   4.562   4.807   4.452 -0.9425 -0.2400  0.9051
  107MOL   H32134453   4.610   4.635   4.395  0.7034  0.0673 -1.8974
  107MOL   H32234454   4.541   4.949   4.038  1.6544 -1.5479  0.7354
  108MOL     C134455   7.199   5.544   0.731  0.9141  0.4263 -0.4402
  108MOL     C234456   7.285   5.629   0.637 -0.4043  0.0686 -0.1919
  108MOL     C334457   7.430   5.573   0.637  1.1429  0.3192 -0.3752
  108MOL     O434458   7.520   5.609   0.714 -0.4466 -0.3982  0.0503
  108MOL     N534459   7.461   5.487   0.538 -0.2978  0.0666 -0.0344
  108MOL     C634460   7.376   5.455   0.419 -0.2109  0.6521 -0.5149
  108MOL     C734461   7.591   5.426   0.529  0.1426 -0.1160 -0.8400
  108MOL     H834462   7.094   5.573   0.727  0.9578  0.9266  1.5957
  108MOL     H934463   7.222   5.575   0.833 -0.4011  0.2038 -0.0627
  108MOL    H1034464   7.243   5.629   0.536 -0.5511  3.0236 -0.1741
  108MOL    H1134465   7.287   5.408   0.460  0.0919  0.1674 -0.4084
  108MOL    H1234466   7.347   5.538   0.355 -0.4985  0.5312 -0.5404
  108MOL    H1334467   7.425   5.388   0.349  3.2115  0.6741  1.7303
  108MOL    H1434468   7.609   5.352   0.450  0.2797  0.1169 -1.0271
  108MOL    H1534469   7.607   5.374   0.623 -0.3540  1.2958  0.0391
  108MOL    H1634470   7.669   5.501   0.522 -0.4776  0.6331  0.1474
  108MOL    H1734471   7.202   5.437   0.709 -0.8179  0.8491 -3.0540
  108MOL    C1834472   7.283   5.780   0.679 -0.2628  0.6103 -0.5136
  108MOL    C1934473   7.299   5.871   0.553 -0.2434 -0.1097  0.4456
  108MOL    C2034474   7.341   6.007   0.605 -0.6000 -0.2441  0.1379
  108MOL    O2134475   7.256   6.086   0.652 -0.1571 -0.4826 -0.1907
  108MOL    N2234476   7.468   6.053   0.602  0.2634  0.2225  0.1402
  108MOL    C2334477   7.518   6.194   0.623  0.1157 -0.1955  0.0731
  108MOL    C2434478   7.584   5.959   0.580 -0.4449  0.4583  0.3297
  108MOL    H2534479   7.190   5.801   0.731 -1.6949 -3.0538 -1.4791
  108MOL    H2634480   7.352   5.811   0.758  1.7345 -0.6986 -1.6827
  108MOL    H2734481   7.372   5.829   0.484 -1.2717  3.2960 -2.8880
  108MOL    H2834482   7.542   6.206   0.728  1.7174 -0.2366 -0.2767
  108MOL    H2934483   7.611   6.224   0.575 -0.6085  1.1149 -0.5482
  108MOL    H3034484   7.437   6.264   0.601 -0.6393 -0.9219  0.5309
  108MOL    H3134485   7.679   6.011   0.593  0.3240 -0.5658 -1.0346
  108MOL    H3234486   7.597   5.917   0.480 -2.3745 -3.8580  1.7846
  108MOL    H3334487   7.581   5.864   0.633  1.0453  0.4213  0.3668
  108MOL    C3434488   7.175   5.883   0.464 -0.5473 -0.3054  0.0943
  108MOL    C3534489   7.177   5.966   0.329 -0.0232 -0.2702  0.3151
  108MOL    C3634490   7.027   5.995   0.280  0.7263  0.3492  0.0758
  108MOL    O3734491   6.979   5.922   0.195  0.5323  0.5712 -0.2885
  108MOL    N3834492   6.956   6.099   0.331 -0.5111  0.0088 -0.5694
  108MOL    C3934493   7.008   6.202   0.425 -0.1820  0.1002 -0.3007
  108MOL    C4034494   6.807   6.098   0.321 -0.0684 -0.0362  0.0494
  108MOL    H4134495   7.130   5.785   0.451  0.1016 -0.7205  0.9403
  108MOL    H4234496   7.092   5.917   0.526 -0.3632  2.9636 -1.2966
  108MOL    H4334497   7.226   6.062   0.344 -0.6391  0.1408 -0.2331
  108MOL    H4434498   7.055   6.158   0.513  0.7442  0.2781 -0.7004
  108MOL    H4534499   7.083   6.254   0.365  0.1138 -1.1492 -1.0259
  108MOL    H4634500   6.942   6.280   0.464 -0.5969 -0.6096  0.4234
  108MOL    H4734501   6.768   5.997   0.332  3.2889 -1.3255  0.7206
  108MOL    H4834502   6.775   6.148   0.229  0.9475  0.4632 -0.0411
  108MOL    H4934503   6.768   6.139   0.414 -2.0315 -3.1683  0.6671
  108MOL    C5034504   7.260   5.884   0.228 -0.4008  0.5098  1.1488
  108MOL    C5134505   7.296   5.966   0.100 -0.4481  0.3705  0.4476
  108MOL    C5234506   7.356   5.879   7.843  0.3803 -0.1748 -0.3701
  108MOL    O5334507   7.471   5.853   0.002  0.0038 -0.3156  0.1258
  108MOL    N5434508   7.289   5.860   7.731  0.0395  0.0003 -0.1796
  108MOL    C5534509   7.353   5.837   7.599 -0.2030  0.2753  0.8355
  108MOL    C5634510   7.146   5.834   7.730 -0.2660 -0.0993  0.4433
  108MOL    H5734511   7.345   5.829   0.267  1.3348  1.8998 -0.6339
  108MOL    H5834512   7.195   5.809   0.182  1.4777  0.3384 -1.3067
  108MOL    H5934513   7.205   6.008   0.055 -1.9655 -0.4506  2.6859
  108MOL    H6034514   7.441   5.773   7.604 -0.4433 -0.1131  0.1120
  108MOL    H6134515   7.278   5.788   7.537 -0.4999  3.0746 -1.0713
  108MOL    H6234516   7.367   5.934   7.552 -0.5988 -1.2415 -2.5820
  108MOL    H6334517   7.092   5.872   7.816 -0.0597 -0.8032  0.8881
  108MOL    H6434518   7.137   5.727   7.746  0.0867 -0.5530 -2.1086
  108MOL    H6534519   7.091   5.862   7.640  1.2370  0.6583 -0.2586
  108MOL    C6634520   7.398   6.084   0.133  0.3148  0.1877 -0.6533
  108MOL    C6734521   7.442   6.172   0.011  0.2312 -0.3513  0.1609
  108MOL    C6834522   7.596   6.181   0.008 -0.1897 -0.4986  0.5548
  108MOL    O6934523   7.646   6.243   0.104  0.1899 -0.0037 -0.4374
  108MOL    N7034524   7.676   6.130   7.762 -0.5776 -0.0636 -0.3088
  108MOL    C7134525   7.813   6.186   7.749 -0.5275  0.5923  0.5096
  108MOL    C7234526   7.631   6.029   7.666 -0.1787  0.4561  0.4940
  108MOL    H7334527   7.359   6.144   0.216  0.4123 -0.6860  0.0374
  108MOL    H7434528   7.492   6.044   0.170 -0.5644 -0.0656  1.3772
  108MOL    H7534529   7.406   6.122   7.774  3.4000  1.3524 -2.1637
  108MOL    H7634530   0.023   6.129   7.681  0.4504  2.8729 -0.5539
  108MOL    H7734531   7.810   6.283   7.700  1.7439  0.1593 -0.5502
  108MOL    H7834532   0.010   6.195   7.845  0.9428  0.8433 -0.2700
  108MOL    H7934533   7.694   6.030   7.577 -0.0889  1.3616  0.5600
  108MOL    H8034534   7.530   6.044   7.629 -0.3264 -1.9677 -0.1313
  108MOL    H8134535   7.637   5.927   7.703 -2.9499  0.6215  1.4852
  108MOL    C8234536   7.381   6.322   0.033  0.1014 -0.6086 -0.3140
  108MOL    C8334537   7.228   6.344   0.022 -0.3620  0.4164  0.0970
  108MOL    C8434538   7.178   6.319   7.729 -0.5922  0.6299 -0.0490
  108MOL    O8534539   7.247   6.369   7.638  0.6693 -0.0584  0.6928
  108MOL    N8634540   7.074   6.240   7.697  0.0388  0.1257 -0.0555
  108MOL    C8734541   7.041   6.189   7.559 -0.4892 -0.1193 -0.1234
  108MOL    C8834542   6.974   6.201   7.801 -0.3989  0.3066 -0.9179
  108MOL    H8934543   7.413   6.346   0.135 -0.3339  0.2808 -0.3762
  108MOL    H9034544   7.437   6.386   7.818  0.6843  0.7953  1.4385
  108MOL    H9134545   7.188   6.267   0.087  1.1677 -1.2763 -0.9318
  108MOL    H9234546   7.021   6.272   7.491  0.0891  1.1705  1.2592
  108MOL    H9334547   7.131   6.140   7.521  0.2366  0.8470  0.3525
  108MOL    H9434548   6.958   6.119   7.550  0.4716 -0.9091 -4.1407
  108MOL    H9534549   6.953   6.290   0.008  5.0578  1.3965 -0.3401
  108MOL    H9634550   7.024   6.138   0.020 -1.1925 -1.8046 -2.1743
  108MOL    H9734551   6.881   6.153   7.768 -0.4313 -1.9112  2.2012
  108MOL    C9834552   7.188   6.481   0.085  0.2102 -0.3934  0.1648
  108MOL    C9934553   7.229   6.620   0.023 -0.7948 -0.4294  0.5089
  108MOL   C10034554   7.380   6.636   0.015 -0.3960  0.0483  0.1757
  108MOL   O10134555   7.443   6.611   0.119  0.4051 -0.3437  0.1769
  108MOL   N10234556   7.451   6.650   7.754 -0.3341 -0.7142 -0.5346
  108MOL   C10334557   7.589   6.615   7.746  0.2479  0.5154  0.0108
  108MOL   C10434558   7.381   6.684   7.628 -0.1945  0.7218 -0.1832
  108MOL   H10534559   7.080   6.482   0.100 -0.1988  0.5562 -2.5821
  108MOL   H10634560   7.235   6.482   0.183 -1.0190  0.6633  0.7542
  108MOL   H10734561   7.186   6.612   7.776 -0.2939  2.2117  0.0451
  108MOL   H10834562   7.648   6.676   7.815  0.1974  0.3548  0.1973
  108MOL   H10934563   7.609   6.513   7.781 -1.0795  0.3066  0.2037
  108MOL   H11034564   7.640   6.624   7.650  0.0508  2.2265  0.0520
  108MOL   H11134565   7.298   6.748   7.661  0.0099  1.9698 -2.0067
  108MOL   H11234566   7.344   6.594   7.579 -0.2071 -1.5929  3.8470
  108MOL   H11334567   7.444   6.736   7.556 -0.9951  2.5172  0.3778
  108MOL   C11434568   7.154   6.735   0.091 -0.3744 -0.6653 -0.0836
  108MOL   C11534569   7.206   6.797   0.220  0.0880  0.4230  0.0934
  108MOL   C11634570   7.179   6.709   0.346 -0.0144 -0.2765 -0.2303
  108MOL   O11734571   7.063   6.673   0.365  0.8220 -0.4010  0.3031
  108MOL   N11834572   7.278   6.680   0.432 -0.9826 -0.6718 -0.1265
  108MOL   C11934573   7.414   6.735   0.427 -0.3582 -0.5750  0.0842
  108MOL   C12034574   7.257   6.584   0.546  0.8506 -0.0886  0.5433
  108MOL   H12134575   7.150   6.813   0.014 -2.1227  0.7600  1.4015
  108MOL   H12234576   7.052   6.702   0.106 -1.2310  2.1430  0.6498
  108MOL   H12334577   7.311   6.818   0.198  0.2624  0.3494  0.8252
  108MOL   H12434578   7.439   6.781   0.331 -0.9242  1.8611  1.0690
  108MOL   H12534579   7.435   6.817   0.496 -2.3425  0.5658 -0.6093
  108MOL   H12634580   7.490   6.658   0.441  0.2045 -0.5178 -2.4404
  108MOL   H12734581   7.335   6.509   0.556 -0.5800 -1.4364  1.8600
  108MOL   H12834582   7.155   6.547   0.552 -0.0440  2.0104 -0.9050
  108MOL   H12934583   7.282   6.652   0.627  4.2401 -1.8535  1.0565
  108MOL   C13034584   7.141   6.935   0.243  0.5513 -0.4230 -0.5160
  108MOL   C13134585   7.202   7.025   0.352  0.2798 -0.2721 -0.6562
  108MOL   C13234586   7.106   7.145   0.385 -0.0562  0.1301  0.7533
  108MOL   O13334587   7.083   7.225   0.292 -0.0709 -0.2685  0.7803
  108MOL   N13434588   7.057   7.160   0.505  0.0051 -0.3150 -0.5518
  108MOL   C13534589   6.975   7.281   0.552 -0.3214  0.5603  0.1932
  108MOL   C13634590   7.101   7.081   0.620  0.3706 -0.0504 -0.0259
  108MOL   H13734591   7.138   6.984   0.146  0.6853 -0.8713 -0.7516
  108MOL   H13834592   7.035   6.928   0.267  0.2102  0.0934 -1.8014
  108MOL   H13934593   7.219   6.960   0.438  1.3670 -0.7667 -1.2406
  108MOL   H14034594   7.032   7.359   0.602 -1.2589  0.5154  1.3639
  108MOL   H14134595   6.918   7.309   0.463  0.5166  1.7425  0.0219
  108MOL   H14234596   6.904   7.253   0.630 -0.6065  2.5581  0.6691
  108MOL   H14334597   7.096   6.973   0.601  0.0132 -0.3109  1.4813
  108MOL   H14434598   7.047   7.107   0.710 -2.1483 -0.0418 -1.4874
  108MOL   H14534599   7.206   7.105   0.639 -0.3315  0.5539  3.2889
  108MOL   C14634600   7.344   7.088   0.313  0.1766 -0.5544 -0.2486
  108MOL   C14734601   7.416   7.171   0.421  0.6264 -0.8898  1.2158
  108MOL   C14834602   7.503   7.275   0.341  0.3073 -0.0209  0.6252
  108MOL   O14934603   7.582   7.227   0.263 -0.0779 -0.2569  0.1976
  108MOL   N15034604   7.486   7.407   0.356  0.1113  0.0624 -0.3066
  108MOL   C15134605   7.567   7.504   0.286  0.6404 -0.6453 -0.2004
  108MOL   C15234606   7.369   7.460   0.426  0.0601  0.3203  0.2751
  108MOL   H15334607   7.413   7.008   0.286  0.8009  0.6798 -2.4068
  108MOL   H15434608   7.332   7.140   0.218 -0.9707  0.1694  0.2723
  108MOL   H15534609   7.345   7.222   0.485 -0.8449  0.8677 -1.6779
  108MOL   H15634610   7.496   7.566   0.232  0.9204 -0.7373 -0.6741
  108MOL   H15734611   7.627   7.554   0.362  1.3157 -2.2824  0.3758
  108MOL   H15834612   7.641   7.458   0.221  2.8915 -0.0525  1.8654
  108MOL   H15934613   7.275   7.415   0.395 -0.1855  0.8356  0.2712
  108MOL   H16034614   7.350   7.567   0.418 -2.8630 -0.2347 -0.7404
  108MOL   H16134615   7.383   7.448   0.533  3.3801 -0.3489 -0.1609
  108MOL   C16234616   7.499   7.075   0.512 -0.5461 -0.2313 -0.4445
  108MOL   C16334617   7.597   7.138   0.613  0.5058  0.0706  0.8397
  108MOL   C16434618   7.696   7.024   0.654 -0.4452  0.2310 -0.1521
  108MOL   O16534619   7.664   6.963   0.758  0.0698  0.2146 -0.0505
  108MOL   N16634620   7.805   6.989   0.579  0.0012 -0.6869 -1.1409
  108MOL   C16734621   0.020   6.857   0.603  0.0245 -0.2034  0.4057
  108MOL   C16834622   7.842   7.064   0.459  0.7901  0.4873  0.0003
  108MOL   H16934623   7.421   7.031   0.574  0.4945 -2.6416 -0.8124
  108MOL   H17034624   7.545   6.993   0.458  0.2389  1.9174 -3.1718
  108MOL   H17134625   7.655   7.212   0.558  1.8143 -1.6683 -0.1882
  108MOL   H17234626   0.078   6.868   0.694 -1.8995  1.4748  1.4883
  108MOL   H17334627   7.797   6.779   0.610  0.1277 -0.3418 -0.0228
  108MOL   H17434628   0.090   6.825   0.527 -1.2079 -1.0661 -0.3945
  108MOL   H17534629   7.764   7.044   0.385  0.0317 -0.8865  1.1424
  108MOL   H17634630   0.083   7.027   0.418  1.8630  2.9708  0.1961
  108MOL   H17734631   7.845   7.172   0.472 -0.2298  0.4792  0.3398
  108MOL   C17834632   7.518   7.205   0.719  0.6430  0.0836 -0.3901
  108MOL   C17934633   7.590   7.284   0.828  1.2852  0.1275  0.2115
  108MOL   C18034634   7.500   7.305   0.946 -0.2130 -0.2501 -0.8142
  108MOL   O18134635   7.422   7.399   0.938  0.0727 -0.1645 -0.0474
  108MOL   N18234636   7.520   7.221   1.057  0.1747 -0.4104 -0.0043
  108MOL   C18334637   7.621   7.112   1.077  0.6099  0.3967 -0.0059
  108MOL   C18434638   7.435   7.229   1.183  0.0432 -0.0595  0.6630
  108MOL   H18534639   7.445   7.269   0.671 -1.0687 -1.3481  0.2416
  108MOL   H18634640   7.467   7.123   0.770 -0.6766  1.2446  0.1612
  108MOL   H18734641   7.665   7.214   0.863 -0.7661 -2.0779  0.3073
  108MOL   H18834642   7.628   7.075   1.180 -1.6613 -1.8999 -0.6028
  108MOL   H18934643   7.588   7.025   1.021 -0.0880  0.5430  0.1710
  108MOL   H19034644   7.723   7.134   1.048 -0.3852 -0.3058 -4.4450
  108MOL   H19134645   7.333   7.257   1.157  0.0192 -0.2930  0.5016
  108MOL   H19234646   7.480   7.310   1.240  0.9675 -0.4033  0.4181
  108MOL   H19334647   7.423   7.131   1.230  3.4342 -0.1472  1.4493
  108MOL   C19434648   7.649   7.420   0.775  0.0644 -0.3568 -0.3276
  108MOL   C19534649   7.724   7.516   0.878 -0.9142 -0.8479 -0.6788
  108MOL   C19634650   7.752   7.650   0.804  0.1587 -0.5181  0.1121
  108MOL   O19734651   7.824   7.646   0.702 -0.0124 -0.6341  0.0680
  108MOL   N19834652   7.694   7.769   0.839 -0.2856  0.2646 -0.6504
  108MOL   C19934653   7.598   7.765   0.949 -0.3991 -1.0381  0.0024
  108MOL   C20034654   7.722   0.048   0.779 -0.3428 -0.4495 -1.2195
  108MOL   H20134655   7.725   7.390   0.702 -0.1110  2.3709 -1.6759
  108MOL   H20234656   7.578   7.478   0.717 -0.5691 -1.0549 -0.2578
  108MOL   H20334657   7.654   7.520   0.961  0.9263 -0.4236  0.8999
  108MOL   H20434658   7.560   0.013   0.957 -1.0799 -1.4134  1.7621
  108MOL   H20534659   7.519   7.691   0.932  0.4764 -2.3067  1.2827
  108MOL   H20634660   7.651   7.752   1.043  3.7614  1.6662 -1.8346
  108MOL   H20734661   7.681   0.136   0.827  1.5895  0.1079 -0.5721
  108MOL   H20834662   7.679   0.059   0.679  0.5242 -1.2136 -1.6835
  108MOL   H20934663   7.829   0.065   0.781 -0.4084 -0.1381  0.2618
  108MOL   C21034664   7.852   7.453   0.944 -0.2054 -0.0156  0.0604
  108MOL   C21134665   0.062   7.537   1.058  0.9183 -0.1730  0.2323
  108MOL   C21234666   0.218   7.517   1.048  0.0671  0.2569 -0.8506
  108MOL   O21334667   0.261   7.409   1.087 -0.3374  0.0232  0.0978
  108MOL   N21434668   0.298   7.617   1.013  0.4291 -0.1632  0.4256
  108MOL   C21534669   0.260   7.759   0.979 -0.2105 -0.3557  0.2796
  108MOL   C21634670   0.443   7.593   1.025  0.3870  0.1915  1.1162
  108MOL   H21734671   7.832   7.352   0.979  1.4165 -1.1747 -2.2276
  108MOL   H21834672   0.075   7.441   0.867 -0.0389 -1.7147  0.4537
  108MOL   H21934673   0.037   7.640   1.034  0.4013  0.4116  3.1265
  108MOL   H22034674   0.342   7.807   0.926  1.4652 -1.1388  2.1332
  108MOL   H22134675   0.190   7.746   0.896 -1.2657  1.8658  0.7776
  108MOL   H22234676   0.208   7.808   1.061 -0.5280  2.0773 -1.3144
  108MOL   H22334677   0.465   7.596   1.132 -0.1395 -0.5036  1.2446
  108MOL   H22434678   0.510   7.667   0.981  0.2942  1.6870  3.3861
  108MOL   H22534679   0.472   7.498   0.982  0.1689  1.8808 -2.9748
  108MOL   C22634680   0.017   7.501   1.198  0.4477 -0.1169 -0.9061
  108MOL   C22734681   0.044   7.578   1.323  0.3267  0.6385  0.5791
  108MOL   C22834682   7.828   7.714   1.309 -0.3106 -0.1421 -0.3252
  108MOL   O22934683   0.044   7.803   1.259 -0.2824  0.0320 -0.0849
  108MOL   N23034684   7.705   7.738   1.357 -0.0318 -0.7493 -0.1843
  108MOL   C23134685   7.645   0.011   1.311  0.0935 -0.3964 -0.1499
  108MOL   C23234686   7.620   7.634   1.428  0.0810  0.6355 -0.5773
  108MOL   H23334687   7.766   7.471   1.199  0.6966 -0.9774 -0.2565
  108MOL   H23434688   0.058   7.403   1.222 -1.4826 -0.5476  0.7042
  108MOL   H23534689   7.851   7.536   1.413  1.4688 -0.7889  0.5081
  108MOL   H23634690   7.677   0.044   1.213 -1.5406  1.6837 -0.0284
  108MOL   H23734691   7.538   0.001   1.294  0.0370 -0.6575  0.3455
  108MOL   H23834692   7.659   0.078   1.397  1.4255 -0.4919 -0.2901
  108MOL   H23934693   7.537   7.683   1.479 -1.1158 -2.9625  1.1685
  108MOL   H24034694   7.679   7.575   1.498  2.6921  1.9989 -1.5583
  108MOL   H24134695   7.574   7.555   1.367 -1.8905 -0.4347  2.1790
  108MOL   C24234696   0.186   7.592   1.375  0.4252 -0.0183  0.3776
  108MOL   C24334697   0.251   7.473   1.456  0.4093  0.3337 -0.1792
  108MOL   C24434698   0.192   7.473   1.605 -0.5286 -0.2567  0.0424
  108MOL   O24534699   0.223   7.569   1.677  0.5314  0.0925  0.0345
  108MOL   N24634700   0.116   7.371   1.649  0.0422 -0.1810  0.0497
  108MOL   C24734701   0.060   7.375   1.782 -0.2844  0.4368  0.1996
  108MOL   C24834702   0.077   7.255   1.575 -0.1581  1.1862  0.2492
  108MOL   H24934703   0.250   7.617   1.290  0.6324  1.7412  1.0250
  108MOL   H25034704   0.206   7.686   1.426  0.1287  2.1151 -3.2874
  108MOL   H25134705   0.213   7.385   1.404 -0.9903  0.6062  0.3645
  108MOL   H25234706   0.018   7.280   1.814  1.3686 -1.1581 -2.1483
  108MOL   H25334707   0.120   7.417   1.862  1.2377 -0.4080 -0.4801
  108MOL   H25434708   7.831   7.446   1.777 -1.0791 -0.4800  0.0259
  108MOL   H25534709   0.160   7.185   1.576  1.0463  2.6026  0.9912
  108MOL   H25634710   0.058   7.265   1.468  2.6237  2.0226 -0.2136
  108MOL   H25734711   7.837   7.213   1.612 -0.4028  1.5784  0.0754
  108MOL   C25834712   0.406   7.493   1.458  0.2190  0.4304 -0.2059
  108MOL   C25934713   0.500   7.382   1.514  0.5917 -0.0777 -0.4692
  108MOL   C26034714   0.474   7.254   1.439  0.2314  0.2345 -0.4681
  108MOL   O26134715   0.398   7.173   1.489 -0.1958  0.3645  0.0904
  108MOL   N26234716   0.519   7.236   1.318 -0.2670 -0.1669  0.2829
  108MOL   C26334717   0.496   7.121   1.227  0.1618 -0.3479 -0.0377
  108MOL   C26434718   0.619   7.330   1.252  0.9227 -0.1661  0.0933
  108MOL   H26534719   0.430   7.519   1.356  1.2008 -0.8052 -0.3047
  108MOL   H26634720   0.428   7.589   1.505 -1.0813 -0.4089  2.2648
  108MOL   H26734721   0.602   7.416   1.494  0.3826  0.0529 -1.3496
  108MOL   H26834722   0.499   7.026   1.282 -0.0337 -1.2362 -1.5385
  108MOL   H26934723   0.401   7.147   1.181  0.3464  2.0091  0.8498
  108MOL   H27034724   0.560   7.101   1.141  0.5781  0.9560 -0.0316
  108MOL   H27134725   0.643   7.428   1.295  2.0835 -0.1484 -0.5634
  108MOL   H27234726   0.603   7.335   1.144  1.1130  1.8602  0.1400
  108MOL   H27334727   0.711   7.275   1.270  0.8359 -0.1623  0.5498
  108MOL   C27434728   0.492   7.360   1.670  0.2886  0.4438 -0.6879
  108MOL   C27534729   0.618   7.311   1.743  0.5546 -0.1759 -0.1754
  108MOL   C27634730   0.657   7.165   1.703  0.3117  0.4334 -0.1925
  108MOL   O27734731   0.606   7.070   1.766  0.7518 -0.6559  0.2522
  108MOL   N27834732   0.758   7.141   1.618 -0.0894  0.3051 -0.3176
  108MOL   C27934733   0.778   7.009   1.569 -0.0833 -0.8040  0.4123
  108MOL   C28034734   0.846   7.244   1.560 -0.1498 -0.2227 -0.4313
  108MOL   H28134735   0.463   7.455   1.714 -0.1333  0.7623 -1.6376
  108MOL   H28234736   0.413   7.292   1.702 -1.2148  3.6871  2.8972
  108MOL   H28334737   0.694   7.385   1.718 -0.5009  0.3418 -1.9051
  108MOL   H28434738   0.883   6.985   1.553  0.7663  1.8443  1.7630
  108MOL   H28534739   0.746   6.933   1.639 -2.6511 -1.8013 -1.7656
  108MOL   H28634740   0.719   7.009   1.478  1.6798  4.6773 -0.9537
  108MOL   H28734741   0.794   7.314   1.494  1.2218 -0.1158 -1.4289
  108MOL   H28834742   0.922   7.191   1.503 -0.7348 -1.8003  0.2280
  108MOL   H28934743   0.910   7.298   1.631  1.4272 -0.6550 -1.4918
  108MOL   C29034744   0.595   7.325   1.901  0.0303  0.1725 -0.2047
  108MOL   C29134745   0.697   7.291   2.007 -0.7507  0.0476 -0.6407
  108MOL   C29234746   0.634   7.272   2.149 -0.5555 -0.1136  0.4214
  108MOL   O29334747   0.623   7.374   2.207 -0.5393 -0.2684 -0.0181
  108MOL   N29434748   0.591   7.154   2.193 -0.3018 -0.1915  0.4201
  108MOL   C29534749   0.536   7.152   2.328  0.1848 -0.2886 -0.8889
  108MOL   C29634750   0.591   7.028   2.114 -0.2724  0.3037  0.5056
  108MOL   H29734751   0.549   7.424   1.906  0.4017  0.5664 -3.2988
  108MOL   H29834752   0.506   7.267   1.928  0.6727 -0.2361  1.0829
  108MOL   H29934753   0.751   7.200   1.979  1.2495  0.6768  1.0497
  108MOL   H30034754   0.558   7.054   2.369 -2.3777 -0.8530 -0.7937
  108MOL   H30134755   0.589   7.224   2.391 -2.5906  1.4868 -0.5146
  108MOL   H30234756   0.428   7.168   2.328  0.3739  1.2434 -3.2810
  108MOL   H30334757   0.692   6.988   2.122 -0.6374 -0.9551 -0.8214
  108MOL   H30434758   0.571   7.050   2.009  1.9057  0.9469  0.1927
  108MOL   H30534759   0.510   6.959   2.136  1.0086 -0.9764  1.3087
  108MOL   C30634760   0.815   7.390   2.010  0.1848 -0.9954  0.7735
  108MOL   C30734761   0.791   7.547   2.005 -0.4295  0.6869  0.2604
  108MOL   C30834762   0.768   7.601   1.861  0.4222  0.4475 -0.1009
  108MOL   O30934763   0.839   7.552   1.773 -0.1458  0.2222 -0.5873
  108MOL   N31034764   0.665   7.682   1.835 -0.0148 -0.6121  0.0878
  108MOL   C31134765   0.589   7.748   1.939 -0.4877  1.0467  0.2735
  108MOL   C31234766   0.630   7.719   1.693 -0.0861 -0.2582 -0.1635
  108MOL   H31334767   0.873   7.375   2.101 -1.2375 -1.0847  1.6843
  108MOL   H31434768   0.874   7.363   1.922  1.2137  1.2042  0.7531
  108MOL   H31534769   0.705   7.565   2.070 -1.4851 -1.1626 -0.5924
  108MOL   H31634770   0.510   7.817   1.909 -2.0796 -0.4399  0.9502
  108MOL   H31734771   0.529   7.672   1.990 -0.9577  0.1650 -1.5447
  108MOL   H31834772   0.646   7.815   2.004  0.8320 -0.2013  0.4322
  108MOL   H31934773   0.521   7.726   1.695 -0.0661 -0.0402  0.1982
  108MOL   H32034774   0.676   7.655   1.618  0.1975 -1.1335  0.7470
  108MOL   H32134775   0.664   7.820   1.668 -1.7940 -0.2076 -2.3649
  108MOL   H32234776   0.864   7.616   2.046 -0.4208  0.2311  1.0306
  109MOL     C134777   3.245   6.024   4.433  0.5436  0.7489  0.9316
  109MOL     C234778   3.291   5.878   4.419  0.1182  0.4440 -0.0769
  109MOL     C334779   3.373   5.833   4.545 -0.2905  0.0187  0.1580
  109MOL     O434780   3.489   5.881   4.550  0.4588  0.3117  0.5836
  109MOL     N534781   3.322   5.753   4.644  0.0346 -0.1505 -1.0630
  109MOL     C634782   3.188   5.713   4.645  0.3518  0.1162  0.0841
  109MOL     C734783   3.412   5.698   4.746 -0.2314 -0.1138 -0.2575
  109MOL     H834784   3.332   6.089   4.430  0.9613  0.2082  1.2543
  109MOL     H934785   3.178   6.030   4.519  0.1271 -1.2778  0.7976
  109MOL    H1034786   3.197   5.823   4.427 -0.3066  1.3281  1.2240
  109MOL    H1134787   3.115   5.795   4.639 -0.8902 -1.0448 -1.0032
  109MOL    H1234788   3.177   5.651   4.556  1.9842  0.6191 -0.4667
  109MOL    H1334789   3.159   5.654   4.732 -1.5963  1.2708  0.2592
  109MOL    H1434790   3.477   5.617   4.715 -2.2061 -1.2821 -1.5078
  109MOL    H1534791   3.358   5.640   4.820 -0.3354  0.6681  0.2879
  109MOL    H1634792   3.476   5.771   4.795  0.7575 -2.1748  1.5684
  109MOL    H1734793   3.199   6.056   4.340  1.6973 -1.2576 -0.3707
  109MOL    C1834794   3.348   5.846   4.280 -0.4314  0.3782 -0.6550
  109MOL    C1934795   3.486   5.895   4.226  0.1254  0.1059  0.2336
  109MOL    C2034796   3.472   6.037   4.175  0.6751  0.0200  0.2826
  109MOL    O2134797   3.394   6.051   4.084 -0.1052  0.2300 -0.2841
  109MOL    N2234798   3.544   6.138   4.223 -0.2736 -0.1809 -0.2861
  109MOL    C2334799   3.630   6.145   4.339  0.7884 -0.1174 -0.4227
  109MOL    C2434800   3.535   6.272   4.160 -0.1267  0.3479 -0.3134
  109MOL    H2534801   3.346   5.738   4.266  0.6627  0.2846 -0.1374
  109MOL    H2634802   3.271   5.870   4.207  2.1430  1.3613 -3.1459
  109MOL    H2734803   3.559   5.886   4.306 -1.6174  0.9565  1.9769
  109MOL    H2834804   3.704   6.225   4.329 -1.2498  1.5286 -3.2774
  109MOL    H2934805   3.564   6.145   4.426 -0.9912 -1.7776 -1.7414
  109MOL    H3034806   3.684   6.053   4.361  0.7843  0.8030  3.9404
  109MOL    H3134807   3.431   6.305   4.154 -0.0315  0.5286 -1.0541
  109MOL    H3234808   3.562   6.261   4.055  0.0212  0.2450 -0.2646
  109MOL    H3334809   3.595   6.350   4.208 -0.3815 -0.4717  1.3804
  109MOL    C3434810   3.538   5.811   4.110 -0.3600  0.3374 -0.0679
  109MOL    C3534811   3.642   5.698   4.142  0.0631  0.1973  0.5171
  109MOL    C3634812   3.771   5.756   4.189 -0.3953 -0.1322  0.2932
  109MOL    O3734813   3.840   5.829   4.112  0.5111 -0.6842 -0.4822
  109MOL    N3834814   3.809   5.738   4.313  0.2704  0.2840 -0.2524
  109MOL    C3934815   3.739   5.655   4.413  0.8370  0.1558 -0.1032
  109MOL    C4034816   3.918   5.812   4.376 -0.3180 -0.2426  0.4317
  109MOL    H4134817   3.457   5.770   4.049 -1.0906  0.6544  0.6757
  109MOL    H4234818   3.575   5.877   4.031  0.6219 -1.0699 -0.8147
  109MOL    H4334819   3.592   5.639   4.218 -0.1945 -1.2928 -0.7953
  109MOL    H4434820   3.641   5.687   4.446  0.9433  1.0532 -0.6338
  109MOL    H4534821   3.738   5.556   4.367  0.3281  0.0812  0.0690
  109MOL    H4634822   3.786   5.650   4.511 -0.2391  4.0045  0.6771
  109MOL    H4734823   3.999   5.743   4.399 -1.3636 -1.4088  0.7079
  109MOL    H4834824   3.885   5.853   4.472 -1.8023 -1.7397  0.5807
  109MOL    H4934825   3.947   5.900   4.319 -1.1162  1.1518  2.1086
  109MOL    C5034826   3.662   5.610   4.018  0.2564  0.2986  0.0562
  109MOL    C5134827   3.730   5.470   4.029 -0.0457  0.2168 -0.2526
  109MOL    C5234828   3.639   5.366   4.096 -0.2906 -0.1253 -0.3592
  109MOL    O5334829   3.653   5.350   4.220  0.1375 -0.2048 -0.0062
  109MOL    N5434830   3.550   5.296   4.028  0.9094  0.4365  0.3518
  109MOL    C5534831   3.485   5.179   4.088  0.2562  0.3003 -0.3639
  109MOL    C5634832   3.512   5.316   3.892 -0.0446 -0.2625 -0.1712
  109MOL    H5734833   3.559   5.593   3.985 -0.2425 -2.1705  2.6510
  109MOL    H5834834   3.718   5.660   3.940  0.8298 -1.2987 -0.5709
  109MOL    H5934835   3.739   5.426   3.930 -0.3026  2.5654 -1.3632
  109MOL    H6034836   3.463   5.200   4.192 -0.2233  0.0341 -0.4116
  109MOL    H6134837   3.388   5.159   4.042 -0.7380  1.9309  0.9310
  109MOL    H6234838   3.545   5.088   4.088  2.3248  1.6330  0.0041
  109MOL    H6334839   3.488   5.423   3.895  1.3021  0.0202  2.1324
  109MOL    H6434840   3.428   5.253   3.863  0.1094 -0.1479 -0.8804
  109MOL    H6534841   3.600   5.312   3.828  0.0176 -0.1185 -0.0951
  109MOL    C6634842   3.871   5.459   4.092 -0.2082 -0.7897 -0.6153
  109MOL    C6734843   3.978   5.534   4.022 -0.1631  0.1523 -0.3773
  109MOL    C6834844   4.004   5.480   3.876  0.3311 -0.6633 -0.1450
  109MOL    O6934845   4.014   5.355   3.860  0.0367  0.3182 -0.6194
  109MOL    N7034846   4.005   5.559   3.767  0.0272 -0.0955 -0.8793
  109MOL    C7134847   3.973   5.699   3.749 -0.4769 -0.3422 -0.0920
  109MOL    C7234848   4.024   5.506   3.626  0.4120 -0.0252  0.2863
  109MOL    H7334849   3.873   5.493   4.196 -1.2512 -0.8229 -0.5835
  109MOL    H7434850   3.907   5.356   4.095  2.1284 -0.0264 -1.1235
  109MOL    H7534851   3.944   5.637   4.006 -0.4564  0.4545  1.9643
  109MOL    H7634852   4.041   5.745   3.679 -2.4674 -1.1034 -2.6120
  109MOL    H7734853   3.870   5.718   3.717  0.0481 -0.6842 -2.0295
  109MOL    H7834854   3.976   5.750   3.846  1.6402  2.1323 -1.4169
  109MOL    H7934855   3.990   5.563   3.540  1.3667 -0.4540 -0.3997
  109MOL    H8034856   3.994   5.402   3.613 -0.2996  0.8138 -6.6117
  109MOL    H8134857   4.133   5.503   3.620  0.3493 -1.5031 -0.4782
  109MOL    C8234858   4.115   5.536   4.102  0.7170  0.2095  0.2314
  109MOL    C8334859   4.180   5.681   4.117  0.5385 -0.0339 -0.1921
  109MOL    C8434860   4.238   5.739   3.983 -0.0681  0.2255  0.1797
  109MOL    O8534861   4.296   5.655   3.908 -0.2187  0.5713 -0.4302
  109MOL    N8634862   4.238   5.871   3.951 -0.1069  0.0257 -0.2327
  109MOL    C8734863   4.322   5.923   3.846  0.2140  0.5222 -0.2184
  109MOL    C8834864   4.191   5.979   4.031  0.2201  0.4096  0.7156
  109MOL    H8934865   4.101   5.484   4.197 -0.2584  0.4960  0.2516
  109MOL    H9034866   4.189   5.469   4.057  0.9762  0.2728  0.5594
  109MOL    H9134867   4.098   5.745   4.148 -1.4309 -1.8842 -1.4548
  109MOL    H9234868   4.265   5.939   3.754 -1.7599  1.8882  1.1892
  109MOL    H9334869   4.374   6.012   3.883 -2.3275  0.7248  3.1714
  109MOL    H9434870   4.395   5.848   3.816 -0.3752 -0.6302  1.1324
  109MOL    H9534871   4.171   6.071   3.975  0.6717 -0.4019 -0.7960
  109MOL    H9634872   4.257   6.000   4.115 -1.1672  1.3561  1.6017
  109MOL    H9734873   4.096   5.951   4.077  1.6124 -2.4312  1.9983
  109MOL    C9834874   4.291   5.700   4.228 -0.1979  0.2283 -0.2484
  109MOL    C9934875   4.418   5.618   4.225  1.4697  1.0505 -0.3849
  109MOL   C10034876   4.399   5.473   4.264  0.7723 -0.1657 -0.3027
  109MOL   O10134877   4.340   5.447   4.370 -0.1475 -0.4357  0.1012
  109MOL   N10234878   4.458   5.371   4.190 -0.4796 -0.0945 -0.0303
  109MOL   C10334879   4.495   5.382   4.047  0.4093 -0.2189  0.7948
  109MOL   C10434880   4.460   5.235   4.242 -0.5173  0.1554 -0.3847
  109MOL   H10534881   4.324   5.802   4.207  0.0675 -0.0893 -1.4017
  109MOL   H10634882   4.241   5.711   4.324 -4.5284 -1.9720 -2.0922
  109MOL   H10734883   4.458   5.622   4.124 -1.7418 -2.1908 -1.8757
  109MOL   H10834884   4.503   5.286   3.996 -0.9474 -0.1098  0.3480
  109MOL   H10934885   4.420   5.444   3.999  0.9541  0.0670  0.3083
  109MOL   H11034886   4.587   5.437   4.027 -0.2309  0.0864 -1.4733
  109MOL   H11134887   4.361   5.194   4.260 -1.0052  0.4454 -2.2998
  109MOL   H11234888   4.495   5.236   4.345 -2.1597  3.4216  0.2126
  109MOL   H11334889   4.523   5.174   4.178  0.4058 -0.0166  0.6596
  109MOL   C11434890   4.525   5.671   4.321 -0.3299  0.0700 -0.3796
  109MOL   C11534891   4.632   5.764   4.274  0.3551 -0.6835 -0.0283
  109MOL   C11634892   4.720   5.783   4.402  0.3817  0.4540 -0.1327
  109MOL   O11734893   4.686   5.868   4.486  0.0356 -0.2542  0.1438
  109MOL   N11834894   4.827   5.704   4.421 -0.3135  0.2117 -0.5891
  109MOL   C11934895   4.860   5.593   4.333  0.0684 -0.3328 -0.7156
  109MOL   C12034896   4.908   5.709   4.540  0.0293  0.3245  0.5494
  109MOL   H12134897   4.472   5.718   4.404 -0.0539 -1.2406  0.5572
  109MOL   H12234898   4.572   5.590   4.377 -0.1219  0.0006 -0.6598
  109MOL   H12334899   4.696   5.739   4.189  1.5173 -2.4367  1.3156
  109MOL   H12434900   4.781   5.519   4.345 -0.9475  0.5572 -1.7875
  109MOL   H12534901   4.858   5.624   4.229 -1.1434  0.4422 -0.4652
  109MOL   H12634902   4.956   5.544   4.355 -0.4112 -1.0668 -0.2265
  109MOL   H12734903   4.943   5.610   4.570  0.9046  0.6999  0.7830
  109MOL   H12834904   4.843   5.724   4.627  0.2124 -2.5339  1.2151
  109MOL   H12934905   4.998   5.771   4.549 -0.4040  1.2027 -1.0578
  109MOL   C13034906   4.575   5.893   4.219 -0.1276  0.1176 -0.1756
  109MOL   C13134907   4.687   6.006   4.193  0.4261 -0.1114  0.9076
  109MOL   C13234908   4.627   6.133   4.141  0.1245 -0.4446 -0.4619
  109MOL   O13334909   4.553   6.124   4.049 -0.1001  0.8122 -0.0859
  109MOL   N13434910   4.667   6.253   4.186 -0.0951  0.5023  0.2231
  109MOL   C13534911   4.738   6.274   4.310 -0.2718 -0.7058  1.0685
  109MOL   C13634912   4.641   6.377   4.114 -0.3632  0.0317  0.3022
  109MOL   H13734913   4.517   5.889   4.126  0.5171  0.2671 -0.5893
  109MOL   H13834914   4.500   5.914   4.295 -0.1434 -3.1717  0.7976
  109MOL   H13934915   4.722   6.028   4.294 -1.1520 -1.0732  1.6949
  109MOL   H14034916   4.842   6.244   4.300 -0.2820  0.1554 -2.5833
  109MOL   H14134917   4.722   6.369   4.361  1.2560 -1.0358  2.2112
  109MOL   H14234918   4.709   6.209   4.392 -1.2758 -2.0495 -0.3387
  109MOL   H14334919   4.730   6.432   4.082 -0.9110 -0.1515 -1.6056
  109MOL   H14434920   4.584   6.439   4.183 -2.1740 -0.5400 -0.6618
  109MOL   H14534921   4.575   6.367   4.028 -0.2352 -0.3165  0.2437
  109MOL   C14634922   4.806   5.968   4.105  0.1000 -0.7539  0.4348
  109MOL   C14734923   4.782   5.935   3.950 -0.6577 -0.1539 -0.5692
  109MOL   C14834924   4.842   5.794   3.930  0.5243  0.1284  0.2547
  109MOL   O14934925   4.960   5.772   3.955  0.0070 -0.2651  0.8793
  109MOL   N15034926   4.762   5.688   3.892 -0.1868 -0.2510  0.1723
  109MOL   C15134927   4.616   5.691   3.888  0.2260 -0.0322 -0.6898
  109MOL   C15234928   4.820   5.557   3.860 -0.0235  0.1515 -0.0669
  109MOL   H15334929   4.871   6.056   4.107 -1.1154  0.3435 -3.5651
  109MOL   H15434930   4.862   5.891   4.159  0.4535 -0.2308  0.8319
  109MOL   H15534931   4.676   5.931   3.927 -1.0437 -1.8056  1.3818
  109MOL   H15634932   4.573   5.592   3.873 -0.7187 -0.0538  1.7989
  109MOL   H15734933   4.569   5.730   3.979 -0.3566 -0.2012 -0.9118
  109MOL   H15834934   4.573   5.733   3.797 -0.5965 -2.6015 -1.5384
  109MOL   H15934935   4.907   5.572   3.796  0.1177 -0.7368 -0.0935
  109MOL   H16034936   4.745   5.488   3.820  1.9012 -2.9328  1.4651
  109MOL   H16134937   4.863   5.515   3.950 -0.7677 -0.5974 -0.0504
  109MOL   C16234938   4.845   6.048   3.864 -0.0014  0.6840  0.6431
  109MOL   C16334939   4.794   6.057   3.718 -0.4318  0.1622 -0.0411
  109MOL   C16434940   4.661   6.140   3.709 -0.7124 -0.1083  0.4191
  109MOL   O16534941   4.557   6.073   3.701 -0.1671  0.1995 -1.1255
  109MOL   N16634942   4.660   6.276   3.721 -1.0820  0.5225 -0.1757
  109MOL   C16734943   4.531   6.347   3.718  0.2553 -0.0028  0.5780
  109MOL   C16834944   4.782   6.363   3.742  0.0438  0.2831 -0.3121
  109MOL   H16934945   4.828   6.147   3.907 -1.7473  0.7744 -0.1802
  109MOL   H17034946   4.953   6.036   3.859  0.1613  1.6969  1.6209
  109MOL   H17134947   4.868   6.112   3.660 -0.0170  0.7534  1.0362
  109MOL   H17234948   4.544   6.449   3.753  0.4263 -0.3714  1.6100
  109MOL   H17334949   4.483   6.328   3.622  0.7554  0.0024  0.3219
  109MOL   H17434950   4.465   6.307   3.795  0.1724 -2.6671 -0.8191
  109MOL   H17534951   4.857   6.328   3.813  1.3669  0.4473 -1.6133
  109MOL   H17634952   4.757   6.459   3.787 -0.1275  0.4796 -0.8246
  109MOL   H17734953   4.814   6.384   3.640 -0.1641  0.5660 -0.3221
  109MOL   C17834954   4.782   5.918   3.651  0.1644 -0.2901  0.1058
  109MOL   C17934955   4.752   5.895   3.503 -0.5998 -0.2791  0.1267
  109MOL   C18034956   4.737   5.740   3.476  0.2209 -0.1385 -0.0384
  109MOL   O18134957   4.835   5.668   3.503  0.3578 -0.4829  0.0945
  109MOL   N18234958   4.628   5.691   3.412 -0.2930 -0.0529 -0.1148
  109MOL   C18334959   4.637   5.558   3.341 -0.0618  0.5302  0.0929
  109MOL   C18434960   4.501   5.764   3.401  0.1602 -0.8768  0.1833
  109MOL   H18534961   4.881   5.877   3.670 -0.9731 -2.5271  1.3461
  109MOL   H18634962   4.710   5.861   3.710  0.1174 -1.2150 -0.8309
  109MOL   H18734963   4.667   5.957   3.475 -0.3127 -1.1632 -2.8966
  109MOL   H18834964   4.721   5.547   3.273 -0.2741  0.6122 -0.1853
  109MOL   H18934965   4.625   5.470   3.405  1.2776 -1.8809 -2.8547
  109MOL   H19034966   4.556   5.556   3.267  0.6365  2.2564 -0.7351
  109MOL   H19134967   4.494   5.823   3.310 -1.1815 -2.0022 -0.4496
  109MOL   H19234968   4.488   5.845   3.472 -0.6603  1.4412 -2.5010
  109MOL   H19334969   4.413   5.701   3.413 -0.1672 -0.1668  1.5707
  109MOL   C19434970   4.868   5.949   3.419 -0.5672 -0.7370  0.6760
  109MOL   C19534971   4.844   6.088   3.358  0.7300 -0.0809 -0.1190
  109MOL   C19634972   4.740   6.082   3.236 -0.0077  0.3906  0.1917
  109MOL   O19734973   4.763   5.988   3.152  0.2632 -0.0064 -0.6865
  109MOL   N19834974   4.642   6.177   3.222  0.1734  0.2816  0.4631
  109MOL   C19934975   4.567   6.183   3.096 -0.5814  0.1904 -0.5564
  109MOL   C20034976   4.589   6.256   3.337  0.1854  0.2859 -0.0920
  109MOL   H20134977   4.957   5.971   3.478 -1.7044  0.0638  2.1116
  109MOL   H20234978   4.900   5.871   3.349 -1.4033  0.0327 -0.5965
  109MOL   H20334979   4.802   6.144   3.442 -1.9449  0.2830 -1.6172
  109MOL   H20434980   4.462   6.161   3.116 -0.4736  0.6945  0.6433
  109MOL   H20534981   4.574   6.288   3.065  3.0473  0.2817  0.3496
  109MOL   H20634982   4.612   6.140   3.006 -0.1820  0.1616 -0.3424
  109MOL   H20734983   4.495   6.299   3.304  0.4686  2.6882  2.0612
  109MOL   H20834984   4.659   6.334   3.368  1.2008 -0.3677 -0.7009
  109MOL   H20934985   4.579   6.190   3.424  3.4692  3.2568  2.7504
  109MOL   C21034986   4.969   6.171   3.317 -0.2634 -0.0254  0.2041
  109MOL   C21134987   5.042   6.137   3.188 -0.0906 -0.2945  0.9353
  109MOL   C21234988   5.110   5.997   3.199  1.0051 -1.0926 -0.1124
  109MOL   O21334989   5.172   5.969   3.301  0.2995 -0.4249  0.4056
  109MOL   N21434990   5.091   5.902   3.102 -0.6207 -0.2447  0.4965
  109MOL   C21534991   5.057   5.942   2.962  0.3867  0.5546  0.6222
  109MOL   C21634992   5.133   5.760   3.127  0.4448  0.0874  0.0700
  109MOL   H21734993   4.940   6.275   3.327 -0.9746 -0.1300 -0.6979
  109MOL   H21834994   5.047   6.170   3.393 -0.7138  0.2144  0.6761
  109MOL   H21934995   4.978   6.144   3.100 -0.6299  2.3377  1.4712
  109MOL   H22034996   5.135   6.008   2.926  0.9100 -0.6013 -0.3672
  109MOL   H22134997   5.059   5.858   2.893  0.8783  1.5473 -0.5770
  109MOL   H22234998   4.955   5.977   2.946 -0.2993 -1.7003 -0.1453
  109MOL   H22334999   5.095   5.693   3.050  0.4937  0.4345 -0.2583
  109MOL   H22435000   5.081   5.728   3.217  0.1001 -0.3222 -0.2745
  109MOL   H22535001   5.238   5.736   3.144  0.7806  0.7538 -1.0590
  109MOL   C22635002   5.165   6.235   3.155 -0.5687  0.2993  0.2952
  109MOL   C22735003   5.121   6.379   3.104  0.4918 -0.9582 -0.4694
  109MOL   C22835004   5.017   6.377   2.988  0.4968  0.6387  0.5571
  109MOL   O22935005   5.059   6.330   2.880  0.0834 -0.0507  0.2057
  109MOL   N23035006   4.890   6.426   3.002  0.6185 -0.0229 -0.0770
  109MOL   C23135007   4.793   6.385   2.902 -0.1896 -0.0908  0.1881
  109MOL   C23235008   4.840   6.493   3.121  0.6855  0.0286  0.3514
  109MOL   H23335009   5.228   6.243   3.243 -2.1092 -0.3504  1.4813
  109MOL   H23435010   5.232   6.197   3.078  1.5865  2.4415  1.0721
  109MOL   H23535011   5.074   6.418   3.194  3.2554 -0.4064  0.7845
  109MOL   H23635012   4.813   6.442   2.811  0.3098 -2.2242 -1.0686
  109MOL   H23735013   4.798   6.284   2.862 -2.0859 -0.0083 -0.3008
  109MOL   H23835014   4.694   6.418   2.932  0.2144 -0.2053  1.6745
  109MOL   H23935015   4.778   6.426   3.180 -0.2511  2.1803  1.9201
  109MOL   H24035016   4.770   6.572   3.094 -0.1993 -1.2652 -1.2280
  109MOL   H24135017   4.909   6.544   3.189  1.5930  0.7387 -1.0812
  109MOL   C24235018   5.245   6.474   3.075  0.2695  0.0133  0.4968
  109MOL   C24335019   5.207   6.620   3.061  0.4145  0.1793 -0.1064
  109MOL   C24435020   5.290   6.688   2.950  0.0326 -0.3792  0.4414
  109MOL   O24535021   5.408   6.705   2.979 -0.1413 -0.1770  0.6158
  109MOL   N24635022   5.242   6.723   2.829  0.2137 -0.2124 -0.7881
  109MOL   C24735023   5.101   6.708   2.789  0.7526  0.4227 -0.7118
  109MOL   C24835024   5.322   6.757   2.715  0.2213  0.3818 -0.5739
  109MOL   H24935025   5.312   6.460   3.159  1.0016 -0.7076 -0.1984
  109MOL   H25035026   5.304   6.446   2.987  1.9622  1.7918  1.0330
  109MOL   H25135027   5.101   6.632   3.038  0.3484 -0.8648 -0.3343
  109MOL   H25235028   5.076   6.747   2.691 -0.8252 -4.1449 -2.2790
  109MOL   H25335029   5.061   6.607   2.792 -1.8590  1.4385  0.5745
  109MOL   H25435030   5.025   6.746   2.857 -0.5485 -1.5065 -1.0387
  109MOL   H25535031   5.305   6.862   2.689 -1.9307  0.6905  1.8965
  109MOL   H25635032   5.314   6.697   2.624 -0.1371 -2.5701  1.3412
  109MOL   H25735033   5.427   6.742   2.740 -0.0807 -0.7027  0.0622
  109MOL   C25835034   5.210   6.694   3.200  0.7094  1.0427  0.0403
  109MOL   C25935035   5.159   6.843   3.213 -0.0545  0.8937  0.2030
  109MOL   C26035036   5.221   6.917   3.336  0.2551 -0.5128 -0.3835
  109MOL   O26135037   5.147   6.929   3.436 -0.2900 -0.3367 -0.2292
  109MOL   N26235038   5.340   6.976   3.324 -0.4010 -0.2513  0.1257
  109MOL   C26335039   5.430   6.944   3.217  0.3698  0.2051 -0.0934
  109MOL   C26435040   5.396   7.057   3.436  0.2399 -0.0092  0.2125
  109MOL   H26535041   5.138   6.643   3.264  1.7627 -1.0254 -0.3898
  109MOL   H26635042   5.300   6.681   3.259 -0.2487 -0.0654  1.2803
  109MOL   H26735043   5.193   6.889   3.120  1.4111 -1.2131 -0.3354
  109MOL   H26835044   5.383   6.989   3.130 -0.6151  2.2395  1.4498
  109MOL   H26935045   5.525   6.994   3.235  0.0488  0.5575  0.6421
  109MOL   H27035046   5.448   6.837   3.202 -1.1418 -0.3346  1.7245
  109MOL   H27135047   5.329   7.087   3.517 -2.8711 -3.7958 -0.8425
  109MOL   H27235048   5.426   7.152   3.392 -1.6258  1.4185  1.9352
  109MOL   H27335049   5.485   7.021   3.488 -0.0113  2.5711  2.5554
  109MOL   C27435050   5.003   6.854   3.195  0.0647  0.1920 -0.0493
  109MOL   C27535051   4.940   6.994   3.182  0.0227  0.3266 -0.1429
  109MOL   C27635052   4.786   6.973   3.189 -0.1022  0.2503 -0.0309
  109MOL   O27735053   4.732   6.920   3.087  0.1014  0.6942 -0.7140
  109MOL   N27835054   4.712   6.994   3.301 -0.0110 -0.5261 -0.0462
  109MOL   C27935055   4.763   7.055   3.426  0.3189  0.4929 -0.5732
  109MOL   C28035056   4.567   6.974   3.309 -0.6492  0.1107 -0.0089
  109MOL   H28135057   4.975   6.802   3.104 -0.2170 -1.1939  0.8163
  109MOL   H28235058   4.947   6.803   3.273 -0.6941 -0.2538 -0.8815
  109MOL   H28335059   4.980   7.049   3.268  0.4641  1.6702 -1.1870
  109MOL   H28435060   4.855   7.003   3.451 -0.2666  0.0577  0.7203
  109MOL   H28535061   4.776   7.163   3.417  0.2485  0.5713  0.2906
  109MOL   H28635062   4.702   7.052   3.516 -0.7027  1.3476 -1.2242
  109MOL   H28735063   4.521   7.070   3.284 -0.5762  0.1177 -0.1149
  109MOL   H28835064   4.533   6.946   3.409 -0.0015 -0.5694  0.0202
  109MOL   H28935065   4.527   6.899   3.241  1.9287 -1.0093 -0.3341
  109MOL   C29035066   4.967   7.063   3.045  0.4212 -0.2696  0.3265
  109MOL   C29135067   5.068   7.179   3.057 -0.1855  0.4586 -0.0368
  109MOL   C29235068   5.017   7.307   3.130  0.0715 -0.1361 -0.3943
  109MOL   O29335069   4.908   7.360   3.095 -0.6543  0.1268  0.3883
  109MOL   N29435070   5.083   7.358   3.238  0.9779  0.1794 -0.1172
  109MOL   C29535071   5.210   7.310   3.289 -0.5463  0.2118 -0.0016
  109MOL   C29635072   5.028   7.476   3.309  0.6062 -0.0334  0.7214
  109MOL   H29735073   4.990   6.988   2.969  0.3388  0.1295 -0.0933
  109MOL   H29835074   4.873   7.104   3.008  0.5478  0.2217  0.5486
  109MOL   H29935075   5.145   7.130   3.116  1.1102  1.0907 -1.1638
  109MOL   H30035076   5.190   7.229   3.359  1.0355 -0.7403 -0.6228
  109MOL   H30135077   5.268   7.265   3.208 -2.3442 -0.8535 -0.7357
  109MOL   H30235078   5.273   7.380   3.343  1.2601 -0.0571 -1.7185
  109MOL   H30335079   5.082   7.566   3.278 -2.6538  2.1848  1.1501
  109MOL   H30435080   5.013   7.471   3.417 -2.1856 -0.5118  0.3438
  109MOL   H30535081   4.931   7.507   3.270  1.2622  0.1204 -0.8384
  109MOL   C30635082   5.119   7.224   2.918 -0.5156 -0.2074 -0.0764
  109MOL   C30735083   5.275   7.242   2.910 -0.0038  0.6649  0.1084
  109MOL   C30835084   5.358   7.112   2.902  0.3257 -0.1227 -0.5559
  109MOL   O30935085   5.302   7.004   2.886  0.0187 -0.1238 -0.1997
  109MOL   N31035086   5.490   7.117   2.901 -0.0850  0.2221  0.2630
  109MOL   C31135087   5.572   7.003   2.899 -0.1094  1.2815 -0.4358
  109MOL   C31235088   5.574   7.244   2.930  0.0859  0.0582  0.1771
  109MOL   H31335089   5.091   7.149   2.844 -0.5691  0.1861 -0.4609
  109MOL   H31435090   5.083   7.324   2.892 -0.2447  0.1772  1.0013
  109MOL   H31535091   5.295   7.283   2.811  0.7010  1.9472  0.7710
  109MOL   H31635092   5.580   6.974   2.794  1.5205 -1.1907  0.3335
  109MOL   H31735093   5.674   7.025   2.931 -0.9589  0.7016  2.8527
  109MOL   H31835094   5.543   6.914   2.954  0.8152  1.0606 -0.3018
  109MOL   H31935095   5.677   7.230   2.962  0.0149 -0.7624  0.0592
  109MOL   H32035096   5.527   7.294   3.015  2.0170  0.5285  0.9855
  109MOL   H32135097   5.583   7.302   2.838  2.7641 -0.1385  0.2784
  109MOL   H32235098   5.305   7.309   2.991  0.4699 -1.9356  2.1568
  110MOL     C135099   3.155   2.011   5.228  0.1807  0.3820 -0.3854
  110MOL     C235100   3.078   2.063   5.104 -0.1806 -0.0707 -1.1720
  110MOL     C335101   3.104   1.977   4.976 -0.8277  0.2246 -0.0785
  110MOL     O435102   3.213   1.985   4.925 -0.4530  0.1583  0.4125
  110MOL     N535103   3.018   1.891   4.923  0.0688  0.0099  0.0882
  110MOL     C635104   2.880   1.876   4.965 -0.0028 -0.5985  0.2468
  110MOL     C735105   3.060   1.805   4.814 -0.0153 -1.0015 -0.4099
  110MOL     H835106   3.258   2.047   5.219  0.3813 -0.1329 -0.1268
  110MOL     H935107   3.149   1.903   5.235 -1.5537  0.4089 -1.0186
  110MOL    H1035108   2.972   2.058   5.128 -0.0636 -2.0693 -1.0112
  110MOL    H1135109   2.831   1.971   4.987  0.6995  0.1720 -1.4612
  110MOL    H1235110   2.813   1.821   4.900 -0.6168 -1.2016  1.3705
  110MOL    H1335111   2.888   1.811   5.052  1.4565 -1.4353 -0.4873
  110MOL    H1435112   3.091   1.864   4.728 -0.1165  2.9355  2.0983
  110MOL    H1535113   2.983   1.736   4.781  2.6708 -3.1102 -2.5153
  110MOL    H1635114   3.142   1.740   4.842  0.1797 -0.2621  0.7773
  110MOL    H1735115   3.111   2.062   5.314 -0.7067  1.8265 -1.6549
  110MOL    C1835116   3.097   2.218   5.092 -0.3615  0.9138  0.3408
  110MOL    C1935117   2.991   2.289   5.001 -0.1189  0.5666  0.1697
  110MOL    C2035118   3.052   2.372   4.889 -0.0773  0.0153 -1.4010
  110MOL    O2135119   3.125   2.462   4.926 -0.1023  0.2187  0.0812
  110MOL    N2235120   3.027   2.347   4.761  1.1960 -0.1358 -0.1165
  110MOL    C2335121   3.057   2.439   4.650 -0.2687  0.1376 -0.8358
  110MOL    C2435122   2.953   2.237   4.711  0.4033  0.2308 -0.1917
  110MOL    H2535123   3.090   2.243   5.198  0.6810  0.1472  0.5979
  110MOL    H2635124   3.201   2.234   5.062 -0.1296 -0.6168  0.3278
  110MOL    H2735125   2.929   2.212   4.954 -1.2757  1.7421 -0.2604
  110MOL    H2835126   2.974   2.483   4.594  0.4358  0.7195 -1.4457
  110MOL    H2935127   3.116   2.519   4.697  0.3812 -1.1598  0.5845
  110MOL    H3035128   3.110   2.395   4.565 -1.0523  0.3024 -1.4157
  110MOL    H3135129   2.861   2.231   4.769  0.5521 -0.9824 -0.0697
  110MOL    H3235130   3.017   2.151   4.730  1.8509  1.1561 -0.7936
  110MOL    H3335131   2.923   2.243   4.606  0.0411  1.2724 -0.0366
  110MOL    C3435132   2.897   2.375   5.100 -0.0100 -0.1043 -0.0586
  110MOL    C3535133   2.786   2.456   5.024  0.1945  0.1453  0.2873
  110MOL    C3635134   2.728   2.576   5.112  0.5916 -0.0661 -0.2379
  110MOL    O3735135   2.625   2.549   5.178 -0.1424  0.1069  0.5209
  110MOL    N3835136   2.769   2.706   5.103 -0.3745  0.0214 -0.2792
  110MOL    C3935137   2.691   2.810   5.171  0.6539 -0.4327  0.5311
  110MOL    C4035138   2.892   2.743   5.032  0.4359  0.1714  0.3599
  110MOL    H4135139   2.851   2.308   5.172  1.0395  0.3128  1.0367
  110MOL    H4235140   2.961   2.448   5.150  0.9893 -0.4088 -0.8761
  110MOL    H4335141   2.825   2.496   4.930  1.2827  1.3181  1.2146
  110MOL    H4435142   2.657   2.794   5.274  0.1588 -0.1118  0.4164
  110MOL    H4535143   2.746   2.904   5.183  1.6091 -1.1152  1.6251
  110MOL    H4635144   2.606   2.848   5.114  0.2889  0.3796  1.6028
  110MOL    H4735145   2.881   2.731   4.924  0.6939  0.0791  0.3439
  110MOL    H4835146   2.984   2.689   5.055  0.3393 -0.5882 -0.9996
  110MOL    H4935147   2.901   2.851   5.040 -2.3068  0.4743 -0.0420
  110MOL    C5035148   2.673   2.355   4.980  0.2875 -0.0323 -0.0587
  110MOL    C5135149   2.560   2.414   4.886  0.8567  0.0536  0.5588
  110MOL    C5235150   2.424   2.350   4.924  0.2099  0.2448  1.1377
  110MOL    O5335151   2.422   2.227   4.925 -0.1296  0.2287 -0.6218
  110MOL    N5435152   2.306   2.425   4.951  0.8001  0.3106 -0.4986
  110MOL    C5535153   2.298   2.571   4.959 -0.1842 -0.3774 -0.6422
  110MOL    C5635154   2.173   2.361   4.965 -0.6636  0.6895  0.2365
  110MOL    H5735155   2.721   2.270   4.931  0.8912 -0.4411  1.2355
  110MOL    H5835156   2.632   2.310   5.070  1.6459  0.0823  0.6159
  110MOL    H5935157   2.557   2.522   4.898  0.3151  0.3685 -2.1274
  110MOL    H6035158   2.201   2.609   4.990  0.2452  1.1419 -1.1632
  110MOL    H6135159   2.365   2.603   5.039  2.6169 -2.2426 -2.1579
  110MOL    H6235160   2.319   2.629   4.869 -1.8112  0.7475 -0.3007
  110MOL    H6335161   2.137   2.378   5.067  0.1287  1.7999  0.3482
  110MOL    H6435162   2.178   2.256   4.936 -1.2629  1.0594 -1.2473
  110MOL    H6535163   2.102   2.402   4.894 -1.6132 -1.8657 -0.3238
  110MOL    C6635164   2.590   2.411   4.732  0.7417 -0.2345  0.2503
  110MOL    C6735165   2.491   2.467   4.620  0.1714  0.7824  0.2477
  110MOL    C6835166   2.460   2.618   4.617  0.3122 -0.4610  0.0396
  110MOL    O6935167   2.497   2.685   4.716 -0.5616  0.1471 -0.0822
  110MOL    N7035168   2.392   2.677   4.517  0.4711  0.6126 -0.1669
  110MOL    C7135169   2.332   2.809   4.531  0.0630 -0.2209 -0.1908
  110MOL    C7235170   2.360   2.624   4.389 -0.2938 -0.2714 -0.6721
  110MOL    H7335171   2.675   2.479   4.725  1.3035 -1.1661 -2.4587
  110MOL    H7435172   2.630   2.312   4.710 -0.3863 -0.1420 -2.4614
  110MOL    H7535173   2.541   2.451   4.524  0.8139  1.5790  0.4434
  110MOL    H7635174   2.310   2.835   4.634  1.8012 -2.5964  0.8270
  110MOL    H7735175   2.405   2.873   4.482 -1.2717  2.2966  1.0696
  110MOL    H7835176   2.237   2.820   4.477 -1.1286  0.6718  2.0321
  110MOL    H7935177   2.263   2.574   4.396  0.3450 -1.1418  3.1441
  110MOL    H8035178   2.434   2.548   4.363  0.6097  0.4140 -0.1396
  110MOL    H8135179   2.368   2.698   4.310  0.7686  0.0689 -0.2522
  110MOL    C8235180   2.364   2.368   4.603 -0.1448  0.6251 -0.1935
  110MOL    C8335181   2.389   2.219   4.599  0.1417  0.2527  0.0614
  110MOL    C8435182   2.476   2.183   4.474  0.2012 -0.3611  0.1533
  110MOL    O8535183   2.455   2.239   4.366 -0.4625 -0.6481  0.3670
  110MOL    N8635184   2.571   2.085   4.485  0.4157 -0.2207  0.3380
  110MOL    C8735185   2.605   2.006   4.600  0.0259 -0.7837  0.0615
  110MOL    C8835186   2.664   2.064   4.378 -0.3481 -0.1738  0.3366
  110MOL    H8935187   2.285   2.379   4.676  1.2289  0.2169  1.3910
  110MOL    H9035188   2.321   2.391   4.506  1.1452 -0.8825 -1.1440
  110MOL    H9135189   2.437   2.179   4.689  0.9169 -0.5018 -0.6815
  110MOL    H9235190   2.520   1.940   4.618  0.8752 -2.3110 -1.3845
  110MOL    H9335191   2.690   1.942   4.580 -0.3535 -1.0605 -0.7183
  110MOL    H9435192   2.624   2.073   4.684  0.8330 -1.3536  0.3346
  110MOL    H9535193   2.670   1.957   4.357 -1.5690 -0.3552  0.8284
  110MOL    H9635194   2.763   2.100   4.406  0.3868 -1.0638 -1.0905
  110MOL    H9735195   2.633   2.106   4.282  0.0379  2.2790  1.2613
  110MOL    C9835196   2.255   2.139   4.601  0.2818  0.8562 -0.0889
  110MOL    C9935197   2.145   2.179   4.497  0.2573 -0.7502 -0.1965
  110MOL   C10035198   2.068   2.308   4.546 -0.5738  0.1481  0.3327
  110MOL   O10135199   2.033   2.306   4.666 -0.6602 -0.3089 -0.5726
  110MOL   N10235200   2.022   2.394   4.456  0.1278  0.0391 -0.9578
  110MOL   C10335201   1.935   2.510   4.507  0.3266  0.4267 -0.0516
  110MOL   C10435202   2.046   2.397   4.316 -0.0138  0.1098 -0.0223
  110MOL   H10535203   2.281   2.034   4.592 -1.6717  0.2215  1.4211
  110MOL   H10635204   2.210   2.134   4.700  0.4332 -3.3339 -0.1464
  110MOL   H10735205   2.195   2.207   4.404  0.1027  1.6377  0.4217
  110MOL   H10835206   1.840   2.483   4.463  1.4437 -1.2209 -1.5439
  110MOL   H10935207   1.925   2.516   4.616 -0.0374  1.4044 -0.1346
  110MOL   H11035208   1.964   2.605   4.462  1.6561 -0.4493 -1.0823
  110MOL   H11135209   2.006   2.491   4.278  0.9574  0.2048 -0.8451
  110MOL   H11235210   2.029   2.310   4.252 -2.3315 -0.2308  1.0039
  110MOL   H11335211   2.153   2.407   4.297 -0.3978  0.6748 -2.0431
  110MOL   C11435212   2.043   2.054   4.487 -0.5951 -1.1067 -0.1961
  110MOL   C11535213   2.084   1.928   4.401 -0.7337  0.2733 -0.4294
  110MOL   C11635214   2.180   1.972   4.285  0.3898 -0.0437 -0.0040
  110MOL   O11735215   2.144   2.069   4.212 -0.5055  0.1739  0.0790
  110MOL   N11835216   2.300   1.911   4.263  0.4094  0.4732 -0.8926
  110MOL   C11935217   2.353   1.795   4.339  0.6492 -0.5207 -0.1176
  110MOL   C12035218   2.388   1.964   4.160 -0.0880 -0.1086  0.1381
  110MOL   H12135219   2.004   2.030   4.586 -0.9040 -2.6568 -0.6761
  110MOL   H12235220   1.953   2.099   4.445  0.0660  0.6423  0.2362
  110MOL   H12335221   2.128   1.855   4.469  1.0169 -0.4339 -2.2535
  110MOL   H12435222   2.274   1.741   4.391 -2.4043  0.9483 -3.0570
  110MOL   H12535223   2.392   1.722   4.269  2.2867 -1.5911  1.8617
  110MOL   H12635224   2.432   1.828   4.406  1.4466  0.5849 -1.5810
  110MOL   H12735225   2.483   1.912   4.170  0.6027  0.8187 -1.4464
  110MOL   H12835226   2.426   2.067   4.162 -0.7953  0.1470  0.3982
  110MOL   H12935227   2.344   1.962   4.061  1.0258  2.1507 -0.4484
  110MOL   C13035228   1.961   1.865   4.328 -0.0165 -0.4336 -0.7032
  110MOL   C13135229   1.880   1.770   4.417 -0.4258  0.4241 -0.6934
  110MOL   C13235230   1.962   1.646   4.452  0.1661 -0.5004  0.2702
  110MOL   O13335231   2.008   1.585   4.356 -0.3294  0.1151  0.0480
  110MOL   N13435232   1.971   1.601   4.579  0.3006  0.2908  0.3115
  110MOL   C13535233   1.899   1.648   4.697 -0.0132  0.3099  0.3653
  110MOL   C13635234   2.025   1.464   4.592  0.3358  0.0881  0.6023
  110MOL   H13735235   1.902   1.953   4.300 -0.9044 -0.0602  2.2048
  110MOL   H13835236   2.002   1.807   4.245 -0.5438 -0.8542 -0.6790
  110MOL   H13935237   1.856   1.831   4.505  1.3891  1.9534 -1.2315
  110MOL   H14035238   1.794   1.618   4.703 -0.0376  0.1123 -0.9376
  110MOL   H14135239   1.935   1.610   4.792 -1.1150  0.1280  0.7115
  110MOL   H14235240   1.896   1.757   4.702 -0.3615  0.4423 -2.1770
  110MOL   H14335241   2.127   1.462   4.630 -0.1007 -1.1717  1.7489
  110MOL   H14435242   2.006   1.395   4.509 -0.8832  1.6279 -0.4314
  110MOL   H14535243   1.967   1.419   4.672 -0.5500  0.6645  0.2971
  110MOL   C14635244   1.740   1.738   4.370 -0.1446 -0.3237 -0.0401
  110MOL   C14735245   1.730   1.677   4.233 -0.4013  0.3271  0.5297
  110MOL   C14835246   1.758   1.781   4.114  0.5261  0.1761  0.4910
  110MOL   O14935247   1.700   1.893   4.105 -0.2700  0.4638 -0.7604
  110MOL   N15035248   1.834   1.745   4.003 -0.7419 -0.4739 -0.0605
  110MOL   C15135249   1.861   1.837   3.890  0.5426 -0.4801 -1.0166
  110MOL   C15235250   1.914   1.626   3.998 -0.4424  0.3567  0.3686
  110MOL   H15335251   1.692   1.672   4.442 -0.5177 -0.4009 -0.3624
  110MOL   H15435252   1.679   1.829   4.373  0.3845  0.0017  2.0933
  110MOL   H15535253   1.805   1.598   4.232 -0.4187  0.2772  2.1270
  110MOL   H15635254   1.937   1.810   3.817  0.6499  1.6005 -1.6793
  110MOL   H15735255   1.768   1.867   3.844  0.1812  0.2661  0.1702
  110MOL   H15835256   1.903   1.925   3.939 -2.1194 -0.3737  1.2094
  110MOL   H15935257   1.957   1.604   3.900  0.6291 -0.0124  0.9128
  110MOL   H16035258   1.848   1.542   4.019  1.4974 -1.5822 -1.1528
  110MOL   H16135259   1.995   1.630   4.072  1.8114 -0.3666 -1.9826
  110MOL   C16235260   1.590   1.612   4.201  0.2427  0.3780  0.8396
  110MOL   C16335261   1.561   1.481   4.269 -0.8440 -0.5637  0.3755
  110MOL   C16435262   1.586   1.347   4.185  0.1603 -0.9410  0.1534
  110MOL   O16535263   1.510   1.311   4.094  0.7120 -0.2596  0.0341
  110MOL   N16635264   1.699   1.282   4.215 -0.0209  0.2727  0.3527
  110MOL   C16735265   1.782   1.301   4.339  0.1256  0.7228  0.0111
  110MOL   C16835266   1.754   1.198   4.111  0.3331  0.6971  0.2964
  110MOL   H16935267   1.518   1.692   4.218  0.7678  1.4961 -1.8956
  110MOL   H17035268   1.577   1.604   4.093  2.7018 -0.2309  0.5409
  110MOL   H17135269   1.621   1.480   4.360  0.1214  0.0415 -0.2546
  110MOL   H17235270   1.835   1.396   4.335  0.7968  0.2866 -2.1099
  110MOL   H17335271   1.728   1.312   4.433  0.0854  1.4484 -0.0916
  110MOL   H17435272   1.861   1.225   4.338 -1.0282 -0.4895 -1.1686
  110MOL   H17535273   1.702   1.187   4.016  0.5368  3.4120 -0.1540
  110MOL   H17635274   1.793   1.103   4.147  0.8381  0.1548 -1.6192
  110MOL   H17735275   1.846   1.245   4.077 -0.8983  3.4676  0.6596
  110MOL   C17835276   1.415   1.490   4.324 -0.5921 -0.6089  1.0470
  110MOL   C17935277   1.388   1.467   4.477 -0.3774 -0.3211  0.5100
  110MOL   C18035278   1.463   1.563   4.571 -0.7278 -0.6425 -0.6928
  110MOL   O18135279   1.570   1.530   4.625  0.0496  0.0703  0.0908
  110MOL   N18235280   1.391   1.671   4.618  0.0635 -0.2753  0.2201
  110MOL   C18335281   1.282   1.731   4.547  0.1324  0.2752 -0.2400
  110MOL   C18435282   1.425   1.751   4.743  0.5428 -0.1911 -0.1443
  110MOL   H18535283   1.363   1.580   4.290  2.0025  0.4886 -0.1001
  110MOL   H18635284   1.346   1.423   4.272 -0.1272 -0.8203  0.7063
  110MOL   H18735285   1.281   1.486   4.485 -0.1603  0.5567  1.3078
  110MOL   H18835286   1.269   1.836   4.571 -1.0963  0.0963 -0.0953
  110MOL   H18935287   1.295   1.727   4.438 -1.7363 -0.6601 -0.4468
  110MOL   H19035288   1.186   1.687   4.571  1.7978 -2.4770  1.6844
  110MOL   H19135289   1.424   1.676   4.822  2.3574 -1.4136 -1.2475
  110MOL   H19235290   1.358   1.832   4.771  0.4022 -0.1732 -0.5407
  110MOL   H19335291   1.525   1.794   4.732  0.4054  0.4447  0.9755
  110MOL   C19435292   1.410   1.318   4.506  0.0093  0.3770 -0.0619
  110MOL   C19535293   1.315   1.227   4.580 -0.2106 -0.3446 -0.9772
  110MOL   C19635294   1.162   1.240   4.527  0.6178  0.2934 -0.4223
  110MOL   O19735295   1.087   1.326   4.576  0.5396  0.1115 -0.4778
  110MOL   N19835296   1.114   1.147   4.430  0.2309 -0.2727  1.2407
  110MOL   C19935297   1.196   1.038   4.378 -0.0486  0.0199  0.1218
  110MOL   C20035298   0.974   1.150   4.383 -0.0884 -0.5022 -0.5413
  110MOL   H20135299   1.423   1.268   4.410  2.7762 -1.4598  1.1784
  110MOL   H20235300   1.505   1.311   4.560 -0.9146 -0.5476  1.4651
  110MOL   H20335301   1.350   1.125   4.560 -0.3869 -0.2295 -1.8950
  110MOL   H20435302   1.149   0.982   4.296  1.6322  1.2627 -1.7272
  110MOL   H20535303   1.291   1.071   4.337 -0.1651  1.3197  0.8676
  110MOL   H20635304   1.218   0.976   4.465  2.0483  1.9372  1.0136
  110MOL   H20735305   0.918   1.060   4.407  1.0595 -0.8046  1.0899
  110MOL   H20835306   0.955   1.179   4.280 -1.8683 -2.2119 -0.7339
  110MOL   H20935307   0.916   1.226   4.436  2.3903  2.3282 -1.7397
  110MOL   C21035308   1.315   1.248   4.732  0.0632 -0.0683  0.6982
  110MOL   C21135309   1.429   1.181   4.814 -0.2180 -0.2231 -0.2391
  110MOL   C21235310   1.443   1.025   4.794  0.3693 -0.3223 -0.4521
  110MOL   O21335311   1.341   0.950   4.817 -0.5355 -0.0021  0.1555
  110MOL   N21435312   1.567   0.972   4.770 -0.2955  0.2266  1.0016
  110MOL   C21535313   1.693   1.042   4.776 -0.6420  0.4701 -0.8482
  110MOL   C21635314   1.575   0.831   4.754  0.2409  0.4170  0.0663
  110MOL   H21735315   1.319   1.356   4.745  0.8959  0.0973 -0.7666
  110MOL   H21835316   1.215   1.225   4.768  0.7661 -4.0881  0.3530
  110MOL   H21935317   1.517   1.232   4.773 -1.0009  1.0001 -0.4270
  110MOL   H22035318   1.698   1.117   4.854  0.5510  0.5623 -1.0116
  110MOL   H22135319   1.760   0.971   4.825  1.6932  1.1725 -2.9221
  110MOL   H22235320   1.748   1.071   4.687 -2.5054  0.3692 -2.0735
  110MOL   H22335321   1.665   0.796   4.704 -0.4048  1.2535 -1.7222
  110MOL   H22435322   1.490   0.805   4.692  0.7978 -1.6507  0.1540
  110MOL   H22535323   1.553   0.787   4.851  0.9936 -1.2161 -0.4910
  110MOL   C22635324   1.405   1.203   4.963  0.1472 -0.7099 -0.0960
  110MOL   C22735325   1.466   1.333   5.022  1.1724  0.0570 -0.5877
  110MOL   C22835326   1.617   1.311   5.033  0.1989  0.0978 -0.3071
  110MOL   O22935327   1.664   1.197   5.063 -0.3534 -0.4893  0.6194
  110MOL   N23035328   1.703   1.414   5.002  0.1233  0.0357  0.2043
  110MOL   C23135329   1.653   1.549   4.978 -0.2206  0.3521  0.2121
  110MOL   C23235330   1.846   1.383   4.976  0.0971  0.1145 -0.2010
  110MOL   H23335331   1.297   1.210   4.978 -0.0409  0.1421 -1.6886
  110MOL   H23435332   1.440   1.112   5.013 -0.2170 -0.5745  0.4085
  110MOL   H23535333   1.452   1.404   4.941 -0.5149  0.4196  0.0071
  110MOL   H23635334   1.593   1.559   4.887 -0.6093 -0.2233  0.4035
  110MOL   H23735335   1.607   1.584   5.070 -4.1644 -2.1004 -0.7001
  110MOL   H23835336   1.738   1.615   4.959  1.0226 -1.4798 -0.7275
  110MOL   H23935337   1.898   1.357   5.068 -0.2818  1.4160  0.4008
  110MOL   H24035338   1.902   1.472   4.948  3.2378 -2.2280 -1.6031
  110MOL   H24135339   1.865   1.301   4.907 -2.0368 -0.8444  0.3126
  110MOL   C24235340   1.401   1.374   5.154  0.5886 -0.1461  0.7327
  110MOL   C24335341   1.247   1.405   5.143 -0.1188  0.1547  0.5541
  110MOL   C24435342   1.212   1.499   5.027  0.1607  0.4094  0.1863
  110MOL   O24535343   1.282   1.601   5.022 -0.1247  0.1935 -0.2833
  110MOL   N24635344   1.117   1.469   4.932 -0.7530  0.6062  0.0805
  110MOL   C24735345   1.034   1.348   4.939 -0.2677 -0.4308  0.3904
  110MOL   C24835346   1.092   1.569   4.819 -0.6217  0.4070  0.1478
  110MOL   H24935347   1.411   1.294   5.227  0.9836 -0.0937  0.7333
  110MOL   H25035348   1.448   1.465   5.192  0.3520  1.1533 -1.9613
  110MOL   H25135349   1.201   1.307   5.135 -0.8414  0.6567 -1.7571
  110MOL   H25235350   0.985   1.331   4.844  1.1023  1.1859 -0.6304
  110MOL   H25335351   1.087   1.256   4.961 -0.1135 -0.5919 -0.6491
  110MOL   H25435352   0.954   1.349   5.014  0.4433  1.4215  1.1711
  110MOL   H25535353   1.102   1.520   4.722 -0.6600 -1.5518  1.1046
  110MOL   H25635354   1.148   1.662   4.817  0.9250 -0.4923  0.4579
  110MOL   H25735355   0.988   1.601   4.820 -0.8763 -0.3652  2.3342
  110MOL   C25835356   1.210   1.467   5.281  0.3014  0.3189  0.3960
  110MOL   C25935357   1.063   1.491   5.328  0.0144 -0.3869 -0.4547
  110MOL   C26035358   0.987   1.355   5.339 -0.5195  0.2993 -1.0150
  110MOL   O26135359   0.991   1.275   5.246 -0.1578 -0.2540 -0.0236
  110MOL   N26235360   0.898   1.338   5.440  0.3068 -0.3351  0.2749
  110MOL   C26335361   0.826   1.210   5.452  0.1383  0.0060 -0.1680
  110MOL   C26435362   0.886   1.427   5.553  0.1596 -0.4071 -0.4200
  110MOL   H26535363   1.255   1.408   5.361  1.2113  1.2653  0.5889
  110MOL   H26635364   1.255   1.564   5.297 -1.1503  1.0879 -0.1090
  110MOL   H26735365   1.074   1.528   5.430  0.6408 -0.4069 -0.5080
  110MOL   H26835366   0.905   1.135   5.459  2.6657  2.5370 -0.6888
  110MOL   H26935367   0.759   1.213   5.538  0.0379  0.1730 -0.2524
  110MOL   H27035368   0.785   1.192   5.353  0.7574 -1.2191 -0.2203
  110MOL   H27135369   0.973   1.410   5.615 -1.8110 -3.9690  1.5070
  110MOL   H27235370   0.809   1.396   5.623 -1.8461  0.4397 -2.1738
  110MOL   H27335371   0.869   1.533   5.533 -0.5215  0.2889  3.4384
  110MOL   C27435372   0.979   1.593   5.237  0.1658 -0.2103 -0.0345
  110MOL   C27535373   1.028   1.732   5.238  0.0901 -0.2077  0.0731
  110MOL   C27635374   1.033   1.788   5.376  0.4003  0.2118 -0.1875
  110MOL   O27735375   0.926   1.799   5.444 -0.3537  0.4617  0.1859
  110MOL   N27835376   1.150   1.814   5.441  0.2273  0.2147 -0.4482
  110MOL   C27935377   1.160   1.817   5.592 -0.1935  0.4471 -0.1530
  110MOL   C28035378   1.272   1.855   5.372  0.9395  0.4705 -0.1858
  110MOL   H28135379   0.966   1.564   5.133 -0.2296  2.7967 -0.8615
  110MOL   H28235380   0.879   1.593   5.282 -0.3188  0.8577 -1.1024
  110MOL   H28335381   1.130   1.729   5.200 -0.3531  0.1673 -1.1585
  110MOL   H28435382   1.253   1.770   5.623 -0.2295 -1.0808 -2.2715
  110MOL   H28535383   1.169   1.919   5.630 -1.8635  1.2030 -1.6684
  110MOL   H28635384   1.068   1.781   5.637  0.4350 -0.4287  0.4369
  110MOL   H28735385   1.254   1.900   5.274  0.0684 -1.8206 -1.0932
  110MOL   H28835386   1.343   1.774   5.358  0.4237  0.2519 -1.6423
  110MOL   H28935387   1.318   1.946   5.412  1.2365  0.5949 -0.7960
  110MOL   C29035388   0.937   1.821   5.150  0.2616 -0.3071 -0.5951
  110MOL   C29135389   0.991   1.966   5.110  0.3309 -0.4068  0.2188
  110MOL   C29235390   0.878   2.053   5.046  0.2997 -0.4049  0.1478
  110MOL   O29335391   0.860   2.040   4.927 -0.3599  0.2204  0.0897
  110MOL   N29435392   0.801   2.140   5.118 -0.3702 -0.5645 -0.4953
  110MOL   C29535393   0.711   2.232   5.050  0.3216  0.8085 -0.2440
  110MOL   C29635394   0.787   2.136   5.269  0.7589  0.2325  0.7914
  110MOL   H29735395   0.937   1.779   5.050  1.0856 -0.3906 -0.5636
  110MOL   H29835396   0.836   1.805   5.188  0.5019  0.9217  0.5976
  110MOL   H29935397   1.024   2.021   5.199 -0.7165  1.7299 -0.6702
  110MOL   H30035398   0.646   2.178   4.982 -0.0207  0.3274  0.4585
  110MOL   H30135399   0.644   2.290   5.115 -2.9058 -1.5044 -1.3682
  110MOL   H30235400   0.760   2.288   4.970  4.9345 -1.7252  0.6686
  110MOL   H30335401   0.817   2.038   5.306  1.8592  0.1961 -0.1467
  110MOL   H30435402   0.684   2.157   5.298  0.9164 -1.2920  2.5308
  110MOL   H30535403   0.844   2.215   5.317  0.2325 -0.2574  2.2726
  110MOL   C30635404   1.111   1.938   5.010 -0.7015  0.0252 -0.2580
  110MOL   C30735405   1.171   2.070   4.959 -0.5238  0.4322 -0.2121
  110MOL   C30835406   1.224   2.159   5.072  0.1501 -0.8418  0.4541
  110MOL   O30935407   1.305   2.117   5.152  0.1561  0.7030 -0.0521
  110MOL   N31035408   1.178   2.288   5.081  0.0736 -0.0234 -0.3069
  110MOL   C31135409   1.096   2.363   4.988 -0.0586 -0.0055 -0.4226
  110MOL   C31235410   1.222   2.373   5.195 -0.0467  0.1087  0.2618
  110MOL   H31335411   1.189   1.889   5.068  0.2962  1.1248 -0.6472
  110MOL   H31435412   1.093   1.870   4.926 -1.9673 -0.8488  0.6969
  110MOL   H31535413   1.257   2.039   4.901  1.4499  1.2921  2.1718
  110MOL   H31635414   1.153   2.456   4.977 -1.1391  0.8618  1.0516
  110MOL   H31735415   1.086   2.318   4.890 -1.1965  1.7061 -1.1213
  110MOL   H31835416   0.992   2.371   5.020 -0.8109  0.0756 -2.8115
  110MOL   H31935417   1.322   2.408   5.172 -0.3693 -0.5095 -2.1873
  110MOL   H32035418   1.198   2.334   5.294  0.0998 -1.7825 -0.4144
  110MOL   H32135419   1.161   2.463   5.200  2.0357  1.4726  2.5099
  110MOL   H32235420   1.107   2.122   4.887 -1.6266 -0.4500  0.1192
  111MOL     C135421   0.510   3.886   2.275  1.0412  0.2550 -0.5798
  111MOL     C235422   0.449   3.900   2.409 -0.3817 -0.3170  0.7092
  111MOL     C335423   0.428   4.052   2.437  0.0572 -0.0530  0.3785
  111MOL     O435424   0.530   4.117   2.481  0.2420  0.1755 -0.1100
  111MOL     N535425   0.310   4.112   2.412 -0.0716  0.3036  0.2125
  111MOL     C635426   0.186   4.046   2.364  0.5574 -0.7499 -0.1214
  111MOL     C735427   0.283   4.255   2.428  0.7909 -0.8907  0.5250
  111MOL     H835428   0.611   3.923   2.261  0.8241  1.1611  0.2184
  111MOL     H935429   0.450   3.932   2.196  3.4337  1.6072 -1.6428
  111MOL    H1035430   0.350   3.855   2.406 -0.5903  0.1899 -0.7795
  111MOL    H1135431   0.108   4.117   2.339 -1.3667 -1.9951  2.1657
  111MOL    H1235432   0.210   3.977   2.282 -0.1828 -4.1974  2.4322
  111MOL    H1335433   0.142   3.982   2.440  1.8453  0.1079  1.3739
  111MOL    H1435434   0.370   4.295   2.479  0.5056 -0.9342  1.0517
  111MOL    H1535435   0.192   4.271   2.486 -0.1159  1.9376 -1.5302
  111MOL    H1635436   0.259   4.312   2.338  0.7918  0.2655  1.2496
  111MOL    H1735437   0.508   3.779   2.254  2.6025  0.3547 -1.3171
  111MOL    C1835438   0.523   3.810   2.512 -0.3864 -0.7211  0.2294
  111MOL    C1935439   0.491   3.837   2.653  0.7294  0.1410  0.8512
  111MOL    C2035440   0.610   3.797   2.744 -0.2311 -0.2851  0.7425
  111MOL    O2135441   0.632   3.676   2.755 -0.2847  0.4507 -0.3348
  111MOL    N2235442   0.686   3.889   2.801 -0.7512  0.1102  0.1581
  111MOL    C2335443   0.783   3.838   2.902 -0.2242 -0.4676 -0.0648
  111MOL    C2435444   0.718   4.018   2.744  0.0730  0.3750  0.1815
  111MOL    H2535445   0.518   3.703   2.493  2.0012 -0.6256 -1.1200
  111MOL    H2635446   0.629   3.818   2.488  0.3051  0.5945  3.4458
  111MOL    H2735447   0.486   3.946   2.664 -0.1713 -0.0163  2.2720
  111MOL    H2835448   0.774   3.734   2.930  1.3591 -0.3054  1.0997
  111MOL    H2935449   0.880   3.839   2.852 -0.8422  0.6606 -1.2920
  111MOL    H3035450   0.778   3.894   2.996  0.0156  0.9828 -0.8920
  111MOL    H3135451   0.704   4.033   2.637  2.1950  2.6821  0.1981
  111MOL    H3235452   0.816   4.056   2.771  0.0104 -0.4923  1.6983
  111MOL    H3335453   0.647   4.087   2.789  1.7434  1.8979  0.5178
  111MOL    C3435454   0.352   3.765   2.686  0.1788  0.4128 -0.5029
  111MOL    C3535455   0.259   3.825   2.800 -0.9442  0.0535 -0.1401
  111MOL    C3635456   0.217   3.969   2.772 -0.9092 -0.4067  0.4064
  111MOL    O3735457   0.301   4.061   2.792  0.0174  0.7494 -0.6194
  111MOL    N3835458   0.088   4.000   2.731 -0.1950 -0.2353 -0.1039
  111MOL    C3935459   0.033   4.132   2.718  0.8754 -0.1781 -0.2425
  111MOL    C4035460   7.841   3.891   2.687  0.2492 -0.2160  0.2508
  111MOL    H4135461   0.292   3.745   2.597 -0.1653 -2.6423  0.3354
  111MOL    H4235462   0.376   3.665   2.724  1.5739  0.5325 -1.0622
  111MOL    H4335463   0.168   3.768   2.812 -0.3622 -0.9361 -0.3675
  111MOL    H4435464   0.003   4.161   2.819  1.0382 -2.3748  0.4503
  111MOL    H4535465   0.113   4.204   2.699 -1.7087  2.7225 -0.5768
  111MOL    H4635466   7.803   4.150   2.651 -0.3467  0.2517  1.3603
  111MOL    H4735467   0.038   3.809   2.636 -0.5798  0.5046 -1.8119
  111MOL    H4835468   7.757   3.917   2.623  0.5069  0.7783  0.3149
  111MOL    H4935469   7.807   3.839   2.776  0.6363 -0.9990 -0.0545
  111MOL    C5035470   0.320   3.809   2.941  0.3778  0.0911 -0.2403
  111MOL    C5135471   0.245   3.867   3.064 -0.7526  0.3326  0.2413
  111MOL    C5235472   0.350   3.852   3.173 -0.1098  1.2262 -0.4743
  111MOL    O5335473   0.318   3.770   3.260 -0.5580 -0.3714  0.4887
  111MOL    N5435474   0.464   3.927   3.179  0.0603 -0.4589  0.0293
  111MOL    C5535475   0.570   3.889   3.278 -0.1785  0.0116  0.2108
  111MOL    C5635476   0.478   4.057   3.107 -0.2928 -0.1899 -0.2643
  111MOL    H5735477   0.338   3.705   2.967  1.2800  0.2733 -0.0967
  111MOL    H5835478   0.422   3.847   2.937  0.6699 -0.6564 -0.0320
  111MOL    H5935479   0.239   3.975   3.049  0.6380  0.2134 -1.2989
  111MOL    H6035480   0.522   3.876   3.374 -2.0073 -0.9908 -0.8152
  111MOL    H6135481   0.609   3.794   3.240  1.7407  0.6152  0.6354
  111MOL    H6235482   0.650   3.960   3.297  0.4914 -1.5141  3.4206
  111MOL    H6335483   0.457   4.137   3.178  2.1982  0.2584  0.0045
  111MOL    H6435484   0.419   4.073   3.017 -2.2651  1.1870  1.1985
  111MOL    H6535485   0.585   4.070   3.089 -0.1779 -0.7316  0.0082
  111MOL    C6635486   0.101   3.811   3.087  0.7487 -0.4036 -0.7568
  111MOL    C6735487   0.008   3.882   3.180 -0.2413 -0.1337  0.8266
  111MOL    C6835488   7.836   4.031   3.135  0.0666 -0.1729  0.5781
  111MOL    O6935489   0.066   4.115   3.175 -0.0844  0.0785  0.3442
  111MOL    N7035490   7.730   4.069   3.064 -0.0214 -0.0961 -0.0643
  111MOL    C7135491   7.632   3.972   3.006 -0.4225 -0.0179  0.0154
  111MOL    C7235492   7.694   4.211   3.037 -0.7718  0.0865 -0.1488
  111MOL    H7335493   0.063   3.808   2.985 -0.3383 -0.5996 -0.3460
  111MOL    H7435494   0.118   3.709   3.121 -0.1753  0.3850  2.2077
  111MOL    H7535495   7.761   3.843   3.160 -1.2031  2.9674 -0.7786
  111MOL    H7635496   7.561   3.937   3.081  0.7635 -0.6017  0.8635
  111MOL    H7735497   7.564   4.013   2.930 -1.0721 -1.3987 -0.1563
  111MOL    H7835498   7.685   3.889   2.960  2.8157  0.8584  1.9861
  111MOL    H7935499   7.784   4.273   3.043 -1.8943  1.5959  2.0914
  111MOL    H8035500   7.630   4.246   3.118 -2.3689 -3.0477  0.0215
  111MOL    H8135501   7.646   4.226   2.941 -0.3432 -1.7484 -0.6578
  111MOL    C8235502   0.016   3.860   3.329 -0.1930  0.8625  0.4113
  111MOL    C8335503   7.790   3.733   3.387 -0.0255 -0.0966  0.3627
  111MOL    C8435504   7.646   3.759   3.428  0.6213  0.1149  0.0180
  111MOL    O8535505   7.622   3.815   3.534  0.0542  0.3183  0.1198
  111MOL    N8635506   7.546   3.711   3.357  0.3229 -0.2742 -0.8458
  111MOL    C8735507   7.554   3.618   3.240 -0.5377 -0.4850  0.9074
  111MOL    C8835508   7.410   3.756   3.382  0.6821 -0.8432 -0.3882
  111MOL    H8935509   0.118   3.848   3.365 -0.6936 -2.9988  0.8331
  111MOL    H9035510   7.833   3.944   3.387  0.0280  0.3128  1.3532
  111MOL    H9135511   7.784   3.671   3.298  0.4216  0.2375  0.0998
  111MOL    H9235512   7.606   3.680   3.168 -0.9558  2.0266  2.7303
  111MOL    H9335513   7.607   3.523   3.252 -0.6198 -0.4819  1.3188
  111MOL    H9435514   7.455   3.596   3.198 -0.5509  0.1955  0.5857
  111MOL    H9535515   7.407   3.859   3.346  0.3959 -1.3348 -1.7857
  111MOL    H9635516   7.384   3.759   3.488 -0.7915  3.3579 -0.7434
  111MOL    H9735517   7.336   3.700   3.326  1.3987 -0.5060 -1.6899
  111MOL    C9835518   0.012   3.667   3.500 -0.2165  0.9886 -0.1513
  111MOL    C9935519   0.116   3.559   3.468 -0.4075  0.1230  0.6196
  111MOL   C10035520   0.054   3.444   3.384 -0.5953 -0.9380  0.6225
  111MOL   O10135521   7.798   3.401   3.419  0.0665 -0.0393  0.0124
  111MOL   N10235522   0.129   3.387   3.287  0.1343  0.6832 -0.3486
  111MOL   C10335523   0.106   3.252   3.245 -0.1571 -0.1785  0.3176
  111MOL   C10435524   0.255   3.438   3.229 -0.4268  0.5319  0.4003
  111MOL   H10535525   0.063   3.744   3.558 -0.6879 -0.8802  2.8362
  111MOL   H10635526   7.788   3.617   3.558  0.1046 -1.7073 -1.9515
  111MOL   H10735527   0.200   3.606   3.418 -0.7538  0.1118  0.0218
  111MOL   H10835528   0.198   3.194   3.237 -0.2402 -0.0499 -1.9540
  111MOL   H10935529   0.027   3.195   3.293  0.7480 -1.0505  0.7946
  111MOL   H11035530   0.091   3.261   3.137  2.9345  4.0693  0.0929
  111MOL   H11135531   0.289   3.402   3.132  0.9870 -0.8075  1.3561
  111MOL   H11235532   0.338   3.404   3.292 -0.6844  0.0472  0.4799
  111MOL   H11335533   0.248   3.547   3.226  1.7376  0.6345 -2.4939
  111MOL   C11435534   0.163   3.497   3.607  0.7978  0.1741  0.9333
  111MOL   C11535535   0.290   3.569   3.663 -0.3505 -0.0502 -0.0763
  111MOL   C11635536   0.421   3.529   3.585 -0.2512 -0.4136  0.0358
  111MOL   O11735537   0.427   3.423   3.525  0.0118  0.1070  0.2310
  111MOL   N11835538   0.526   3.614   3.577  0.1314  0.7119 -0.6265
  111MOL   C11935539   0.520   3.749   3.625 -0.9786 -0.1502 -0.1754
  111MOL   C12035540   0.654   3.592   3.507  0.3199 -0.0770 -0.5987
  111MOL   H12135541   0.080   3.504   3.677  0.0910  0.9306  0.0237
  111MOL   H12235542   0.183   3.390   3.592  0.1160  0.2371 -0.5402
  111MOL   H12335543   0.273   3.675   3.645  1.4826  0.4947  1.2979
  111MOL   H12435544   0.616   3.801   3.617  0.7561 -3.1013  0.4583
  111MOL   H12535545   0.445   3.809   3.574 -0.7568  0.3969  0.1349
  111MOL   H12635546   0.506   3.756   3.733  1.6904 -0.3841  0.2312
  111MOL   H12735547   0.738   3.656   3.532 -0.2450 -0.2308  1.8143
  111MOL   H12835548   0.632   3.600   3.401  0.1393 -0.3176 -0.5801
  111MOL   H12935549   0.679   3.489   3.532  1.5828  0.8644  2.2382
  111MOL   C13035550   0.306   3.532   3.809  0.1202 -0.0999 -0.1768
  111MOL   C13135551   0.203   3.585   3.914 -0.1196  0.1090  0.7702
  111MOL   C13235552   0.157   3.735   3.897 -0.6199  0.1845 -0.3550
  111MOL   O13335553   0.230   3.820   3.850  0.0005  0.4207 -0.1795
  111MOL   N13435554   0.028   3.764   3.899  0.7003 -0.4394  0.4655
  111MOL   C13535555   7.777   3.679   3.960  0.8898  0.1665 -0.1901
  111MOL   C13635556   7.833   3.902   3.847  0.5137  0.6367  0.0024
  111MOL   H13735557   0.318   3.424   3.801  2.8931  0.3570 -3.1256
  111MOL   H13835558   0.405   3.557   3.847 -0.2260  1.7777 -0.4499
  111MOL   H13935559   0.116   3.521   3.902 -0.2586  0.0524  1.9968
  111MOL   H14035560   7.694   3.737   4.001  0.6185 -1.8798  2.2690
  111MOL   H14135561   7.734   3.615   3.882 -1.6588  1.3043  0.2372
  111MOL   H14235562   7.805   3.615   4.044 -2.4416  0.7873  1.4901
  111MOL   H14335563   7.767   3.946   3.922 -1.5750 -0.7640 -0.9775
  111MOL   H14435564   7.771   3.896   3.758 -0.6404 -0.9158  0.8841
  111MOL   H14535565   0.061   3.970   3.820 -0.7626  2.2332  0.0993
  111MOL   C14635566   0.265   3.582   4.057  0.8483 -0.0948  0.9904
  111MOL   C14735567   0.309   3.440   4.098 -0.7455  0.1265  0.1641
  111MOL   C14835568   0.189   3.345   4.131  0.4880  0.1274  0.4911
  111MOL   O14935569   0.081   3.393   4.163 -0.6514  0.1996 -0.3571
  111MOL   N15035570   0.189   3.211   4.106 -0.3275 -0.0309  0.7045
  111MOL   C15135571   0.301   3.142   4.037  0.4148 -0.3308  0.4005
  111MOL   C15235572   0.070   3.128   4.136 -0.5489 -0.1221 -0.1686
  111MOL   H15335573   0.342   3.660   4.050 -0.8878  1.6045  0.2857
  111MOL   H15435574   0.197   3.622   4.132  0.9066 -0.8385  1.4380
  111MOL   H15535575   0.363   3.404   4.010 -0.9955 -0.0996  0.1032
  111MOL   H15635576   0.265   3.050   3.990  0.6597 -1.6639  2.7543
  111MOL   H15735577   0.341   3.197   3.951  1.2129 -0.7760  0.4886
  111MOL   H15835578   0.382   3.111   4.103  0.4320 -1.2334 -0.0437
  111MOL   H15935579   0.021   3.153   4.230  0.5911 -1.1717  0.7329
  111MOL   H16035580   0.095   3.022   4.147  1.1311  0.3634  0.8634
  111MOL   H16135581   7.848   3.141   4.058  1.8193 -0.7082 -2.6234
  111MOL   C16235582   0.405   3.444   4.213  0.2732 -0.6201  0.3102
  111MOL   C16335583   0.551   3.490   4.183  0.9187  0.8769 -0.3528
  111MOL   C16435584   0.609   3.415   4.055 -0.0567 -0.1374 -0.0594
  111MOL   O16535585   0.589   3.295   4.031 -0.5985 -0.0486  0.3657
  111MOL   N16635586   0.687   3.479   3.969 -0.1612  0.5858  0.2261
  111MOL   C16735587   0.751   3.411   3.852  0.4416  0.0153 -0.6534
  111MOL   C16835588   0.731   3.619   3.986  0.3851  0.4836 -0.1956
  111MOL   H16935589   0.361   3.497   4.298 -0.1948 -0.2374 -0.1666
  111MOL   H17035590   0.411   3.342   4.249 -0.2901 -1.4053 -1.7617
  111MOL   H17135591   0.552   3.599   4.185  0.0827  0.8784  0.3257
  111MOL   H17235592   0.695   3.437   3.762 -1.5195  1.3983  0.8984
  111MOL   H17335593   0.856   3.440   3.858  0.2875  0.1012  2.1204
  111MOL   H17435594   0.742   3.303   3.859  0.5825  0.0765  0.5730
  111MOL   H17535595   0.815   3.624   4.055 -2.5816 -0.4308  3.6725
  111MOL   H17635596   0.650   3.683   4.022  0.0389 -0.7131  1.1806
  111MOL   H17735597   0.774   3.659   3.894 -0.1617  2.5044  0.4002
  111MOL   C17835598   0.645   3.451   4.304 -0.4189 -0.4627  0.1676
  111MOL   C17935599   0.623   3.540   4.427 -0.2899  0.3638  0.1778
  111MOL   C18035600   0.693   3.676   4.400  0.2799 -0.2078  0.0874
  111MOL   O18135601   0.801   3.683   4.346  0.2310 -0.0670  0.5459
  111MOL   N18235602   0.638   3.792   4.438 -0.3310 -0.6280  0.4020
  111MOL   C18335603   0.523   3.802   4.534  0.5761  0.1094  0.0689
  111MOL   C18435604   0.699   3.926   4.407 -0.2867  0.1122  0.3577
  111MOL   H18535605   0.631   3.345   4.328 -0.0892 -0.4638  0.3712
  111MOL   H18635606   0.749   3.461   4.272 -0.1285 -0.6565  1.0274
  111MOL   H18735607   0.516   3.549   4.447 -0.8440 -0.6924 -2.0509
  111MOL   H18835608   0.491   3.902   4.563  1.2794 -0.9609  4.9205
  111MOL   H18935609   0.438   3.759   4.481  1.4132 -0.9160 -0.4674
  111MOL   H19035610   0.539   3.744   4.624 -1.1332 -1.0393 -0.3515
  111MOL   H19135611   0.659   4.006   4.469  0.1114  0.7525 -0.1941
  111MOL   H19235612   0.668   3.951   4.305  0.6629  3.0841  0.7512
  111MOL   H19335613   0.804   3.901   4.418  0.0509  1.0215 -0.6821
  111MOL   C19435614   0.678   3.469   4.554  1.0024 -0.0473  0.2108
  111MOL   C19535615   0.578   3.365   4.611 -0.3421 -0.1293  0.0841
  111MOL   C19635616   0.467   3.428   4.686  0.3773  0.1155  0.6812
  111MOL   O19735617   0.499   3.519   4.751  0.9587 -0.8042  0.3615
  111MOL   N19835618   0.336   3.403   4.656 -0.6870 -0.2990  0.2294
  111MOL   C19935619   0.283   3.272   4.633  0.1673 -0.4331  0.0587
  111MOL   C20035620   0.233   3.506   4.651  0.2772 -0.2541  0.0178
  111MOL   H20135621   0.766   3.412   4.526 -0.0560 -2.2300  1.2003
  111MOL   H20235622   0.704   3.542   4.631 -1.5305  0.8971  0.2513
  111MOL   H20335623   0.525   3.333   4.521 -1.8695  3.5172 -0.4092
  111MOL   H20435624   0.311   3.210   4.718 -0.3925  1.4527  1.6533
  111MOL   H20535625   0.175   3.263   4.646  0.4637 -3.3396  0.8964
  111MOL   H20635626   0.326   3.233   4.540 -1.2493 -0.5964 -0.5377
  111MOL   H20735627   0.189   3.514   4.750  0.2055  2.3075 -0.1930
  111MOL   H20835628   0.165   3.489   4.567 -1.9112  1.4005  1.3853
  111MOL   H20935629   0.269   3.608   4.638  1.3313 -0.7579 -1.1183
  111MOL   C21035630   0.660   3.261   4.698  0.3714  0.2835 -0.2525
  111MOL   C21135631   0.699   3.129   4.628 -0.3246 -0.6858 -0.2714
  111MOL   C21235632   0.575   3.042   4.602 -0.3559 -0.0334 -0.6367
  111MOL   O21335633   0.487   3.025   4.686 -0.0842 -0.0310 -0.0540
  111MOL   N21435634   0.554   2.996   4.472  0.0435  0.3256 -0.2937
  111MOL   C21535635   0.653   3.009   4.361 -0.9357 -0.0123 -0.2181
  111MOL   C21635636   0.438   2.910   4.436  0.2069  0.1106 -0.9690
  111MOL   H21735637   0.743   3.315   4.744 -0.4209  0.6535  0.7728
  111MOL   H21835638   0.598   3.232   4.783 -2.0199 -0.0057 -2.0513
  111MOL   H21935639   0.755   3.159   4.539 -0.7091 -0.5096 -0.4586
  111MOL   H22035640   0.751   3.002   4.407 -0.7448  1.1728 -0.4199
  111MOL   H22135641   0.650   2.920   4.298 -1.8169 -0.6889  0.7557
  111MOL   H22235642   0.634   3.095   4.297 -2.4723  1.2178  1.8455
  111MOL   H22335643   0.400   2.840   4.511 -0.8707  3.0627  1.3435
  111MOL   H22435644   0.436   2.870   4.335  1.5368 -0.8804 -0.6182
  111MOL   H22535645   0.352   2.975   4.424 -0.2525 -0.1601  0.6665
  111MOL   C22635646   0.782   3.068   4.743 -0.6385  0.4646  0.2289
  111MOL   C22735647   0.860   2.937   4.712  0.6587 -0.1551 -0.0009
  111MOL   C22835648   0.881   2.847   4.837 -0.2541 -0.2957 -0.2245
  111MOL   O22935649   0.968   2.884   4.918  0.2359 -0.0805 -0.0812
  111MOL   N23035650   0.803   2.739   4.862  0.3597 -0.0665 -0.3215
  111MOL   C23135651   0.832   2.664   4.980 -0.3225  0.5594 -0.5752
  111MOL   C23235652   0.663   2.718   4.809 -0.5982  0.3411 -0.7753
  111MOL   H23335653   0.848   3.136   4.797 -0.1933 -1.9366  2.8780
  111MOL   H23435654   0.711   3.042   4.822 -1.6320  1.7869 -0.2195
  111MOL   H23535655   0.805   2.873   4.642  1.1077  1.0851 -1.5202
  111MOL   H23635656   0.815   2.725   5.070  0.7741 -0.8552  0.6065
  111MOL   H23735657   0.766   2.579   4.997  1.4937 -0.2961  2.5889
  111MOL   H23835658   0.935   2.630   4.989 -0.0457  1.7805  1.2234
  111MOL   H23935659   0.597   2.671   4.882 -1.8564  0.1533 -2.0163
  111MOL   H24035660   0.668   2.656   4.720 -0.3215  0.6656 -0.9882
  111MOL   H24135661   0.612   2.809   4.775 -0.1907  0.8032 -0.1677
  111MOL   C24235662   0.992   2.979   4.645 -0.5909  0.6280 -0.5185
  111MOL   C24335663   1.092   2.861   4.609 -0.2625 -0.0428  0.1636
  111MOL   C24435664   1.223   2.928   4.561 -0.1466 -0.3155  0.0653
  111MOL   O24535665   1.226   2.960   4.442  0.8293  0.5101 -0.1315
  111MOL   N24635666   1.335   2.938   4.642 -0.4749  0.2521 -0.0007
  111MOL   C24735667   1.445   3.033   4.618  0.5663  0.9454  0.3546
  111MOL   C24835668   1.340   2.860   4.769 -0.5221 -0.5055  0.4527
  111MOL   H24935669   0.976   3.053   4.566  1.9763  0.5759 -1.1466
  111MOL   H25035670   1.050   3.041   4.713  1.0434  0.2449 -1.5320
  111MOL   H25135671   1.096   2.798   4.698 -0.9657 -1.4608 -0.7772
  111MOL   H25235672   1.451   3.072   4.517  0.5799  0.8303  0.3115
  111MOL   H25335673   1.417   3.113   4.687 -0.6720 -1.2233  2.4300
  111MOL   H25435674   1.547   3.003   4.645  0.9947  1.3785 -0.7533
  111MOL   H25535675   1.317   2.755   4.753 -0.5758 -0.3410 -0.6178
  111MOL   H25635676   1.274   2.908   4.841  0.0184  1.6161 -0.3938
  111MOL   H25735677   1.433   2.873   4.824  0.6241  3.3123 -2.1742
  111MOL   C25835678   1.028   2.771   4.497 -0.7694  0.2260  0.0722
  111MOL   C25935679   1.104   2.645   4.442  0.4352 -0.1780 -0.2610
  111MOL   C26035680   1.067   2.609   4.297 -0.2793  0.2064  0.2152
  111MOL   O26135681   0.962   2.544   4.285  0.4626  0.3936  0.2002
  111MOL   N26235682   1.147   2.638   4.192 -0.4137  0.0719 -0.1830
  111MOL   C26335683   1.100   2.611   4.056  0.3330 -0.3584  0.1536
  111MOL   C26435684   1.277   2.704   4.201 -0.1272  0.1279 -0.0043
  111MOL   H26535685   0.930   2.745   4.536 -0.6130 -0.3140  0.1097
  111MOL   H26635686   1.006   2.836   4.412 -0.1506 -0.9827 -1.0318
  111MOL   H26735687   1.208   2.677   4.437  1.1660 -2.4713 -0.1223
  111MOL   H26835688   1.163   2.635   3.970 -3.6007 -0.6490 -2.9744
  111MOL   H26935689   1.068   2.507   4.047 -1.0199  0.1051 -0.6926
  111MOL   H27035690   1.009   2.671   4.049 -2.9901 -4.9211  1.4103
  111MOL   H27135691   1.294   2.773   4.283  0.9783 -0.7839  0.5386
  111MOL   H27235692   1.306   2.765   4.116 -0.1053 -0.3356 -0.3315
  111MOL   H27335693   1.352   2.627   4.217 -0.2587  0.0791  0.3896
  111MOL   C27435694   1.106   2.521   4.535  0.1220  0.2196  0.1568
  111MOL   C27535695   1.198   2.399   4.495  0.2791  0.1840 -0.1342
  111MOL   C27635696   1.144   2.280   4.577 -0.3224  0.0654  0.1573
  111MOL   O27735697   1.194   2.255   4.684  0.2810 -0.0262  0.1589
  111MOL   N27835698   1.044   2.203   4.523 -0.0854  0.0480 -0.0264
  111MOL   C27935699   0.976   2.226   4.397  0.0119  0.4359 -0.3658
  111MOL   C28035700   0.989   2.088   4.597  0.1254 -0.5938  0.7398
  111MOL   H28135701   1.132   2.546   4.638  1.9781  2.1686 -0.7489
  111MOL   H28235702   1.005   2.479   4.533  1.4142 -3.0905  1.2401
  111MOL   H28335703   1.189   2.387   4.387  0.6991  0.8261 -0.2387
  111MOL   H28435704   0.901   2.159   4.356  0.2759  0.9602 -1.7109
  111MOL   H28535705   0.918   2.317   4.404 -0.9585 -0.2225  0.2361
  111MOL   H28635706   1.048   2.229   4.315 -1.0069 -1.6785 -1.3652
  111MOL   H28735707   0.978   2.001   4.532  0.5087 -0.2839  0.2600
  111MOL   H28835708   0.887   2.104   4.633  0.0746 -1.0633  0.8075
  111MOL   H28935709   1.043   2.065   4.688  2.5463  0.7199 -0.3243
  111MOL   C29035710   1.349   2.429   4.517  0.3837 -0.1907  0.2042
  111MOL   C29135711   1.449   2.333   4.453  0.0728 -1.1310  0.2174
  111MOL   C29235712   1.540   2.274   4.561  0.1197 -0.5389  0.8976
  111MOL   O29335713   1.625   2.347   4.609  0.0960  0.0707 -0.0280
  111MOL   N29435714   1.555   2.144   4.582  0.2412  0.4675  1.0238
  111MOL   C29535715   1.472   2.050   4.511 -0.0525  0.2508  0.4176
  111MOL   C29635716   1.666   2.089   4.657  0.0107 -0.8766 -0.0558
  111MOL   H29735717   1.367   2.532   4.487  1.0048 -1.2333 -3.2642
  111MOL   H29835718   1.373   2.441   4.622 -3.4110  0.0578  1.1295
  111MOL   H29935719   1.381   2.258   4.413  0.8229 -2.1241  0.7860
  111MOL   H30035720   1.370   2.087   4.521  0.1494  1.1125 -0.6226
  111MOL   H30135721   1.501   2.042   4.406  0.4358 -0.2596  0.5892
  111MOL   H30235722   1.489   1.951   4.554  2.0351 -0.3503 -1.6924
  111MOL   H30335723   1.722   2.156   4.722 -0.1738 -0.0032 -0.8050
  111MOL   H30435724   1.742   2.059   4.586  0.6393 -0.3579  0.3899
  111MOL   H30535725   1.637   2.000   4.715  1.0029 -0.3872  1.2225
  111MOL   C30635726   1.531   2.402   4.347  0.0111 -0.9390  0.0587
  111MOL   C30735727   1.634   2.314   4.271 -0.4498 -0.0299 -0.1747
  111MOL   C30835728   1.716   2.398   4.166  0.1976  0.2467  0.0635
  111MOL   O30935729   1.720   2.522   4.167  0.3316  0.0804  0.0078
  111MOL   N31035730   1.777   2.335   4.066 -0.2348  0.0648  0.3719
  111MOL   C31135731   1.790   2.188   4.057  0.6768 -1.1951  0.5262
  111MOL   C31235732   1.843   2.412   3.959 -0.1277 -0.1425  0.1067
  111MOL   H31335733   1.465   2.449   4.273 -0.2781  1.1310  1.5930
  111MOL   H31435734   1.589   2.487   4.382 -0.2018  0.7231 -3.3498
  111MOL   H31535735   1.705   2.273   4.343  1.5979  0.3330 -1.9424
  111MOL   H31635736   1.848   2.151   3.973 -0.7565 -1.2668 -0.4532
  111MOL   H31735737   1.845   2.151   4.144 -1.5153  1.2789  3.0948
  111MOL   H31835738   1.691   2.144   4.048 -0.3196  0.9465  0.5277
  111MOL   H31935739   1.764   2.432   3.887 -0.4518  0.4703  0.6314
  111MOL   H32035740   1.913   2.352   3.901 -0.4018  0.3555 -0.7485
  111MOL   H32135741   1.895   2.500   3.995 -0.1961 -0.4103  0.8877
  111MOL   H32235742   1.580   2.238   4.215 -0.7499 -0.0895  0.1908
  112MOL     C135743   2.594   7.818   5.543  0.1492 -0.4318 -0.3098
  112MOL     C235744   2.453   7.836   5.599 -0.3728 -0.0532 -0.5953
  112MOL     C335745   2.363   7.718   5.553  0.5279  0.4639 -0.1179
  112MOL     O435746   2.303   7.725   5.442  0.1889  0.1077  0.5162
  112MOL     N535747   2.350   7.617   5.640 -0.2092 -0.2156 -0.1174
  112MOL     C635748   2.426   7.604   5.767  0.5282 -0.1427 -0.9005
  112MOL     C735749   2.249   7.519   5.623  0.2941  0.2926 -0.5393
  112MOL     H835750   2.641   7.721   5.555  0.2600 -0.2753  0.5795
  112MOL     H935751   2.661   0.034   5.594 -1.5130  0.9722  0.0304
  112MOL    H1035752   2.473   7.838   5.706  0.3287 -0.7256 -0.7030
  112MOL    H1135753   2.427   7.499   5.793  0.0375  0.4429  1.5934
  112MOL    H1235754   2.529   7.637   5.777  0.2258  0.2565  1.0990
  112MOL    H1335755   2.374   7.656   5.848  0.3065 -2.3269  0.4001
  112MOL    H1435756   2.282   7.422   5.661 -1.7222  0.4309  1.6692
  112MOL    H1535757   2.207   7.506   5.523 -0.9176 -0.9227  0.1057
  112MOL    H1635758   2.161   7.543   5.683 -0.2985 -1.6978 -0.5626
  112MOL    H1735759   2.606   7.841   5.437 -0.5058 -1.1549 -0.5475
  112MOL    C1835760   2.387   0.118   5.558 -0.1861 -0.0116  0.0805
  112MOL    C1935761   2.233   0.143   5.596  0.0451 -0.2465 -0.2336
  112MOL    C2035762   2.189   0.281   5.540  0.2723 -0.5243  0.2382
  112MOL    O2135763   2.177   0.374   5.623  0.3911 -0.5320 -0.3711
  112MOL    N2235764   2.143   0.302   5.413  0.2204  0.5536  0.2555
  112MOL    C2335765   2.083   0.429   5.367 -0.3743  0.1011 -0.2128
  112MOL    C2435766   2.154   0.209   5.304  0.1399  1.1088 -0.2767
  112MOL    H2535767   2.445   0.192   5.613  1.6087 -2.7903  2.0643
  112MOL    H2635768   2.393   0.133   5.450  0.4352 -0.8232 -0.0030
  112MOL    H2735769   2.171   0.064   5.555 -0.0136 -0.0014 -0.6135
  112MOL    H2835770   2.043   0.495   5.444 -1.8004  0.5833 -1.3454
  112MOL    H2935771   2.160   0.478   5.308 -0.7954 -1.1863 -1.8548
  112MOL    H3035772   1.996   0.433   5.301 -2.3226  0.8309  2.2945
  112MOL    H3135773   2.144   0.103   5.330  3.0083  1.1565  1.3832
  112MOL    H3235774   2.249   0.223   5.252 -0.2713  0.9850 -1.0624
  112MOL    H3335775   2.076   0.237   5.234  1.1663  0.5742 -1.6698
  112MOL    C3435776   2.217   0.131   5.748  0.5379  0.2411  0.2453
  112MOL    C3535777   2.078   0.137   5.832 -1.2104 -0.0472  0.2795
  112MOL    C3635778   2.087   0.066   5.968 -0.4570  0.4027  0.3070
  112MOL    O3735779   2.061   7.803   5.976 -0.5031  0.2606 -0.4878
  112MOL    N3835780   2.117   0.139   6.083  1.0390  0.5726 -0.0843
  112MOL    C3935781   2.119   0.076   6.214 -0.3627 -0.4400 -0.5956
  112MOL    C4035782   2.155   0.288   6.088  0.2872 -0.3485  0.3816
  112MOL    H4135783   2.258   0.034   5.776  0.6539  0.4332  0.7596
  112MOL    H4235784   2.289   0.200   5.794  1.9630 -1.1478  0.1521
  112MOL    H4335785   2.069   0.244   5.853 -0.2512  0.0978 -0.0100
  112MOL    H4435786   2.067   0.128   6.295 -0.5943 -0.9161 -0.4413
  112MOL    H4535787   2.073   7.831   6.202 -0.0593 -0.7632  0.7832
  112MOL    H4635788   2.222   0.062   6.245 -0.7141 -1.9377 -0.0942
  112MOL    H4735789   2.215   0.308   5.999  1.6038  0.3076  1.4058
  112MOL    H4835790   2.219   0.301   6.175  0.9787 -2.4222  0.2276
  112MOL    H4935791   2.067   0.352   6.087  1.7500  1.7065  0.1251
  112MOL    C5035792   1.965   0.082   5.745 -0.2748 -0.1769  0.0608
  112MOL    C5135793   1.809   0.099   5.776  0.4367  0.1520  1.1297
  112MOL    C5235794   1.779   0.248   5.822 -0.1952  0.3660 -0.1303
  112MOL    O5335795   1.824   0.279   5.934  0.1787 -0.2752 -0.1652
  112MOL    N5435796   1.727   0.348   5.745  0.3295  0.3904 -0.0954
  112MOL    C5535797   1.726   0.336   5.598 -0.5143 -0.2242 -0.3871
  112MOL    C5635798   1.708   0.476   5.805 -0.0531  0.2720 -1.4053
  112MOL    H5735799   1.974   0.124   5.645  0.3505  0.1188  0.2431
  112MOL    H5835800   1.973   7.828   5.725  0.1117 -0.3257  1.0071
  112MOL    H5935801   1.765   0.082   5.678  1.8472  0.9708  0.3379
  112MOL    H6035802   1.823   0.300   5.565 -0.7586  0.3671 -1.7896
  112MOL    H6135803   1.652   0.260   5.573  0.8489 -1.7289  0.0247
  112MOL    H6235804   1.703   0.429   5.545  2.5685  0.6980 -0.1858
  112MOL    H6335805   1.647   0.546   5.748 -0.8427  2.0028  1.4248
  112MOL    H6435806   1.796   0.540   5.808  1.2171 -1.4743 -0.0162
  112MOL    H6535807   1.676   0.471   5.909  0.0338 -1.4368 -1.4391
  112MOL    C6635808   1.758   7.842   5.879 -0.7874 -0.3532 -0.3045
  112MOL    C6735809   1.617   7.787   5.856 -0.1439  0.3172 -0.1459
  112MOL    C6835810   1.617   7.660   5.772  0.1614  0.3887  0.3348
  112MOL    O6935811   1.601   7.671   5.652  0.6591  0.1478  0.2264
  112MOL    N7035812   1.650   7.541   5.826  0.8110 -0.3317  0.1287
  112MOL    C7135813   1.693   7.422   5.755 -0.3051 -0.5682  0.3186
  112MOL    C7235814   1.667   7.520   5.970 -0.2928  0.7282  0.2196
  112MOL    H7335815   1.827   7.758   5.877 -1.4838 -0.9710  0.6261
  112MOL    H7435816   1.774   0.023   5.981 -1.4750 -0.3417 -0.1922
  112MOL    H7535817   1.560   7.766   5.947 -0.4818  1.2924 -0.1274
  112MOL    H7635818   1.770   7.367   5.811 -0.1529 -2.1939 -1.4162
  112MOL    H7735819   1.604   7.360   5.746  0.0894 -0.8871 -1.6505
  112MOL    H7835820   1.729   7.445   5.655 -0.1315  1.7826  0.8878
  112MOL    H7935821   1.760   7.566   6.004 -0.7480  1.1476  0.9379
  112MOL    H8035822   1.673   7.416   6.002 -1.5294  1.0271  1.4955
  112MOL    H8135823   1.585   7.566   6.025  0.5345  3.0394 -0.4114
  112MOL    C8235824   1.516   0.038   5.788 -0.1676 -0.5392  0.5391
  112MOL    C8335825   1.359   0.011   5.811  0.1380 -0.3289 -0.7498
  112MOL    C8435826   1.273   0.052   5.691 -0.4891  0.0066  0.5165
  112MOL    O8535827   1.274   0.173   5.665  0.8631  0.4741  0.0202
  112MOL    N8635828   1.213   7.812   5.607 -0.6012 -0.8513 -0.7758
  112MOL    C8735829   1.211   7.671   5.634  0.8016 -1.0201  0.0269
  112MOL    C8835830   1.137   0.005   5.490 -0.2522  0.5677 -0.4538
  112MOL    H8935831   1.543   0.139   5.819 -0.1404  0.0983 -1.4474
  112MOL    H9035832   1.524   0.047   5.679 -1.0646 -3.1602  0.2302
  112MOL    H9135833   1.358   7.755   5.817  1.2008 -0.3026 -0.0744
  112MOL    H9235834   1.158   7.638   5.724  1.1815  1.5872  1.2619
  112MOL    H9335835   1.152   7.619   5.558  0.6115 -0.9606  0.1334
  112MOL    H9435836   1.312   7.630   5.627  1.6236  0.8331  0.6966
  112MOL    H9535837   1.176   0.083   5.425 -0.8242  1.8882  0.7629
  112MOL    H9635838   1.039   0.042   5.520 -0.2296  1.1982 -1.1530
  112MOL    H9735839   1.112   7.774   5.427 -0.1006  1.4843 -1.7492
  112MOL    C9835840   1.306   0.073   5.943  0.0800 -0.3406  0.1121
  112MOL    C9935841   1.271   7.828   6.054  0.4713 -0.2120  0.3873
  112MOL   C10035842   1.144   7.745   6.020 -0.3353 -0.4288  0.2933
  112MOL   O10135843   1.055   7.818   5.968 -0.4480 -0.1044 -0.1758
  112MOL   N10235844   1.132   7.613   6.053 -0.4418  0.2641 -0.3168
  112MOL   C10335845   1.020   7.542   6.001  0.2552  0.4840 -0.1419
  112MOL   C10435846   1.245   7.530   6.093 -0.2117 -0.2970  0.5060
  112MOL   H10535847   1.382   0.138   5.985 -2.1393  1.1645  1.9523
  112MOL   H10635848   1.230   0.147   5.919 -0.4558 -1.6248 -2.3015
  112MOL   H10735849   1.357   7.762   6.068  0.0109 -0.6906  0.9964
  112MOL   H10835850   0.928   7.600   6.007  0.3468  0.5536  0.6737
  112MOL   H10935851   1.047   7.511   5.900  1.5904  1.9376 -0.2590
  112MOL   H11035852   1.001   7.454   6.063 -0.1557  1.2421  0.8165
  112MOL   H11135853   1.211   7.434   6.130 -1.7353 -0.6852 -1.7558
  112MOL   H11235854   1.303   7.578   6.172  0.5880 -2.3173  1.1618
  112MOL   H11335855   1.311   7.506   6.010 -1.3921  0.2257 -0.6091
  112MOL   C11435856   1.243   0.042   6.194  0.0003  0.6624  0.7887
  112MOL   C11535857   1.368   0.099   6.263 -0.0717  0.7741 -0.2176
  112MOL   C11635858   1.479   7.851   6.277 -0.6541 -0.7956 -0.0358
  112MOL   O11735859   1.446   7.739   6.307 -0.3728  0.7959  0.4133
  112MOL   N11835860   1.602   0.027   6.251  0.3937  0.3248  0.6552
  112MOL   C11935861   1.712   7.785   6.268  0.1111 -0.2477 -0.6973
  112MOL   C12035862   1.647   0.155   6.183  0.1429  0.5279  0.8236
  112MOL   H12135863   1.169   0.122   6.192 -0.4438  0.3109  2.3735
  112MOL   H12235864   1.210   7.816   6.261  4.4207  0.3443  2.7409
  112MOL   H12335865   1.406   0.176   6.196 -0.0576 -0.1720 -1.2915
  112MOL   H12435866   1.753   7.757   6.171  0.5724  0.3795 -0.6848
  112MOL   H12535867   1.795   7.829   6.323 -0.9889  0.6901  0.2266
  112MOL   H12635868   1.681   7.699   6.327 -1.2583  2.1624  2.2487
  112MOL   H12735869   1.754   0.175   6.189  0.3780 -0.4347  0.0379
  112MOL   H12835870   1.589   0.235   6.229 -1.2678 -0.7302  1.2719
  112MOL   H12935871   1.625   0.142   6.077  0.5560 -0.9354  0.9058
  112MOL   C13035872   1.336   0.157   6.402 -0.6848  0.2594 -0.1740
  112MOL   C13135873   1.293   0.308   6.396  0.0574  0.0527 -0.1945
  112MOL   C13235874   1.391   0.400   6.326 -0.3283  0.3155 -0.2243
  112MOL   O13335875   1.488   0.437   6.386  0.0908 -0.5221 -0.1126
  112MOL   N13435876   1.360   0.448   6.200 -0.8063 -0.5684 -0.3824
  112MOL   C13535877   1.461   0.531   6.129 -0.4142 -0.9056  0.3547
  112MOL   C13635878   1.230   0.440   6.133  0.0897 -0.4065  0.0550
  112MOL   H13735879   1.258   0.095   6.446  0.3663 -0.0760  1.2715
  112MOL   H13835880   1.423   0.156   6.468  0.3048 -0.0338 -1.4687
  112MOL   H13935881   1.195   0.306   6.349  0.5584 -0.2381 -1.2337
  112MOL   H14035882   1.456   0.534   6.020 -0.5444 -1.1311  0.3523
  112MOL   H14135883   1.461   0.634   6.164 -0.0570 -0.6998 -0.2457
  112MOL   H14235884   1.556   0.484   6.155  0.3836  0.3397 -0.3049
  112MOL   H14335885   1.213   0.333   6.124  0.2697 -0.3630 -0.8218
  112MOL   H14435886   1.231   0.488   6.035 -1.1556 -1.4948 -0.5187
  112MOL   H14535887   1.149   0.477   6.197 -0.2292 -0.5957 -0.2352
  112MOL   C14635888   1.244   0.344   6.541  0.3732  0.0318  0.3099
  112MOL   C14735889   1.179   0.487   6.583 -0.3440 -0.1827 -0.0124
  112MOL   C14835890   1.086   0.555   6.478  0.6037 -0.0966 -0.3906
  112MOL   O14935891   1.132   0.638   6.396  0.1453 -0.0470  0.0080
  112MOL   N15035892   0.952   0.525   6.479 -0.1340  0.1507 -0.3206
  112MOL   C15135893   0.852   0.601   6.404  0.2404 -0.2692  1.3283
  112MOL   C15235894   0.890   0.409   6.557 -0.1337  0.0431  0.1586
  112MOL   H15335895   1.184   0.262   6.580 -0.8094 -0.1698 -1.8530
  112MOL   H15435896   1.332   0.321   6.602  1.5314 -0.9170 -1.6655
  112MOL   H15535897   1.119   0.471   6.672  0.0856  1.0610  0.5077
  112MOL   H15635898   0.865   0.709   6.411 -1.2393  0.0862 -0.8636
  112MOL   H15735899   0.865   0.575   6.299  1.2024 -0.5112  1.5019
  112MOL   H15835900   0.753   0.583   6.445 -0.2472  0.3384  0.4271
  112MOL   H15935901   0.814   0.344   6.514 -1.3642  2.4710 -1.3912
  112MOL   H16035902   0.852   0.454   6.648  0.1834  1.9647 -0.6464
  112MOL   H16135903   0.973   0.342   6.582  1.2231  1.4348 -0.5501
  112MOL   C16235904   1.285   0.589   6.632 -0.0351 -0.7991  0.3747
  112MOL   C16335905   1.261   0.740   6.658 -0.3484 -0.0417 -0.1809
  112MOL   C16435906   1.405   0.812   6.661  0.0590 -0.9625  0.1007
  112MOL   O16535907   1.487   0.806   6.753 -0.0578 -0.0968  0.3354
  112MOL   N16635908   1.438   0.898   6.556  0.4676 -0.5710 -0.6310
  112MOL   C16735909   1.393   0.894   6.417 -0.8148  0.1469  0.0830
  112MOL   C16835910   1.525   1.016   6.586  0.6201 -0.4089 -0.1572
  112MOL   H16935911   1.341   0.544   6.714  1.0112 -2.6415 -1.3006
  112MOL   H17035912   1.361   0.583   6.553 -0.3291  1.3267 -0.0977
  112MOL   H17135913   1.200   0.785   6.580  0.5188  0.1874 -0.7305
  112MOL   H17235914   1.468   0.912   6.340  0.9581  0.2964  1.8381
  112MOL   H17335915   1.341   0.800   6.394  0.5294 -1.1290  2.1253
  112MOL   H17435916   1.314   0.967   6.397 -1.1344 -0.1336  0.3110
  112MOL   H17535917   1.507   1.062   6.683 -1.5060  0.2597 -0.8368
  112MOL   H17635918   1.516   1.090   6.506  0.1348 -0.1127  0.1715
  112MOL   H17735919   1.630   0.991   6.600  0.9327  0.9291 -0.0712
  112MOL   C17835920   1.184   0.763   6.791  0.2470  0.4640  0.2284
  112MOL   C17935921   1.094   0.892   6.802 -0.4042 -0.3212  0.0055
  112MOL   C18035922   1.173   1.025   6.767 -0.1090  0.3646  0.2982
  112MOL   O18135923   1.249   1.061   6.854 -0.2750  0.2505 -0.0897
  112MOL   N18235924   1.160   1.095   6.650  0.6869  0.6126  0.1182
  112MOL   C18335925   1.222   1.228   6.636 -0.0728 -0.9449  0.1773
  112MOL   C18435926   1.053   1.066   6.551 -0.0256 -0.1696 -0.4603
  112MOL   H18535927   1.131   0.671   6.818  1.2476 -0.2698 -0.3118
  112MOL   H18635928   1.255   0.764   6.873 -0.2640  1.0345  0.6749
  112MOL   H18735929   1.018   0.873   6.727  0.7882  0.5138 -1.4303
  112MOL   H18835930   1.150   1.309   6.623  1.6691  1.1520  3.1648
  112MOL   H18935931   1.267   1.257   6.730 -2.3570 -1.7675  1.5688
  112MOL   H19035932   1.286   1.238   6.548 -1.8552 -0.2710 -1.0711
  112MOL   H19135933   1.039   1.152   6.486  0.4520 -0.8138 -1.4318
  112MOL   H19235934   0.956   1.052   6.599  0.8338  1.9553  2.0590
  112MOL   H19335935   1.064   0.973   6.495  1.1227 -0.1206 -0.3459
  112MOL   C19435936   1.037   0.907   6.948  0.6595  0.3807 -0.2436
  112MOL   C19535937   0.922   0.813   6.969 -0.0503  0.3486  0.3421
  112MOL   C19635938   0.786   0.888   6.944  0.5612 -0.3661 -0.8717
  112MOL   O19735939   0.756   0.973   7.032 -0.7721 -0.5962  0.1225
  112MOL   N19835940   0.708   0.864   6.837 -0.2306 -0.1545 -0.1617
  112MOL   C19935941   0.582   0.938   6.818  0.3599  0.4744  0.0328
  112MOL   C20035942   0.736   0.774   6.729 -0.1986  0.5733  0.4449
  112MOL   H20135943   1.115   0.903   7.024  0.9684 -2.2361 -0.6604
  112MOL   H20235944   1.018   1.011   6.975 -1.1749  0.2447 -0.8770
  112MOL   H20335945   0.931   0.726   6.905  1.9398 -0.3787  1.5698
  112MOL   H20435946   0.526   0.972   6.905  2.3039  0.2998  1.3806
  112MOL   H20535947   0.600   1.030   6.763  1.6330  0.1742 -0.0456
  112MOL   H20635948   0.507   0.877   6.766 -0.8375  1.5535  0.4556
  112MOL   H20735949   0.759   0.817   6.631  1.4562 -3.0663 -0.8800
  112MOL   H20835950   0.649   0.711   6.714 -0.5231  1.3146 -0.8972
  112MOL   H20935951   0.826   0.712   6.739 -1.2321 -1.0855 -0.3368
  112MOL   C21035952   0.931   0.747   7.113  0.1728 -0.0155  0.0670
  112MOL   C21135953   0.835   0.628   7.135  0.4480  0.4488  0.2542
  112MOL   C21235954   0.868   0.565   7.275 -0.4601  0.2843 -0.2770
  112MOL   O21335955   0.942   0.471   7.283 -0.0361  0.4933  0.0628
  112MOL   N21435956   0.816   0.613   7.396  0.3883 -0.8262 -0.3907
  112MOL   C21535957   0.720   0.724   7.401 -0.5580  0.0317 -0.3818
  112MOL   C21635958   0.847   0.559   7.527 -0.0299 -0.0168  0.3058
  112MOL   H21735959   1.034   0.710   7.120  0.0911 -0.1170  0.8631
  112MOL   H21835960   0.916   0.823   7.190 -0.3576  0.4945 -0.5300
  112MOL   H21935961   0.736   0.675   7.137  0.5160  0.6080 -0.1494
  112MOL   H22035962   0.629   0.689   7.352  0.0116  0.6527 -1.9188
  112MOL   H22135963   0.706   0.754   7.505 -1.1316 -0.2827 -0.3635
  112MOL   H22235964   0.750   0.811   7.343  1.1132 -1.0028 -1.1064
  112MOL   H22335965   0.767   0.518   7.589 -0.8853  2.5040  0.9465
  112MOL   H22435966   0.899   0.645   7.571 -0.4422 -0.0342  0.8353
  112MOL   H22535967   0.925   0.484   7.522  0.3012  0.3825 -0.5022
  112MOL   C22635968   0.834   0.519   7.029 -0.1921 -0.5381 -1.2867
  112MOL   C22735969   0.732   0.410   7.032 -0.3989  0.3729 -0.8773
  112MOL   C22835970   0.754   0.310   6.916  0.5844  0.3262 -0.7676
  112MOL   O22935971   0.709   0.337   6.806 -0.4242  0.5656 -0.3337
  112MOL   N23035972   0.829   0.202   6.939 -0.0083 -0.7160 -0.5852
  112MOL   C23135973   0.868   0.126   6.823  0.0395  0.2331 -0.2880
  112MOL   C23235974   0.872   0.158   7.068 -0.4812 -0.2892  0.1806
  112MOL   H23335975   0.820   0.557   6.928 -1.4519  1.4588 -0.3981
  112MOL   H23435976   0.934   0.477   7.031  0.0096 -0.0628 -1.1304
  112MOL   H23535977   0.747   0.368   7.132  3.6616 -2.5440 -2.5857
  112MOL   H23635978   0.877   0.020   6.847  0.0199 -0.1567 -1.9316
  112MOL   H23735979   0.801   0.148   6.740  1.0310  2.8035 -0.4401
  112MOL   H23835980   0.965   0.153   6.783  0.8686  0.7328  1.9919
  112MOL   H23935981   0.941   0.230   7.111 -0.5603 -0.0731 -0.0591
  112MOL   H24035982   0.922   0.061   7.057  2.0596  1.0099 -0.1148
  112MOL   H24135983   0.791   0.144   7.140 -0.1166 -0.6986  0.5164
  112MOL   C24235984   0.586   0.466   7.021 -0.5477  0.1258  0.3163
  112MOL   C24335985   0.514   0.453   7.157  1.3867  0.3179 -0.2620
  112MOL   C24435986   0.468   0.298   7.164  0.4345 -0.0666  0.2187
  112MOL   O24535987   0.426   0.242   7.068 -0.6352  0.4939  0.0990
  112MOL   N24635988   0.474   0.237   7.284  0.0704  0.2833 -0.1098
  112MOL   C24735989   0.508   0.307   7.416  0.1652 -0.0018 -0.9522
  112MOL   C24835990   0.468   0.091   7.296  0.4549  0.1173  0.0991
  112MOL   H24935991   0.604   0.571   6.998 -1.7413  0.5892  1.4125
  112MOL   H25035992   0.523   0.447   6.934 -2.4287  0.5638  1.5527
  112MOL   H25135993   0.581   0.481   7.239  0.6311 -0.7034  0.7151
  112MOL   H25235994   0.488   0.241   7.500 -0.6974 -0.0893 -1.2222
  112MOL   H25335995   0.616   0.310   7.428 -0.0755  0.3973  1.1293
  112MOL   H25435996   0.466   0.407   7.424  2.3076  0.8159  0.5124
  112MOL   H25535997   0.502   0.060   7.198  1.5498  0.8373  0.2485
  112MOL   H25635998   0.371   0.041   7.296  0.8525 -0.6686 -0.2608
  112MOL   H25735999   0.540   0.060   7.372 -1.9260 -0.0361  2.3629
  112MOL   C25836000   0.410   0.562   7.171 -0.6058  0.6226 -0.6369
  112MOL   C25936001   0.273   0.550   7.096  0.0722  0.3168 -0.3742
  112MOL   C26036002   0.289   0.570   6.944  0.8007 -0.1397 -0.5074
  112MOL   O26136003   0.342   0.673   6.903 -0.2502 -0.1840 -0.1194
  112MOL   N26236004   0.231   0.473   6.863 -0.5575  0.9010 -0.1495
  112MOL   C26336005   0.240   0.483   6.715  0.3584  0.0244  0.5469
  112MOL   C26436006   0.141   0.360   6.905  0.4035 -0.0966 -0.3136
  112MOL   H26536007   0.396   0.576   7.278  0.8373  1.0794 -0.4982
  112MOL   H26636008   0.449   0.660   7.141  1.4335  0.5959  1.7342
  112MOL   H26736009   0.233   0.448   7.107 -1.5196  1.0826  1.1913
  112MOL   H26836010   0.175   0.562   6.679 -0.3387 -0.4350  0.7930
  112MOL   H26936011   0.345   0.511   6.700  0.6661 -1.0105  0.7242
  112MOL   H27036012   0.205   0.391   6.668 -2.8117  2.0540 -1.2361
  112MOL   H27136013   0.076   0.406   6.979  1.0163  0.9079 -0.3958
  112MOL   H27236014   0.193   0.283   6.962 -1.2024 -0.2243  1.0108
  112MOL   H27336015   0.077   0.313   6.830  0.1180  0.1904 -0.2479
  112MOL   C27436016   0.158   0.637   7.161 -0.1667  0.7480  0.2248
  112MOL   C27536017   0.197   0.788   7.170 -0.1840  1.1726  0.6404
  112MOL   C27636018   0.260   0.829   7.304 -0.2613  0.3181 -0.0727
  112MOL   O27736019   0.200   0.793   7.404 -0.2182  0.0455 -0.5545
  112MOL   N27836020   0.362   0.916   7.315  0.8147 -0.0424 -0.1193
  112MOL   C27936021   0.427   0.965   7.198  0.1358  0.2916  1.3288
  112MOL   C28036022   0.404   0.985   7.434 -0.1220 -0.5646  0.3643
  112MOL   H28136023   0.066   0.632   7.103 -1.0921 -0.5246  1.7992
  112MOL   H28236024   0.131   0.595   7.257 -0.6228 -0.9053 -0.5986
  112MOL   H28336025   0.255   0.810   7.080 -0.5258  0.0113  0.1278
  112MOL   H28436026   0.516   1.026   7.212  0.6347  0.0022 -0.4683
  112MOL   H28536027   0.458   0.880   7.138 -1.4376  1.1709 -0.7904
  112MOL   H28636028   0.354   1.021   7.139 -0.0785 -2.3794 -0.9993
  112MOL   H28736029   0.393   0.908   7.511 -1.4976 -2.0350 -1.2641
  112MOL   H28836030   0.339   1.071   7.448  2.6595  1.9123 -1.4074
  112MOL   H28936031   0.509   1.015   7.425 -0.0314 -0.7795  0.6999
  112MOL   C29036032   0.063   0.874   7.148 -0.2066 -0.1010 -0.4941
  112MOL   C29136033   7.846   0.879   7.013  0.2946 -0.3757 -0.1267
  112MOL   C29236034   0.084   0.944   6.901 -0.0754 -0.0990 -0.4114
  112MOL   O29336035   0.142   1.050   6.921 -0.2762 -0.0498 -0.5414
  112MOL   N29436036   0.095   0.884   6.774 -0.8397 -0.6841 -0.6978
  112MOL   C29536037   0.016   0.770   6.742  0.0600  0.4289 -0.0177
  112MOL   C29636038   0.182   0.951   6.672  0.3860  0.2820  0.1635
  112MOL   H29736039   7.848   0.844   7.227 -0.0207  2.9840  0.9095
  112MOL   H29836040   0.087   0.976   7.177 -2.8065 -0.0863  1.7844
  112MOL   H29936041   7.822   0.778   6.982  0.3251 -0.1116 -1.0480
  112MOL   H30036042   0.038   0.693   6.816 -2.4056  0.2052  0.5563
  112MOL   H30136043   7.762   0.790   6.749  0.0200  1.0306 -2.1641
  112MOL   H30236044   0.031   0.728   6.643  1.6384 -2.0077  1.2039
  112MOL   H30336045   0.210   0.883   6.593  1.2160 -1.7824  2.1763
  112MOL   H30436046   0.273   1.001   6.706  0.3950 -0.3387  1.0730
  112MOL   H30536047   0.133   1.041   6.635  0.2140 -0.8776 -2.5032
  112MOL   C30636048   7.702   0.953   7.017 -0.0844 -0.6762  0.0071
  112MOL   C30736049   7.720   1.101   7.047  0.1246 -0.3828  0.9979
  112MOL   C30836050   7.578   1.167   7.044 -0.1852 -0.8135  0.5783
  112MOL   O30936051   7.478   1.100   7.019 -0.1396 -0.1909 -0.1372
  112MOL   N31036052   7.565   1.292   7.081  0.4573 -0.0498  0.1338
  112MOL   C31136053   7.435   1.357   7.073 -0.5478  0.2250  0.2693
  112MOL   C31236054   7.675   1.385   7.103  0.5149 -0.1732 -0.1342
  112MOL   H31336055   7.659   0.947   6.917 -0.9057 -1.2489  0.3873
  112MOL   H31436056   7.637   0.904   7.089 -0.0942  0.9780  1.1567
  112MOL   H31536057   7.755   1.108   7.150  3.7359  0.1391 -0.1691
  112MOL   H31636058   7.357   1.289   7.106  0.6082 -1.1006  0.3654
  112MOL   H31736059   7.433   1.456   7.117  1.2977  1.0887 -1.4589
  112MOL   H31836060   7.418   1.376   6.967 -1.1366  0.0585  0.3339
  112MOL   H31936061   7.768   1.334   7.129  1.2362  0.4096 -1.5171
  112MOL   H32036062   7.652   1.454   7.184  1.2770  0.8671 -0.7846
  112MOL   H32136063   7.691   1.450   7.017 -0.4153  1.2838  0.7755
  112MOL   H32236064   7.796   1.148   6.985 -0.6266  0.6719  0.8599
  113MOL     C136065   6.991   5.533   5.411 -0.6676 -0.3756  0.7035
  113MOL     C236066   7.092   5.429   5.449 -0.2215  0.7368  0.5110
  113MOL     C336067   7.078   5.307   5.362 -0.0778 -0.4729 -0.1141
  113MOL     O436068   6.981   5.240   5.380  0.0390  0.2776 -0.5870
  113MOL     N536069   7.167   5.278   5.262  0.0813  0.2587 -0.0377
  113MOL     C636070   7.270   5.370   5.215 -0.0505  0.3601 -1.0194
  113MOL     C736071   7.149   5.158   5.180 -0.1649 -1.3214 -0.2253
  113MOL     H836072   7.008   5.577   5.312  2.5676  0.6910  1.6686
  113MOL     H936073   6.984   5.615   5.482  1.4501  1.0975 -0.7203
  113MOL    H1036074   7.186   5.483   5.435  0.0578 -0.2590 -1.8857
  113MOL    H1136075   7.358   5.361   5.279 -1.4291  0.2057  0.8774
  113MOL    H1236076   7.296   5.341   5.113 -0.9092 -1.5598 -0.7194
  113MOL    H1336077   7.228   5.470   5.216 -0.5077  0.1750 -1.6119
  113MOL    H1436078   7.212   5.162   5.092 -1.6490  0.5577 -1.2475
  113MOL    H1536079   7.049   5.145   5.139  0.3212 -0.2292 -1.7826
  113MOL    H1636080   7.159   5.069   5.243 -1.0391 -0.7210  0.7827
  113MOL    H1736081   6.894   5.486   5.396 -1.9805  2.2195  0.8873
  113MOL    C1836082   7.094   5.395   5.598 -0.1865 -0.0419 -0.0753
  113MOL    C1936083   7.195   5.292   5.653  0.2307 -0.1608 -0.2267
  113MOL    C2036084   7.165   5.266   5.802 -0.1611  0.7758 -0.0613
  113MOL    O2136085   7.185   5.348   5.891 -0.1811 -0.1366 -0.2996
  113MOL    N2236086   7.104   5.153   5.842  0.1856  0.5354  0.3868
  113MOL    C2336087   7.118   5.088   5.971  0.1740  0.1050  0.5133
  113MOL    C2436088   7.042   5.063   5.744  1.0754  0.1875 -0.7648
  113MOL    H2536089   7.108   5.489   5.652 -0.6103  0.4954 -0.8903
  113MOL    H2636090   6.993   5.369   5.631 -0.3276 -0.8430 -1.1071
  113MOL    H2736091   7.178   5.203   5.592  0.3841 -0.3234 -0.0347
  113MOL    H2836092   7.144   4.986   5.944 -0.7450 -0.5468  2.0410
  113MOL    H2936093   7.201   5.120   6.035  0.5832  0.7467 -0.3243
  113MOL    H3036094   7.030   5.098   6.034  1.1939  0.2151  1.9625
  113MOL    H3136095   6.977   5.111   5.671 -0.8256  0.7666  1.2462
  113MOL    H3236096   6.968   4.992   5.781 -0.0696  1.7257 -0.0367
  113MOL    H3336097   7.111   5.011   5.677  1.0802  1.6418 -1.9257
  113MOL    C3436098   7.342   5.344   5.644 -0.3516  0.2260 -0.4709
  113MOL    C3536099   7.458   5.249   5.705 -0.3361 -0.2154  0.0040
  113MOL    C3636100   7.590   5.325   5.677 -0.3173 -0.1537  0.1540
  113MOL    O3736101   7.617   5.350   5.556 -0.0924  0.1739 -0.4968
  113MOL    N3836102   7.670   5.373   5.779  0.7228 -0.0054  0.2565
  113MOL    C3936103   7.645   5.369   5.922 -0.3567  0.0803 -0.4535
  113MOL    C4036104   7.802   5.435   5.744  0.1194 -0.1641  0.9628
  113MOL    H4136105   7.357   5.358   5.537  1.1101  1.4285 -0.1275
  113MOL    H4236106   7.354   5.438   5.698 -0.6400 -0.2451  0.4400
  113MOL    H4336107   7.450   5.243   5.813  2.3520 -1.7597  0.1651
  113MOL    H4436108   7.648   5.269   5.966  0.2165  1.1292  1.9324
  113MOL    H4536109   7.707   5.431   5.987 -0.5781  1.7463 -1.8015
  113MOL    H4636110   7.542   5.394   5.946 -0.4719 -0.2293 -0.6111
  113MOL    H4736111   0.024   5.358   5.729  0.2453  0.2233 -0.4274
  113MOL    H4836112   7.844   5.496   5.824 -0.8076 -0.3462  1.6008
  113MOL    H4936113   7.802   5.485   5.648  0.7115 -1.0110  0.5155
  113MOL    C5036114   7.460   5.110   5.648 -0.2153 -0.2714 -0.2825
  113MOL    C5136115   7.539   5.004   5.734  0.4714  0.0289 -0.2855
  113MOL    C5236116   7.490   4.979   5.884  0.0026 -0.1613  0.1516
  113MOL    O5336117   7.536   5.045   5.978 -0.1397 -0.3012  0.4334
  113MOL    N5436118   7.408   4.871   5.907  0.0209 -0.4244 -0.0267
  113MOL    C5536119   7.330   4.791   5.803 -0.3671 -0.0623  0.0401
  113MOL    C5636120   7.369   4.822   6.038  0.4422  0.3367  0.0789
  113MOL    H5736121   7.357   5.075   5.646 -1.0877  2.1437  0.9156
  113MOL    H5836122   7.490   5.122   5.544 -0.2789 -2.2243 -0.5612
  113MOL    H5936123   7.511   4.910   5.685  0.0809 -0.0924  0.1605
  113MOL    H6036124   7.305   4.850   5.715 -0.4230  1.9845  1.3764
  113MOL    H6136125   7.393   4.708   5.773 -0.6175  0.5295 -2.1782
  113MOL    H6236126   7.233   4.751   5.835  0.4339 -0.7272  1.6576
  113MOL    H6336127   7.420   4.731   6.069 -0.3632  0.8643  3.1610
  113MOL    H6436128   7.265   4.797   6.062 -0.3238  1.1446 -2.3070
  113MOL    H6536129   7.385   4.898   6.115  0.1396  1.2192 -0.7231
  113MOL    C6636130   7.693   5.030   5.719  0.1692  0.0040  0.2249
  113MOL    C6736131   7.796   4.911   5.719 -0.4725 -0.1578 -0.5809
  113MOL    C6836132   7.780   4.798   5.619  0.1256 -0.3477 -0.0890
  113MOL    O6936133   7.672   4.744   5.612  0.0922  0.1235 -0.4007
  113MOL    N7036134   0.032   4.752   5.550  0.0719 -0.2377 -0.5585
  113MOL    C7136135   0.173   4.796   5.557  0.1639  0.2361 -0.4639
  113MOL    C7236136   0.016   4.644   5.453  0.8556 -0.0480  0.3962
  113MOL    H7336137   7.706   5.072   5.619  2.3050 -0.0490  0.4640
  113MOL    H7436138   7.720   5.108   5.790  0.9428 -0.3413  0.3176
  113MOL    H7536139   0.035   4.955   5.683 -0.4822 -0.4150 -0.9184
  113MOL    H7636140   0.200   4.830   5.657 -0.2249  1.2907 -0.7063
  113MOL    H7736141   0.251   4.725   5.530  1.2766  0.2561  2.4719
  113MOL    H7836142   0.171   4.883   5.492 -1.3465 -0.5963 -1.5720
  113MOL    H7936143   0.010   4.684   5.352 -0.6816  0.1232  0.5452
  113MOL    H8036144   7.779   4.583   5.461 -0.2754  1.4064 -0.8945
  113MOL    H8136145   0.097   4.571   5.460  2.0519  1.3506  1.5041
  113MOL    C8236146   7.819   4.867   5.868 -0.0590 -0.7370 -0.3511
  113MOL    C8336147   0.050   4.977   5.953  0.0457 -0.3987 -0.3077
  113MOL    C8436148   0.204   4.981   5.909  0.4237 -0.1990 -0.4341
  113MOL    O8536149   0.266   4.871   5.909 -0.3990 -0.4356 -0.3276
  113MOL    N8636150   0.264   5.092   5.860  0.3303 -0.3035 -0.1629
  113MOL    C8736151   0.390   5.076   5.787  0.0038  0.3557  0.4663
  113MOL    C8836152   0.246   5.235   5.892  0.0058 -0.1336 -0.2194
  113MOL    H8936153   7.722   4.848   5.914 -0.7307  1.1366 -0.9413
  113MOL    H9036154   0.026   4.777   5.872  3.2190  1.4431  1.9874
  113MOL    H9136155   0.010   5.079   5.948  1.6965  0.3108  0.6399
  113MOL    H9236156   0.439   5.165   5.746 -0.0302  0.1315 -0.0767
  113MOL    H9336157   0.467   5.023   5.842 -0.5214 -2.4851 -1.4036
  113MOL    H9436158   0.371   5.015   5.698 -0.3274 -2.6954  2.5476
  113MOL    H9536159   0.229   5.278   5.793 -1.6290 -2.8418 -1.1851
  113MOL    H9636160   0.329   5.281   5.944 -1.6091  2.2891  0.3219
  113MOL    H9736161   0.156   5.247   5.952 -0.9572  0.1712 -1.6813
  113MOL    C9836162   0.044   4.946   6.110  0.1203 -0.0757  0.3952
  113MOL    C9936163   0.133   5.022   6.211 -0.2641 -0.7352 -0.0257
  113MOL   C10036164   0.253   4.942   6.265 -0.7563  0.0032 -0.2265
  113MOL   O10136165   0.224   4.838   6.320 -0.3092  0.2200 -0.0797
  113MOL   N10236166   0.380   4.973   6.233  0.3788  0.0985  0.2398
  113MOL   C10336167   0.483   4.868   6.250 -0.2770 -0.4597  0.0063
  113MOL   C10436168   0.429   5.105   6.198  1.2475 -0.2079 -0.3662
  113MOL   H10536169   7.796   4.940   6.148 -0.2390 -0.4216 -0.5934
  113MOL   H10636170   0.078   4.843   6.113  0.5840 -0.1460 -3.5270
  113MOL   H10736171   0.168   5.114   6.164  0.7128 -0.5529  1.0329
  113MOL   H10836172   0.448   4.774   6.208 -0.8909 -1.2014  2.0830
  113MOL   H10936173   0.569   4.895   6.189 -1.5737  0.3734 -1.4761
  113MOL   H11036174   0.507   4.845   6.354  0.4274 -0.1793 -0.0938
  113MOL   H11136175   0.538   5.107   6.202  1.2572 -1.4232  0.3894
  113MOL   H11236176   0.385   5.179   6.264 -0.0297 -0.3832 -1.0150
  113MOL   H11336177   0.399   5.141   6.100 -1.3139  2.0404  1.1974
  113MOL   C11436178   0.047   5.073   6.331  0.5245  0.4673  0.3902
  113MOL   C11536179   0.090   5.200   6.402  0.3558  0.3699  0.3019
  113MOL   C11636180   0.040   5.190   6.547  0.0080 -0.0330 -0.2861
  113MOL   O11736181   7.776   5.199   6.572  0.6566 -0.6198 -0.3853
  113MOL   N11836182   0.128   5.151   6.650 -0.4288  0.1232 -0.1482
  113MOL   C11936183   0.071   5.138   6.782  0.7424 -0.6274  0.3107
  113MOL   C12036184   0.264   5.109   6.630  0.5823  0.1758 -0.0216
  113MOL   H12136185   7.797   5.087   6.300  1.1931 -0.4421 -2.4480
  113MOL   H12236186   0.033   4.991   6.401 -1.7108  0.2673 -0.2592
  113MOL   H12336187   0.199   5.204   6.408  0.4176 -1.5272  0.9489
  113MOL   H12436188   0.113   5.214   6.849 -1.3873  1.3884 -0.5704
  113MOL   H12536189   7.816   5.152   6.783  0.5372 -1.9564 -1.4176
  113MOL   H12636190   0.087   5.034   6.810 -1.8627 -0.9562  0.6599
  113MOL   H12736191   0.286   5.053   6.539  0.7686 -0.5111  0.4376
  113MOL   H12836192   0.292   5.038   6.709  0.9608 -0.8491 -1.0550
  113MOL   H12936193   0.329   5.194   6.647  0.4954  0.6485 -1.9900
  113MOL   C13036194   0.053   5.327   6.313 -0.1944 -0.2032  0.9438
  113MOL   C13136195   7.845   5.445   6.393  0.3333 -0.1710 -0.4061
  113MOL   C13236196   7.796   5.554   6.295  0.5920 -0.1224  0.1148
  113MOL   O13336197   0.007   5.575   6.193  0.0807 -0.3556  0.1515
  113MOL   N13436198   7.682   5.617   6.320 -0.0298  0.3851 -0.5575
  113MOL   C13536199   7.596   5.595   6.436  0.1433  0.0457 -0.3611
  113MOL   C13636200   7.648   5.718   6.223  0.5994  0.8957  0.5894
  113MOL   H13736201   0.138   5.361   6.253 -1.3985 -0.4746 -0.9553
  113MOL   H13836202   7.837   5.296   6.235 -1.6552  1.9664  1.3222
  113MOL   H13936203   7.760   5.401   6.445 -0.2587 -0.6545 -1.7674
  113MOL   H14036204   7.642   5.581   6.534  0.6874  0.6095 -0.5379
  113MOL   H14136205   7.528   5.679   6.449 -1.0496 -0.7294 -1.4837
  113MOL   H14236206   7.535   5.507   6.415 -0.1419 -0.3367  1.8779
  113MOL   H14336207   7.556   5.775   6.239  0.6223  0.5414  2.0431
  113MOL   H14436208   7.627   5.680   6.123 -0.7710 -1.1112  1.6004
  113MOL   H14536209   7.730   5.789   6.230  1.8830 -0.0153 -3.5396
  113MOL   C14636210   0.087   5.516   6.492 -0.4340  0.0564  0.4636
  113MOL   C14736211   0.202   5.617   6.446 -0.2048 -0.1776  0.4084
  113MOL   C14836212   0.317   5.531   6.387 -0.5212 -0.1794 -0.1773
  113MOL   O14936213   0.357   5.443   6.461  0.3488  0.5586  0.4192
  113MOL   N15036214   0.364   5.558   6.261  0.1331 -0.1282 -0.2312
  113MOL   C15136215   0.448   5.465   6.198 -0.1039 -0.4602  0.1215
  113MOL   C15236216   0.351   5.685   6.184  0.5920 -1.0471  0.6200
  113MOL   H15336217   0.026   5.581   6.556 -2.4644 -0.1034 -1.2314
  113MOL   H15436218   0.137   5.446   6.558  1.5341 -0.2182 -1.2472
  113MOL   H15536219   0.150   5.682   6.375 -0.7326 -1.9768 -0.8718
  113MOL   H15636220   0.398   5.402   6.125  0.1227  0.5181 -0.8962
  113MOL   H15736221   0.527   5.514   6.141  1.3400 -0.6241  1.9621
  113MOL   H15836222   0.492   5.393   6.266  1.1018 -1.6253 -1.8453
  113MOL   H15936223   0.379   5.765   6.252 -1.4687  0.2226  0.0041
  113MOL   H16036224   0.253   5.703   6.139  1.2474  0.0330 -0.3856
  113MOL   H16136225   0.423   5.687   6.103 -1.5753 -0.8826 -1.3718
  113MOL   C16236226   0.252   5.714   6.548 -0.0793  0.4257  0.1521
  113MOL   C16336227   0.165   5.838   6.587  0.7230  0.1434 -0.1061
  113MOL   C16436228   0.163   5.937   6.468 -0.0772 -0.1199 -0.2955
  113MOL   O16536229   0.266   5.993   6.440  0.0712  0.2791 -0.3386
  113MOL   N16636230   0.049   5.966   6.396 -0.2046  0.3985  0.2014
  113MOL   C16736231   0.055   6.054   6.283  0.3346 -0.2028 -0.4477
  113MOL   C16836232   7.770   5.949   6.456 -0.1805 -0.1216  0.4423
  113MOL   H16936233   0.282   5.667   6.641  1.7140  1.0965 -0.0616
  113MOL   H17036234   0.352   5.749   6.520 -0.0156 -0.6400 -1.0202
  113MOL   H17136235   0.066   5.794   6.600  0.4716  1.1198  1.3825
  113MOL   H17236236   0.129   6.026   6.208 -1.2019 -0.3344 -1.9592
  113MOL   H17336237   7.813   6.060   6.230 -0.3125 -1.9551  0.4779
  113MOL   H17436238   0.072   6.159   6.306 -0.0805 -0.5311  1.4225
  113MOL   H17536239   7.750   5.844   6.480  1.5674 -0.1038  2.1300
  113MOL   H17636240   7.694   5.989   6.389  1.0384  2.2479  0.4531
  113MOL   H17736241   7.746   6.007   6.545 -0.5074  1.9936 -1.0073
  113MOL   C17836242   0.208   5.891   6.724 -0.2327  0.1390 -0.3744
  113MOL   C17936243   0.129   6.011   6.789  0.2658  0.6514  0.6560
  113MOL   C18036244   0.222   6.064   6.897 -0.8552 -0.0058 -0.2392
  113MOL   O18136245   0.214   6.018   7.011 -0.3710 -0.0061 -0.1679
  113MOL   N18236246   0.319   6.156   6.865 -0.3678  0.5038  0.4443
  113MOL   C18336247   0.452   6.153   6.932  0.0233  0.2683 -0.3746
  113MOL   C18436248   0.317   6.228   6.735  0.5617  0.0798 -0.0965
  113MOL   H18536249   0.194   5.806   6.790 -1.8116  1.1333  0.6111
  113MOL   H18636250   0.316   5.904   6.732 -0.2965  1.5424 -1.5182
  113MOL   H18736251   0.094   6.090   6.722  0.6826  1.0724  0.9321
  113MOL   H18836252   0.518   6.075   6.893 -0.8877 -0.8564  0.3179
  113MOL   H18936253   0.503   6.249   6.923 -0.2628  0.6721  2.1156
  113MOL   H19036254   0.438   6.125   7.036  1.6471 -1.0347 -0.4743
  113MOL   H19136255   0.392   6.307   6.738  1.6503 -0.9481 -0.1241
  113MOL   H19236256   0.217   6.265   6.713  0.9402  0.6336 -0.9310
  113MOL   H19336257   0.343   6.160   6.654  0.5837  0.9887 -0.8646
  113MOL   C19436258   7.839   5.969   6.835 -0.7497 -1.1637 -0.3919
  113MOL   C19536259   7.824   5.850   6.931  0.0310  0.5796 -0.0410
  113MOL   C19636260   7.791   5.715   6.860  0.0979  0.1963  0.2544
  113MOL   O19736261   7.720   5.727   6.759  0.0171 -0.6357  0.8348
  113MOL   N19836262   7.845   5.600   6.901  0.3581  0.4255 -0.4009
  113MOL   C19936263   0.076   5.588   7.018  0.3805  0.2684 -0.3840
  113MOL   C20036264   7.823   5.472   6.830 -0.4901 -0.8746  0.5233
  113MOL   H20136265   7.793   6.052   6.890  0.0547 -0.3328 -0.9465
  113MOL   H20236266   7.782   5.964   6.743  0.2576 -0.7070 -1.0501
  113MOL   H20336267   0.068   5.837   6.978  0.2370  0.0322 -0.6042
  113MOL   H20436268   0.090   5.484   7.048 -0.2635  0.5359  0.9145
  113MOL   H20536269   0.174   5.629   6.993  0.9857 -2.3468 -2.4492
  113MOL   H20636270   0.028   5.623   7.110 -4.2759  0.6424 -2.8183
  113MOL   H20736271   7.789   5.480   6.727 -1.5640  0.3899  0.9521
  113MOL   H20836272   7.753   5.411   6.886  1.2478 -3.1794  0.2291
  113MOL   H20936273   0.058   5.409   6.824 -0.6340 -1.0855  0.6153
  113MOL   C21036274   7.713   5.860   7.038 -0.5074  0.3216 -0.4068
  113MOL   C21136275   7.741   5.964   7.147  0.3145  0.0932 -0.1623
  113MOL   C21236276   7.731   5.895   7.288 -0.3028  0.3794  0.4950
  113MOL   O21336277   7.623   5.847   7.321 -0.2886  0.1895  0.0288
  113MOL   N21436278   7.843   5.871   7.365  0.6603 -0.0827  0.4766
  113MOL   C21536279   7.837   5.771   7.471 -0.8228 -0.2521 -0.0760
  113MOL   C21636280   0.128   5.912   7.334  0.6210  0.3039  0.6591
  113MOL   H21736281   7.612   5.879   7.001 -1.4080 -2.6762  0.3613
  113MOL   H21836282   7.697   5.763   7.085 -0.3959  0.3437 -0.3257
  113MOL   H21936283   7.840   6.006   7.130 -0.2520  2.3275  1.7767
  113MOL   H22036284   0.072   5.765   7.535 -1.1586  0.1734  0.4345
  113MOL   H22136285   7.752   5.777   7.538 -1.9363 -0.1003 -1.4835
  113MOL   H22236286   7.819   5.672   7.429  0.0481 -1.2555  1.8173
  113MOL   H22336287   0.208   5.869   7.394  1.6698  0.9996 -0.2047
  113MOL   H22436288   0.141   6.021   7.335 -0.7681  0.4880 -0.1555
  113MOL   H22536289   0.154   5.889   7.230  0.2396  2.1789  0.1126
  113MOL   C22636290   7.655   6.086   7.132 -0.0005  0.2878  0.2880
  113MOL   C22736291   7.683   6.219   7.214  0.1211  0.4351 -0.0496
  113MOL   C22836292   7.555   6.305   7.202  0.3938  0.0973  0.9531
  113MOL   O22936293   7.527   6.354   7.091 -0.3382  0.5495  0.1264
  113MOL   N23036294   7.486   6.340   7.312 -0.1957 -0.5760  0.1812
  113MOL   C23136295   7.357   6.412   7.294 -0.2107 -0.5059  0.0261
  113MOL   C23236296   7.516   6.284   7.441  0.2848 -0.4191 -0.1061
  113MOL   H23336297   7.664   6.126   7.030  2.4258 -0.3239  0.2315
  113MOL   H23436298   7.550   6.058   7.141  0.0669  0.0788  0.4257
  113MOL   H23536299   7.698   6.198   7.319 -0.9385 -0.5294 -0.0878
  113MOL   H23636300   7.270   6.354   7.264 -0.8839  1.0457 -1.0538
  113MOL   H23736301   7.324   6.447   7.393 -0.4437 -2.0703  0.5092
  113MOL   H23836302   7.374   6.499   7.230 -0.4675  0.0644  0.7179
  113MOL   H23936303   7.449   6.330   7.514  0.0306 -0.7029 -0.1572
  113MOL   H24036304   7.610   6.320   7.482 -0.4841 -0.6126  1.9335
  113MOL   H24136305   7.509   6.175   7.449 -0.0217 -0.3902  0.0520
  113MOL   C24236306   7.814   6.285   7.152  0.2299  0.1618 -0.0487
  113MOL   C24336307   0.017   6.420   7.210  0.0366 -0.4695 -0.9615
  113MOL   C24436308   7.810   6.535   7.129 -0.4191 -0.1479 -0.3610
  113MOL   O24536309   7.828   6.547   7.009  0.5262  0.0130 -0.6376
  113MOL   N24636310   7.739   6.626   7.193 -0.6686  0.8687  0.1695
  113MOL   C24736311   7.711   6.624   7.335 -0.2236  0.9401 -0.1267
  113MOL   C24836312   7.674   6.740   7.124  0.6722 -0.2673  0.1152
  113MOL   H24936313   0.035   6.206   7.159  2.8220  2.5928  0.9352
  113MOL   H25036314   7.812   6.297   7.044 -1.6703  1.1302  0.0814
  113MOL   H25136315   7.851   6.421   7.317  0.1287 -0.9606 -0.9372
  113MOL   H25236316   7.790   6.665   7.399  1.0877 -1.8338  0.1361
  113MOL   H25336317   7.625   6.685   7.361 -1.4744 -0.6295 -0.4933
  113MOL   H25436318   7.677   6.528   7.374  2.5922 -0.7064 -1.5724
  113MOL   H25536319   7.724   6.764   7.030  0.5866  0.5957  0.2810
  113MOL   H25636320   7.652   6.822   7.192 -0.7271 -1.0586  0.6430
  113MOL   H25736321   7.572   6.724   7.088  0.2003  1.3513  0.6676
  113MOL   C25836322   0.170   6.422   7.190  0.1035  0.9639  0.6040
  113MOL   C25936323   0.250   6.376   7.316 -0.5454  0.8749 -0.0497
  113MOL   C26036324   0.295   6.496   7.404 -0.0263 -0.3270  0.2873
  113MOL   O26136325   0.351   6.603   7.353  0.6378 -0.3483  0.0288
  113MOL   N26236326   0.292   6.476   7.541  0.1098 -0.0126  0.2209
  113MOL   C26336327   0.392   6.541   7.617 -0.7125 -0.3047 -0.1814
  113MOL   C26436328   0.180   6.405   7.614 -0.0089  0.1341  0.3465
  113MOL   H26536329   0.193   6.353   7.109  0.6378 -0.3216  1.8346
  113MOL   H26636330   0.217   6.515   7.156  2.0316 -0.9185 -2.1201
  113MOL   H26736331   0.184   6.304   7.365  0.4144 -1.2913 -1.8982
  113MOL   H26836332   0.415   6.484   7.707 -0.0350  0.8584  0.3929
  113MOL   H26936333   0.481   6.560   7.557 -0.2028 -1.4472  0.1971
  113MOL   H27036334   0.350   6.638   7.641 -0.3849 -0.0941 -0.4609
  113MOL   H27136335   0.205   6.371   7.715 -0.4059  1.8948  1.0470
  113MOL   H27236336   0.128   6.322   7.565 -0.6235  0.2809  0.7386
  113MOL   H27336337   0.101   6.475   7.640  0.0213  0.1827  0.3063
  113MOL   C27436338   0.379   6.304   7.273 -0.2298 -0.6687 -0.8810
  113MOL   C27536339   0.458   6.233   7.382  0.2959  0.1661  0.6180
  113MOL   C27636340   0.595   6.183   7.335  0.0476 -0.0200 -0.4763
  113MOL   O27736341   0.602   6.078   7.275  0.6533 -0.0398 -0.0867
  113MOL   N27836342   0.703   6.267   7.352  0.0228  0.3457  0.0416
  113MOL   C27936343   0.698   6.399   7.421 -0.5480 -0.8384  0.4468
  113MOL   C28036344   0.841   6.217   7.330  0.1919  0.0620 -0.0490
  113MOL   H28136345   0.351   6.227   7.200 -4.0076 -0.7768  0.5701
  113MOL   H28236346   0.434   6.378   7.215  1.3343  0.0739  1.4912
  113MOL   H28336347   0.482   6.312   7.454  0.7720 -1.3201  2.1094
  113MOL   H28436348   0.623   6.464   7.376 -0.5991 -1.2388 -0.0507
  113MOL   H28536349   0.668   6.395   7.526  0.1579 -0.1624  0.6763
  113MOL   H28636350   0.797   6.444   7.421 -0.6118 -0.6908 -0.1140
  113MOL   H28736351   0.860   6.112   7.354 -1.8860  0.1307  2.0856
  113MOL   H28836352   0.915   6.276   7.384  0.6051  0.3947 -0.9729
  113MOL   H28936353   0.863   6.237   7.226  1.0821  0.0645  0.1401
  113MOL   C29036354   0.372   6.122   7.453 -0.7353  0.1703 -0.7664
  113MOL   C29136355   0.429   6.060   7.581 -0.3937  0.1264 -0.2573
  113MOL   C29236356   0.344   5.938   7.623 -0.9383 -0.4396 -0.9590
  113MOL   O29336357   0.221   5.962   7.654 -0.4100  0.2543 -0.3548
  113MOL   N29436358   0.403   5.812   7.633  0.1064  0.0700 -0.3329
  113MOL   C29536359   0.548   5.791   7.608 -0.2371 -0.4960  0.4348
  113MOL   C29636360   0.323   5.712   7.695  0.1031 -0.3763  0.2571
  113MOL   H29736361   0.275   6.164   7.480  0.6242  2.9994 -0.0897
  113MOL   H29836362   0.364   6.039   7.383 -2.6460 -0.7288  0.4403
  113MOL   H29936363   0.532   6.031   7.563 -1.0621 -3.6680  1.4509
  113MOL   H30036364   0.586   5.830   7.513  0.8186 -0.6087  0.8090
  113MOL   H30136365   0.591   5.838   7.696 -1.7746 -0.5909  1.2562
  113MOL   H30236366   0.573   5.686   7.614 -0.0363 -0.3422  2.5782
  113MOL   H30336367   0.391   5.644   7.747 -0.5345 -0.1424  1.4057
  113MOL   H30436368   0.267   5.655   7.621 -0.0746 -1.8042  1.4731
  113MOL   H30536369   0.261   5.751   7.775 -0.3545  3.5175 -1.8697
  113MOL   C30636370   0.447   6.157   7.706  0.3678  0.0099  0.9859
  113MOL   C30736371   0.553   6.107   7.811  0.1775  0.0192  0.3344
  113MOL   C30836372   0.701   6.119   7.769  0.5283 -0.3040  0.1720
  113MOL   O30936373   0.724   6.154   7.658 -0.0453 -0.0785 -0.3141
  113MOL   N31036374   0.796   6.082   7.852 -0.2049 -0.0704 -0.1668
  113MOL   C31136375   0.779   6.044   0.143 -1.0542  0.0180 -1.0069
  113MOL   C31236376   0.933   6.037   7.803  0.0941  0.5456 -0.3592
  113MOL   H31336377   0.479   6.256   7.675 -1.7104  0.4810  0.2919
  113MOL   H31436378   0.349   6.176   7.750  2.0137  2.5951  3.7119
  113MOL   H31536379   0.552   6.160   0.053 -2.3974  1.3367 -0.3734
  113MOL   H31636380   0.859   5.980   0.178 -0.3891  0.6056 -1.4364
  113MOL   H31736381   0.778   6.137   0.199 -2.1763  0.2236 -1.3483
  113MOL   H31836382   0.683   5.992   0.144 -0.9617 -0.1862 -1.8795
  113MOL   H31936383   0.957   5.931   7.807  1.4772  0.8894  0.5298
  113MOL   H32036384   1.001   6.081   0.023 -1.9768 -0.8182  2.4605
  113MOL   H32136385   0.948   6.072   7.701  2.9114 -0.7283 -0.4306
  113MOL   H32236386   0.520   6.005   7.833  0.0420  0.0455  0.2538
  114MOL     C136387   0.511   6.901   6.196 -0.6244 -0.3829  0.5058
  114MOL     C236388   0.378   6.878   6.267 -0.3893  0.3846  1.3252
  114MOL     C336389   0.292   7.004   6.235  0.5172 -0.7592 -1.2586
  114MOL     O436390   0.352   7.115   6.225 -0.5174  0.1811 -0.2206
  114MOL     N536391   0.151   6.985   6.231 -0.0051 -0.9320 -0.5621
  114MOL     C636392   0.075   6.858   6.242  0.3389  0.1001  0.3371
  114MOL     C736393   0.071   7.104   6.194  0.6379  0.3738 -0.4941
  114MOL     H836394   0.494   6.948   6.099 -1.1952 -1.7948 -0.0888
  114MOL     H936395   0.560   6.805   6.178 -2.9458 -1.2027 -1.6561
  114MOL    H1036396   0.337   6.785   6.226  1.2950 -0.4749  1.5014
  114MOL    H1136397   0.095   6.782   6.166  2.6695  0.3938  0.6353
  114MOL    H1236398   0.089   6.809   6.339 -2.5161  0.4490  0.9632
  114MOL    H1336399   7.821   6.878   6.243  0.3126  0.0016 -0.4324
  114MOL    H1436400   0.102   7.206   6.217  0.4602  0.5548 -1.0356
  114MOL    H1536401   7.822   7.091   6.230  0.9490 -2.6475 -0.5530
  114MOL    H1636402   0.046   7.104   6.087  0.1503  2.7413 -0.3970
  114MOL    H1736403   0.565   6.969   6.262 -0.6474 -0.5132  0.6586
  114MOL    C1836404   0.396   6.870   6.418  0.0075 -0.1577  0.4675
  114MOL    C1936405   0.470   6.745   6.473 -0.9283  0.2715  0.0555
  114MOL    C2036406   0.391   6.614   6.446 -0.1333  0.0999  1.0191
  114MOL    O2136407   0.271   6.619   6.442 -0.3867 -0.0747  0.4015
  114MOL    N2236408   0.458   6.494   6.430  0.0728 -0.8747  0.2032
  114MOL    C2336409   0.605   6.482   6.436  0.5698 -0.6645  0.1556
  114MOL    C2436410   0.388   6.372   6.392  0.0576 -0.3701  0.0940
  114MOL    H2536411   0.444   6.961   6.455  1.1684 -0.8353  0.6586
  114MOL    H2636412   0.301   6.876   6.471  0.9743  0.8782  2.1342
  114MOL    H2736413   0.570   6.736   6.431 -1.0828  0.6907 -0.3961
  114MOL    H2836414   0.638   6.378   6.433 -0.7063 -1.0556 -1.1933
  114MOL    H2936415   0.652   6.522   6.345  0.4265 -0.1038  0.3265
  114MOL    H3036416   0.644   6.533   6.524 -0.0560 -0.5162  0.3452
  114MOL    H3136417   0.416   6.287   6.455  1.8087  0.4835  0.5156
  114MOL    H3236418   0.422   6.340   6.294  0.4383  1.0727 -0.2587
  114MOL    H3336419   0.280   6.378   6.394  0.1658  1.5518  0.9383
  114MOL    C3436420   0.481   6.752   6.630 -0.4836 -0.6808  0.2014
  114MOL    C3536421   0.614   6.815   6.684  0.7646 -0.4493 -0.2601
  114MOL    C3636422   0.710   6.704   6.740 -0.0083 -0.6504  0.8571
  114MOL    O3736423   0.670   6.654   6.849  0.4127 -0.4459 -0.0749
  114MOL    N3836424   0.830   6.677   6.685  0.3149 -0.0005 -0.3199
  114MOL    C3936425   0.884   6.728   6.556 -0.0223  0.3414 -0.7823
  114MOL    C4036426   0.919   6.587   6.755 -0.3447  0.7483 -0.0375
  114MOL    H4136427   0.401   6.821   6.655  0.2941  0.4000 -0.2508
  114MOL    H4236428   0.471   6.652   6.673  2.6956  0.4942  4.0548
  114MOL    H4336429   0.665   6.845   6.592 -1.2288 -2.6556 -2.1700
  114MOL    H4436430   0.976   6.681   6.522  0.7593  0.5427  0.9854
  114MOL    H4536431   0.808   6.719   6.478 -1.5654  1.0973  0.5839
  114MOL    H4636432   0.898   6.835   6.574 -1.8649  0.0959  2.7332
  114MOL    H4736433   0.886   6.484   6.741  0.7815  0.0274  2.2865
  114MOL    H4836434   0.917   6.602   6.863 -2.6894  0.1414  0.0386
  114MOL    H4936435   1.024   6.585   6.725  0.3127 -0.4991  2.1876
  114MOL    C5036436   0.600   6.927   6.793  0.4295 -0.6440 -0.0486
  114MOL    C5136437   0.566   7.075   6.758  0.6141  0.3579  0.1750
  114MOL    C5236438   0.688   7.134   6.670 -0.3504 -0.5667 -0.4264
  114MOL    O5336439   0.809   7.101   6.697  0.1701 -0.0744  0.2156
  114MOL    N5436440   0.666   7.219   6.564 -0.0419  0.0022 -0.0133
  114MOL    C5536441   0.535   7.257   6.514 -0.4910  0.6077 -0.0037
  114MOL    C5636442   0.780   7.295   6.502  0.0442 -0.0909 -0.1798
  114MOL    H5736443   0.543   6.879   6.872  0.2528  0.9613  0.7965
  114MOL    H5836444   0.697   6.940   6.842  0.0677 -1.6908  0.9812
  114MOL    H5936445   0.477   7.064   6.695  1.0446  0.1181 -0.3935
  114MOL    H6036446   0.462   7.284   6.590  0.1555  1.3005  0.3735
  114MOL    H6136447   0.542   7.329   6.433  2.0951  0.1079 -0.2602
  114MOL    H6236448   0.492   7.168   6.467  0.0377 -0.2171  1.0641
  114MOL    H6336449   0.834   7.237   6.428 -0.7017 -1.4561  0.3341
  114MOL    H6436450   0.854   7.326   6.576  0.6222  0.8631 -1.1323
  114MOL    H6536451   0.752   7.389   6.454 -0.4733  0.0092  0.3105
  114MOL    C6636452   0.538   7.158   6.889 -1.0748  0.3274  0.3396
  114MOL    C6736453   0.442   7.285   6.877  0.5109  0.4407 -0.1204
  114MOL    C6836454   0.532   7.411   6.847 -0.5998  0.4913  0.0265
  114MOL    O6936455   0.651   7.415   6.867 -0.0615  0.4538  0.8565
  114MOL    N7036456   0.472   7.528   6.797 -0.2532 -0.2971 -1.0403
  114MOL    C7136457   0.345   7.530   6.733  0.4087  0.0474  0.3240
  114MOL    C7236458   0.547   7.655   6.792 -0.2554  0.3847  0.0817
  114MOL    H7336459   0.499   7.077   6.950 -3.3390  0.3045 -1.0461
  114MOL    H7436460   0.634   7.178   6.936 -1.9405 -0.4096  2.4639
  114MOL    H7536461   0.372   7.282   6.793  0.2720 -1.0952  0.1139
  114MOL    H7636462   0.271   7.519   6.813 -0.1437 -0.4565 -0.2498
  114MOL    H7736463   0.314   7.623   6.685 -2.9795 -1.7861 -1.1898
  114MOL    H7836464   0.329   7.456   6.655 -1.3942  1.2769 -0.5158
  114MOL    H7936465   0.630   7.654   6.863 -1.4994 -0.8128  1.5449
  114MOL    H8036466   0.493   7.749   6.808  2.2933  1.5363  2.3695
  114MOL    H8136467   0.587   7.668   6.691 -1.4921  2.7922 -0.1494
  114MOL    C8236468   0.367   7.297   7.007  0.2762  0.0331  0.5588
  114MOL    C8336469   0.235   7.225   7.005  0.7362 -0.8467 -0.3126
  114MOL    C8436470   0.117   7.328   6.974 -0.5503 -0.1030  0.1569
  114MOL    O8536471   0.085   7.413   7.061 -0.3227  0.1134  0.5560
  114MOL    N8636472   0.047   7.320   6.857 -0.5398  0.2248 -1.2278
  114MOL    C8736473   7.794   7.422   6.829 -0.6502  0.3302 -0.0991
  114MOL    C8836474   0.079   7.233   6.742 -0.8517  0.1960  0.2559
  114MOL    H8936475   0.427   7.258   7.090  0.5349 -0.2473  0.2425
  114MOL    H9036476   0.350   7.403   7.022 -3.7623 -0.4062 -0.3125
  114MOL    H9136477   0.239   7.152   6.924 -0.5265  0.0511 -1.2052
  114MOL    H9236478   7.740   7.449   6.919 -1.0200  1.8780 -0.7667
  114MOL    H9336479   7.831   7.521   6.801  1.8649 -0.4645  0.3001
  114MOL    H9436480   7.727   7.384   6.752 -0.2685  1.7333 -1.1543
  114MOL    H9536481   0.007   7.243   6.660 -2.0539  0.8732  1.3806
  114MOL    H9636482   0.090   7.124   6.739 -0.1223  0.3154 -2.7429
  114MOL    H9736483   0.170   7.270   6.697 -1.6979  0.8080 -0.9662
  114MOL    C9836484   0.210   7.143   7.133  0.4562 -0.4653  0.4684
  114MOL    C9936485   0.088   7.055   7.144  0.4844  0.1596  0.3960
  114MOL   C10036486   0.045   6.978   7.012 -0.0907  0.1313 -0.6278
  114MOL   O10136487   7.806   7.021   6.946 -0.5189 -0.1985  0.0788
  114MOL   N10236488   0.102   6.863   6.974 -1.4654 -0.2706  0.0128
  114MOL   C10336489   0.076   6.805   6.844  0.5061  0.2233  0.6599
  114MOL   C10436490   0.210   6.789   7.050 -0.5027  0.4917  0.4868
  114MOL   H10536491   0.294   7.075   7.150 -0.2296 -1.6657 -0.7964
  114MOL   H10636492   0.214   7.220   7.210  1.1868  2.4411 -2.3898
  114MOL   H10736493   0.115   6.978   7.216  2.3165  0.3286 -0.0929
  114MOL   H10836494   0.112   6.703   6.834 -2.7898 -0.7879 -1.8072
  114MOL   H10936495   7.825   6.797   6.814  0.6634 -1.1319  0.4451
  114MOL   H11036496   0.128   6.862   6.767 -1.2666  1.6410  0.4803
  114MOL   H11136497   0.170   6.742   7.140 -1.4250 -0.8266 -0.5812
  114MOL   H11236498   0.289   6.855   7.084  1.5953 -2.3070  1.2227
  114MOL   H11336499   0.265   6.713   6.995  0.1611  1.0453  0.3812
  114MOL   C11436500   7.815   7.129   7.205 -0.3849  0.1147  0.0618
  114MOL   C11536501   7.842   7.175   7.347  0.3918  0.2177  0.1340
  114MOL   C11636502   0.030   7.061   7.440 -0.3187  0.2590 -0.4523
  114MOL   O11736503   7.803   6.972   7.468  0.6754  0.0384 -0.4963
  114MOL   N11836504   0.161   7.045   7.485 -0.7239  0.5223  0.7133
  114MOL   C11936505   0.273   7.145   7.479 -0.2810  0.1983  0.1663
  114MOL   C12036506   0.198   6.916   7.533 -0.3875  0.0487  0.5034
  114MOL   H12136507   7.766   7.207   7.146 -0.2109 -0.0476 -0.3024
  114MOL   H12236508   7.739   7.052   7.218  1.7856 -2.3240 -1.1683
  114MOL   H12336509   0.055   7.261   7.336 -0.4315  1.0105  1.2483
  114MOL   H12436510   0.329   7.150   7.572  1.6025 -1.9758 -0.7795
  114MOL   H12536511   0.341   7.107   7.402 -0.8232  0.2980 -0.3730
  114MOL   H12636512   0.245   7.247   7.454 -1.1423  0.0808  0.6372
  114MOL   H12736513   0.214   6.845   7.452 -1.0882  2.0851 -1.4688
  114MOL   H12836514   0.123   6.868   7.597  2.0218 -1.6738  2.1496
  114MOL   H12936515   0.286   6.929   7.597 -0.9438 -0.4599  1.3830
  114MOL   C13036516   7.722   7.255   7.409 -0.4852  0.0030 -0.8317
  114MOL   C13136517   7.690   7.408   7.380 -0.5597  0.5237 -0.1326
  114MOL   C13236518   7.805   7.501   7.435  0.5545  0.1119 -0.3374
  114MOL   O13336519   0.004   7.466   7.539 -0.6413  0.2036  0.4137
  114MOL   N13436520   7.823   7.623   7.383 -0.3474  0.0407 -0.0591
  114MOL   C13536521   0.072   7.711   7.432  0.2079 -0.7410  0.4619
  114MOL   C13636522   7.767   7.665   7.259 -0.5747  0.4768 -0.5560
  114MOL   H13736523   7.630   7.203   7.384 -0.1958 -0.8671 -0.1063
  114MOL   H13836524   7.722   7.244   7.517 -0.4889  0.2607 -0.8053
  114MOL   H13936525   7.686   7.421   7.272  0.9982  1.5819 -0.0864
  114MOL   H14036526   0.128   7.672   7.517 -1.2717 -1.8669  0.9508
  114MOL   H14136527   0.140   7.746   7.354 -0.8445  0.2055 -0.0363
  114MOL   H14236528   0.016   7.797   7.468 -1.2842 -1.0961 -0.9578
  114MOL   H14336529   7.739   7.598   7.178 -0.8265  2.1673 -1.9134
  114MOL   H14436530   7.831   7.743   7.215  0.0811  0.1049 -0.2655
  114MOL   H14536531   7.677   7.716   7.292 -1.5050 -0.0905 -2.1832
  114MOL   C14636532   7.549   7.454   7.421  0.3082  0.0173  0.4152
  114MOL   C14736533   7.435   7.417   7.319  0.5910 -1.1004 -0.1758
  114MOL   C14836534   7.429   7.516   7.195 -0.1291 -0.2620 -0.3975
  114MOL   O14936535   7.437   7.635   7.228 -0.0133 -0.0907 -0.2213
  114MOL   N15036536   7.437   7.468   7.065  0.5568  0.4554 -0.4284
  114MOL   C15136537   7.420   7.573   6.959  0.0570  0.3588  0.0942
  114MOL   C15236538   7.451   7.328   7.029  0.4735  0.2234  0.1608
  114MOL   H15336539   7.530   7.397   7.512  0.0600 -0.4812  0.0476
  114MOL   H15436540   7.540   7.560   7.446  2.3233  0.9877 -2.6488
  114MOL   H15536541   7.484   7.325   7.287  0.9229 -1.3787  1.1202
  114MOL   H15636542   7.404   7.534   6.858  2.6611  2.3475 -1.1500
  114MOL   H15736543   7.336   7.640   6.978  0.0022 -0.2190  1.9231
  114MOL   H15836544   7.505   7.639   6.940 -0.5299  1.0069 -0.3074
  114MOL   H15936545   7.377   7.267   7.080  0.1411 -1.2126 -1.9833
  114MOL   H16036546   7.552   7.288   7.039  0.6790  0.1945 -1.8522
  114MOL   H16136547   7.424   7.314   6.924  1.6649 -1.1794  0.0246
  114MOL   C16236548   7.299   7.392   7.395  1.2179  0.1903  0.2106
  114MOL   C16336549   7.281   7.246   7.453  0.0589  0.1980 -0.4766
  114MOL   C16436550   7.246   7.156   7.332 -0.2757 -0.8129  0.3057
  114MOL   O16536551   7.146   7.192   7.265 -0.2750 -0.5700 -0.5390
  114MOL   N16636552   7.315   7.046   7.297 -0.5769  0.4254  0.4317
  114MOL   C16736553   7.275   6.971   7.180 -0.0669 -0.3582 -0.5598
  114MOL   C16836554   7.424   6.987   7.373 -0.0345 -0.3204 -0.4436
  114MOL   H16936555   7.278   7.465   7.474  0.2586  1.0941 -0.8625
  114MOL   H17036556   7.223   7.417   7.321  1.8426  1.4706 -0.0095
  114MOL   H17136557   7.379   7.217   7.491 -1.3982 -2.5874  1.3800
  114MOL   H17236558   7.224   7.038   7.111  1.2001  0.6833 -0.4991
  114MOL   H17336559   7.366   6.936   7.132  1.1483 -0.0695  1.4631
  114MOL   H17436560   7.199   6.899   7.209 -1.1230  1.2217  0.6910
  114MOL   H17536561   7.421   6.879   7.366  1.9378 -0.4785  0.7361
  114MOL   H17636562   7.412   7.012   7.479  2.3578 -1.5173  0.1398
  114MOL   H17736563   7.520   7.017   7.331  0.1472  2.2012  1.5837
  114MOL   C17836564   7.166   7.234   7.557  0.4729 -0.2482 -0.2920
  114MOL   C17936565   7.220   7.269   7.695  0.3947 -0.3180 -0.4233
  114MOL   C18036566   7.309   7.152   7.754  0.8942  0.4764  0.0603
  114MOL   O18136567   7.253   7.040   7.764 -0.3499  0.0722 -0.4148
  114MOL   N18236568   7.439   7.165   7.798 -0.2437 -0.0685 -0.4482
  114MOL   C18336569   7.523   7.047   7.820 -0.2406 -0.0645 -0.2472
  114MOL   C18436570   7.513   7.287   7.795  0.0170 -0.1389  1.0143
  114MOL   H18536571   7.088   7.304   7.528  2.7159  2.1517 -0.7254
  114MOL   H18636572   7.122   7.134   7.557 -0.5389  0.1972 -0.1813
  114MOL   H18736573   7.268   7.367   7.690 -1.4314  0.5981 -0.4388
  114MOL   H18836574   7.613   7.062   0.026 -0.9626 -0.7144  1.0567
  114MOL   H18936575   7.467   6.966   0.014 -1.0143 -0.8604 -2.4675
  114MOL   H19036576   7.562   7.003   7.729 -0.9090  0.1874 -0.6556
  114MOL   H19136577   7.452   7.377   7.803  4.1958  2.9249 -0.3870
  114MOL   H19236578   7.591   7.287   7.719  0.2941 -1.3566  1.2782
  114MOL   H19336579   7.572   7.290   0.033  3.8883 -0.6004 -1.3723
  114MOL   C19436580   7.097   7.286   7.791 -0.8895  0.0860  0.3322
  114MOL   C19536581   7.033   7.431   7.805  0.1573 -0.0218 -0.2555
  114MOL   C19636582   7.128   7.512   0.045  0.1720 -0.0681 -0.2346
  114MOL   O19736583   7.228   7.467   0.101  0.0972  0.8386 -0.0675
  114MOL   N19836584   7.103   7.643   0.076 -0.1510  0.3450 -0.3949
  114MOL   C19936585   7.184   7.717   0.172 -0.5753  0.4542  0.9705
  114MOL   C20036586   6.994   7.725   0.011 -0.2648 -0.0756  0.0664
  114MOL   H20136587   7.025   7.212   7.754  0.5878 -1.2573  0.1007
  114MOL   H20236588   7.117   7.245   0.037  0.7474 -3.8802 -1.5349
  114MOL   H20336589   7.052   7.476   7.708 -0.3573 -1.3319 -0.9767
  114MOL   H20436590   7.167   7.824   0.157 -1.1129  0.1682 -0.5323
  114MOL   H20536591   7.168   7.683   0.274 -4.2386 -1.1956 -0.0829
  114MOL   H20636592   7.290   7.706   0.151 -0.9192 -1.7293  0.2814
  114MOL   H20736593   7.002   7.697   7.759 -0.0476  0.3012 -0.0185
  114MOL   H20836594   7.014   7.832   0.022  3.5689 -0.1963 -4.0053
  114MOL   H20936595   6.892   7.705   0.043  0.3893 -1.3755  1.3610
  114MOL   C21036596   6.885   7.417   0.002  0.1256  0.7990  0.5504
  114MOL   C21136597   6.797   7.371   7.740  0.3279  0.5940  0.1968
  114MOL   C21236598   6.804   7.446   7.608 -0.4534  0.2668  0.7756
  114MOL   O21336599   6.798   7.568   7.609 -0.3768 -0.3108  0.1102
  114MOL   N21436600   6.821   7.365   7.494  0.3573  0.1067 -0.4233
  114MOL   C21536601   6.797   7.217   7.490  0.2357  0.1034  0.2387
  114MOL   C21636602   6.859   7.415   7.364 -0.1328  0.5972 -0.3551
  114MOL   H21736603   6.884   7.329   0.066  0.5384  0.0703 -0.4525
  114MOL   H21836604   6.843   7.502   0.057  0.1269  0.2303  1.4440
  114MOL   H21936605   6.817   7.265   7.727 -2.2649  0.2617 -1.5418
  114MOL   H22036606   6.879   7.176   7.548  1.2471  2.6144  0.6376
  114MOL   H22136607   6.710   7.179   7.544  1.7664 -2.2270  1.1263
  114MOL   H22236608   6.790   7.171   7.392  0.1333 -0.1257  0.3528
  114MOL   H22336609   6.951   7.366   7.331 -1.7924 -1.5018 -2.0623
  114MOL   H22436610   6.883   7.521   7.365 -1.5020  0.9275 -0.5309
  114MOL   H22536611   6.788   7.397   7.282 -0.1840  1.0492 -0.4121
  114MOL   C22636612   6.643   7.357   7.783  0.9551  0.0813 -0.7660
  114MOL   C22736613   6.569   7.476   7.850  0.2184  0.4750 -0.4117
  114MOL   C22836614   6.568   7.462   0.151  0.9444  0.2138  0.3193
  114MOL   O22936615   6.536   7.353   0.199 -0.7101 -0.2514 -0.0381
  114MOL   N23036616   6.584   7.572   0.224 -0.4641  0.5607  0.0577
  114MOL   C23136617   6.583   7.563   0.370 -0.3608  0.0275 -0.5431
  114MOL   C23236618   6.600   7.709   0.185 -0.2890  0.1011 -0.5893
  114MOL   H23336619   6.587   7.335   7.693 -0.1896  0.0227 -0.0402
  114MOL   H23436620   6.635   7.260   7.831 -0.2486  0.9864  0.8951
  114MOL   H23536621   6.623   7.568   7.828 -0.3898  0.4905 -1.8838
  114MOL   H23636622   6.592   7.460   0.406 -1.9752 -0.2548 -0.8972
  114MOL   H23736623   6.669   7.616   0.410 -1.6855  2.6962 -1.1664
  114MOL   H23836624   6.494   7.596   0.424  0.5194  1.4236  0.0675
  114MOL   H23936625   6.520   7.755   0.129  0.9493 -0.2835 -2.7210
  114MOL   H24036626   6.694   7.707   0.130  0.1298  0.4380  0.0979
  114MOL   H24136627   6.624   7.768   0.274  2.4083 -0.2316 -1.0305
  114MOL   C24236628   6.421   7.515   7.795 -0.1956 -0.3708  0.1693
  114MOL   C24336629   6.310   7.409   7.808  0.5362  0.2846  0.4712
  114MOL   C24436630   6.324   7.283   7.713 -0.2580  0.1969  0.3741
  114MOL   O24536631   6.349   7.298   7.593 -0.9872  0.2334 -0.4996
  114MOL   N24636632   6.331   7.160   7.767 -0.1410 -0.4439  0.3490
  114MOL   C24736633   6.272   7.129   0.043 -0.0727  0.3784 -0.3342
  114MOL   C24836634   6.410   7.055   7.705  0.0850 -0.2249  0.7989
  114MOL   H24936635   6.387   7.612   7.832 -0.3687 -1.0285  1.7988
  114MOL   H25036636   6.427   7.530   7.687  0.2079 -0.5206  0.1704
  114MOL   H25136637   6.329   7.386   0.059  2.0041  0.5990  0.2828
  114MOL   H25236638   6.263   7.021   0.058  0.9150  0.2633 -0.5647
  114MOL   H25336639   6.335   7.156   0.128 -1.0069 -0.9024  0.8013
  114MOL   H25436640   6.170   7.167   0.047  0.2720  1.2175  0.4794
  114MOL   H25536641   6.474   7.092   7.625  0.4589  0.0941  1.2440
  114MOL   H25636642   6.359   6.966   7.669  0.0015 -0.4956  1.5603
  114MOL   H25736643   6.488   7.019   7.773  0.7695 -0.2016  0.0401
  114MOL   C25836644   6.165   7.470   7.782 -0.0055 -0.7628 -0.1377
  114MOL   C25936645   6.102   7.555   0.038  0.3071 -0.1316 -0.6355
  114MOL   C26036646   6.118   7.493   0.176 -0.2206  0.1597  0.9646
  114MOL   O26136647   6.082   7.376   0.192 -0.6551  0.8653 -0.6295
  114MOL   N26236648   6.163   7.559   0.288 -0.6692 -0.3681  0.0090
  114MOL   C26336649   6.222   7.692   0.295 -0.5071 -0.7471  0.1479
  114MOL   C26436650   6.189   7.485   0.406  0.1492 -0.3633  0.4719
  114MOL   H26536651   6.167   7.535   7.694  0.8590  1.6419  1.6006
  114MOL   H26636652   6.095   7.394   7.746 -0.7476 -0.5227  0.7721
  114MOL   H26736653   6.149   7.652   0.039 -0.6284  0.3171  1.0176
  114MOL   H26836654   6.136   7.758   0.296 -0.5987 -0.7835 -2.4777
  114MOL   H26936655   6.281   7.742   0.372  0.2884 -1.2399 -0.1325
  114MOL   H27036656   6.281   7.715   0.206  1.3998  0.9821  1.8031
  114MOL   H27136657   6.256   7.406   0.371 -0.0692 -0.4141  0.1702
  114MOL   H27236658   6.108   7.438   0.462  0.9142 -2.4113 -0.0677
  114MOL   H27336659   6.243   7.534   0.488  1.8853 -1.9039  0.2932
  114MOL   C27436660   5.952   7.590   0.024 -1.0541 -0.6209 -0.4315
  114MOL   C27536661   5.893   7.632   7.737 -0.3677 -0.1759  0.2718
  114MOL   C27636662   5.979   7.745   7.673  0.2894 -0.1554  0.1775
  114MOL   O27736663   6.007   7.840   7.744  0.5038  0.4118  0.0710
  114MOL   N27836664   6.017   7.739   7.543  0.3145 -0.0347 -0.2844
  114MOL   C27936665   6.081   7.853   7.485 -0.1508  0.0375  0.9431
  114MOL   C28036666   6.011   7.619   7.469  0.3489 -0.6743  0.6745
  114MOL   H28136667   5.880   7.515   0.058 -1.5190  0.3194  0.6978
  114MOL   H28236668   5.939   7.675   0.091 -0.5524 -1.8616  1.2747
  114MOL   H28336669   5.896   7.541   7.677  1.3865  1.8227 -2.7874
  114MOL   H28436670   6.013   0.084   7.486  1.6725  1.6160 -1.7749
  114MOL   H28536671   6.174   0.028   7.534 -1.1921  1.3327  2.1768
  114MOL   H28636672   6.108   7.833   7.381 -1.2292  0.7684  0.5212
  114MOL   H28736673   6.044   7.628   7.365 -0.4752 -0.2202  0.4467
  114MOL   H28836674   5.911   7.577   7.460 -0.8200  2.1019  0.1798
  114MOL   H28936675   6.076   7.540   7.508  2.3389 -0.1428 -1.4144
  114MOL   C29036676   5.746   7.669   7.746  0.3589 -0.2097 -0.1271
  114MOL   C29136677   5.656   7.663   7.614 -0.1135 -0.0265  0.2662
  114MOL   C29236678   5.534   7.760   7.620  0.3913  0.4084 -0.2772
  114MOL   O29336679   5.420   7.718   7.635 -0.6126 -0.5925 -0.0068
  114MOL   N29436680   5.553   0.042   7.602 -0.2373  0.0457  0.0904
  114MOL   C29536681   5.440   0.138   7.592  0.3718  0.2558  0.0903
  114MOL   C29636682   5.684   0.113   7.615  0.0676  0.0451  0.2756
  114MOL   H29736683   5.692   7.606   7.816  1.8131 -0.1035  1.1174
  114MOL   H29836684   5.726   7.767   7.790  0.6708  0.7629 -2.0533
  114MOL   H29936685   5.718   7.695   7.531 -1.3241  2.3322  0.2386
  114MOL   H30036686   5.347   0.083   7.576 -0.6086  1.4609  1.5270
  114MOL   H30136687   5.419   0.187   7.687 -3.3421  0.9024 -1.0060
  114MOL   H30236688   5.450   0.212   7.513  1.6429 -0.2010 -0.1826
  114MOL   H30336689   5.768   0.061   7.571 -1.3674  0.2391 -2.8180
  114MOL   H30436690   5.702   0.138   7.720 -0.9182  0.8393  0.2633
  114MOL   H30536691   5.679   0.210   7.567  1.4002  0.8510  1.7234
  114MOL   C30636692   5.614   7.517   7.588 -0.3470 -0.7778  0.0191
  114MOL   C30736693   5.535   7.502   7.454 -0.7478 -0.1295  0.6258
  114MOL   C30836694   5.533   7.353   7.414  0.2977  0.2644 -0.6322
  114MOL   O30936695   5.563   7.262   7.498 -0.8590 -0.3033  0.5819
  114MOL   N31036696   5.489   7.322   7.286  0.7543 -0.4716 -0.6655
  114MOL   C31136697   5.487   7.185   7.232 -0.6718  0.0802  0.1895
  114MOL   C31236698   5.418   7.423   7.199 -0.4261  0.2488  0.2164
  114MOL   H31336699   5.709   7.464   7.575 -1.1717 -1.5194 -3.5019
  114MOL   H31436700   5.562   7.467   7.669 -2.7800 -0.0688 -1.0599
  114MOL   H31536701   5.434   7.541   7.467 -0.3117  1.5653 -0.8345
  114MOL   H31636702   5.440   7.171   7.135  1.6072 -1.5529 -0.7325
  114MOL   H31736703   5.590   7.147   7.235 -0.4184  0.6876 -0.6634
  114MOL   H31836704   5.428   7.119   7.296 -0.8655 -1.0246 -1.1006
  114MOL   H31936705   5.479   7.511   7.178  1.4127 -1.5130 -2.0303
  114MOL   H32036706   5.331   7.461   7.252 -1.4065  0.1841 -1.2980
  114MOL   H32136707   5.370   7.379   7.112 -3.7361  1.5958  1.2884
  114MOL   H32236708   5.591   7.559   7.379  2.1656 -1.6257  1.5658
  115MOL     C136709   0.779   1.750   6.850 -0.6049  0.6123 -0.0051
  115MOL     C236710   0.788   1.656   6.730 -0.3331 -0.3427 -0.2133
  115MOL     C336711   0.821   1.731   6.596 -0.3725  0.1127 -0.0246
  115MOL     O436712   0.731   1.813   6.553 -0.4564  0.1357  0.2099
  115MOL     N536713   0.945   1.726   6.545  0.6456  0.7058 -0.4769
  115MOL     C636714   1.050   1.638   6.605 -0.2568  0.1283 -0.1443
  115MOL     C736715   0.995   1.802   6.428  0.2584  0.1156  0.3947
  115MOL     H836716   0.716   1.835   6.823  0.4564  1.6602  0.7763
  115MOL     H936717   0.876   1.799   6.857  0.1048 -0.6717 -0.8049
  115MOL    H1036718   0.863   1.584   6.764  1.3662  0.5637 -1.9366
  115MOL    H1136719   1.150   1.645   6.562 -0.6507  0.0793 -1.0753
  115MOL    H1236720   1.060   1.676   6.707  0.8708  0.8074 -0.4928
  115MOL    H1336721   1.017   1.534   6.598 -1.1213  0.4366 -0.5555
  115MOL    H1436722   0.991   1.738   6.340  0.8263 -1.8172  1.7289
  115MOL    H1536723   1.097   1.834   6.451  0.5256 -1.0796  0.9289
  115MOL    H1636724   0.939   1.896   6.425 -0.0334 -0.0691  0.0597
  115MOL    H1736725   0.738   1.718   6.947  0.3840  0.4350  0.3590
  115MOL    C1836726   0.652   1.582   6.718 -0.1543 -0.0130 -0.0017
  115MOL    C1936727   0.648   1.449   6.624  0.2442  0.1963  0.6227
  115MOL    C2036728   0.763   1.355   6.666  0.2580  0.2059  0.4572
  115MOL    O2136729   0.860   1.351   6.591 -0.4495  0.8058  0.6633
  115MOL    N2236730   0.762   1.293   6.784 -0.0139 -0.7346 -0.3200
  115MOL    C2336731   0.885   1.236   6.839 -0.4211 -0.0963  0.0170
  115MOL    C2436732   0.651   1.283   6.878 -0.3775 -0.0239  0.5311
  115MOL    H2536733   0.621   1.565   6.821  0.2104 -0.0123  0.1122
  115MOL    H2636734   0.585   1.658   6.679  0.2338  0.4771  0.2801
  115MOL    H2736735   0.552   1.406   6.649  0.7234 -1.2980 -0.0297
  115MOL    H2836736   0.960   1.315   6.844 -1.8518  1.4301 -1.8776
  115MOL    H2936737   0.875   1.181   6.932  2.9631 -1.7725 -0.5372
  115MOL    H3036738   0.913   1.159   6.767 -1.7017 -1.9868  1.5074
  115MOL    H3136739   0.655   1.381   6.927  1.9404  0.1851 -0.0308
  115MOL    H3236740   0.663   1.201   6.949 -2.1851 -1.8199 -1.1957
  115MOL    H3336741   0.547   1.270   6.848  0.2509  0.6496 -2.0640
  115MOL    C3436742   0.636   1.481   6.477 -0.1606  0.2132 -0.5072
  115MOL    C3536743   0.557   1.378   6.393 -0.2987 -0.4545  0.4502
  115MOL    C3636744   0.408   1.384   6.432 -0.1019  0.2017  0.3494
  115MOL    O3736745   0.365   1.300   6.517  0.4843 -0.0526  0.3609
  115MOL    N3836746   0.324   1.473   6.369  0.3031  0.4063 -0.2563
  115MOL    C3936747   0.360   1.574   6.264 -0.2503  0.0764  0.0567
  115MOL    C4036748   0.178   1.467   6.395 -0.8694  0.1089  0.0724
  115MOL    H4136749   0.589   1.580   6.470  1.6540  1.1358 -0.1018
  115MOL    H4236750   0.734   1.492   6.431 -0.6109  1.4087 -1.2214
  115MOL    H4336751   0.567   1.414   6.290 -3.6278 -1.4350 -0.2999
  115MOL    H4436752   0.278   1.645   6.248 -0.1405  0.3780  0.8408
  115MOL    H4536753   0.447   1.629   6.298 -0.2879 -0.1537  0.5231
  115MOL    H4636754   0.389   1.519   6.174 -0.9365 -0.6481  0.2682
  115MOL    H4736755   0.119   1.542   6.342 -0.9514 -0.9306 -1.3552
  115MOL    H4836756   0.164   1.477   6.502  2.8378  0.1379  0.6042
  115MOL    H4936757   0.144   1.368   6.364  1.3550 -0.4344 -0.7008
  115MOL    C5036758   0.606   1.231   6.397  0.0033  0.1403  0.4285
  115MOL    C5136759   0.567   1.143   6.277  0.0590 -1.0691  0.0015
  115MOL    C5236760   0.592   0.995   6.310  0.2265  0.4225  0.0015
  115MOL    O5336761   0.700   0.942   6.300 -0.5602 -0.5071  0.3882
  115MOL    N5436762   0.483   0.925   6.353 -0.3861 -0.0546 -0.1302
  115MOL    C5536763   0.517   0.802   6.428  0.4581 -0.2507  0.5301
  115MOL    C5636764   0.343   0.961   6.342 -0.6875 -0.3296  0.3565
  115MOL    H5736765   0.711   1.243   6.422 -0.2181  0.0258  1.4679
  115MOL    H5836766   0.563   1.184   6.486  0.2801 -0.5972  0.1740
  115MOL    H5936767   0.465   1.180   6.270  0.3956 -0.5914 -2.6593
  115MOL    H6036768   0.562   0.725   6.366 -0.1026  0.5100 -0.8324
  115MOL    H6136769   0.575   0.831   6.516  2.0662 -3.8157  0.7266
  115MOL    H6236770   0.426   0.754   6.465  0.3704  0.1451  0.8254
  115MOL    H6336771   0.313   0.994   6.243  1.3024 -1.6171 -0.7153
  115MOL    H6436772   0.321   1.028   6.425 -1.5671 -0.0316 -0.1151
  115MOL    H6536773   0.281   0.872   6.353 -1.3001 -0.0477 -0.7601
  115MOL    C6636774   0.636   1.186   6.145  0.3697  0.4839  0.3680
  115MOL    C6736775   0.580   1.121   6.010  0.0944  0.5944 -0.2113
  115MOL    C6836776   0.689   1.128   5.900 -0.0762 -0.2294  0.2462
  115MOL    O6936777   0.702   1.231   5.836 -0.9145  0.5544  0.4429
  115MOL    N7036778   0.775   1.026   5.884 -0.4261  0.3008 -0.6900
  115MOL    C7136779   0.756   0.891   5.951  0.0777  0.2038 -0.0386
  115MOL    C7236780   0.892   1.032   5.801 -0.8483  0.3029  0.4252
  115MOL    H7336781   0.631   1.294   6.136  0.6584  0.3959 -0.8958
  115MOL    H7436782   0.741   1.165   6.165  0.0892 -0.0322  1.3594
  115MOL    H7536783   0.549   1.019   6.031  3.1104  0.1045  2.1713
  115MOL    H7636784   0.840   0.823   5.932 -1.5908 -2.3412  1.3432
  115MOL    H7736785   0.746   0.898   6.060 -2.8293  0.0114 -0.2752
  115MOL    H7836786   0.667   0.844   5.911 -0.2705  2.0812 -1.4997
  115MOL    H7936787   0.884   1.095   5.712  1.0099  1.2708  0.9316
  115MOL    H8036788   0.923   0.932   5.770 -0.4821  0.4943  0.1779
  115MOL    H8136789   0.969   1.074   5.864 -0.0219  0.9151 -0.9703
  115MOL    C8236790   0.454   1.203   5.969  0.3696  0.3312 -0.4893
  115MOL    C8336791   0.383   1.176   5.837  0.3347 -0.5182 -0.2161
  115MOL    C8436792   0.287   1.299   5.800  0.6317 -0.1212  0.2163
  115MOL    O8536793   0.177   1.313   5.859 -0.0682 -0.0727  0.0855
  115MOL    N8636794   0.327   1.374   5.698 -0.2139 -0.1669 -0.2216
  115MOL    C8736795   0.221   1.423   5.605 -0.4498  0.0381 -0.3358
  115MOL    C8836796   0.456   1.408   5.648  0.9221  0.2102 -0.0140
  115MOL    H8936797   0.380   1.192   6.048 -0.1023 -0.0784 -0.9885
  115MOL    H9036798   0.475   1.310   5.964  1.0447  0.2196 -0.0726
  115MOL    H9136799   0.464   1.184   5.764  1.4711 -0.2090  1.0699
  115MOL    H9236800   0.162   1.338   5.571  0.2015 -1.1603  1.4823
  115MOL    H9336801   0.167   1.504   5.654 -0.2529 -0.6450  1.0237
  115MOL    H9436802   0.270   1.472   5.521 -0.4769  0.7494  0.0625
  115MOL    H9536803   0.459   1.354   5.554 -0.4576  2.1098 -1.1744
  115MOL    H9636804   0.536   1.373   5.714  2.7081  4.4773  0.2097
  115MOL    H9736805   0.465   1.516   5.636 -1.9537  0.7606  1.9999
  115MOL    C9836806   0.319   1.039   5.835 -0.3529  0.4819 -0.1949
  115MOL    C9936807   0.273   0.964   5.700  0.9318  0.5444  0.5613
  115MOL   C10036808   0.386   0.957   5.593  0.0566  0.1140  0.3492
  115MOL   O10136809   0.387   1.054   5.523  0.0951 -0.1676 -0.4550
  115MOL   N10236810   0.464   0.855   5.568  0.6548  0.4575 -0.2386
  115MOL   C10336811   0.443   0.725   5.625 -0.1618 -0.5918 -0.6833
  115MOL   C10436812   0.563   0.854   5.455 -0.2636  0.1962  0.3255
  115MOL   H10536813   0.383   0.969   5.888 -0.9375 -0.2170 -0.3894
  115MOL   H10636814   0.231   1.032   5.899  0.9586 -1.3630  1.4818
  115MOL   H10736815   0.248   0.863   5.732 -0.6209  0.9578  0.7062
  115MOL   H10836816   0.340   0.690   5.640  0.3183 -0.8478  2.4384
  115MOL   H10936817   0.499   0.649   5.571  3.0257  0.0883  1.5120
  115MOL   H11036818   0.491   0.721   5.723 -0.0579 -0.8703 -0.7442
  115MOL   H11136819   0.520   0.831   5.358  0.3756 -0.0006  0.0911
  115MOL   H11236820   0.652   0.793   5.471 -0.9678 -0.9192  0.0823
  115MOL   H11336821   0.605   0.951   5.432  0.9941  0.0612  1.9909
  115MOL   C11436822   0.145   1.025   5.638  0.4633  0.4906  0.6083
  115MOL   C11536823   0.078   0.936   5.529 -0.1557  0.0544  0.5360
  115MOL   C11636824   7.821   1.024   5.462 -0.0168  0.4223 -0.5061
  115MOL   O11736825   7.723   1.059   5.529 -0.8292 -0.4602 -0.2406
  115MOL   N11836826   7.832   1.057   5.332  0.2252 -0.2732  0.0915
  115MOL   C11936827   7.720   1.100   5.248  0.5695 -0.3371 -0.1727
  115MOL   C12036828   0.108   1.069   5.265  0.1788 -0.0421  0.0709
  115MOL   H12136829   0.081   1.037   5.726 -1.5612 -0.4203 -0.7108
  115MOL   H12236830   0.163   1.123   5.593 -1.6173  0.4592 -0.3502
  115MOL   H12336831   0.153   0.907   5.456 -0.9340 -0.9660  0.1228
  115MOL   H12436832   7.637   1.030   5.237  1.6265 -1.1504 -3.4843
  115MOL   H12536833   7.683   1.184   5.306  1.7915  0.0820  0.0264
  115MOL   H12636834   7.745   1.128   5.146 -0.0157  2.1867  0.3433
  115MOL   H12736835   0.101   1.138   5.181 -0.7667 -0.6727 -0.3658
  115MOL   H12836836   0.168   0.979   5.260  2.0788  1.2804 -2.1726
  115MOL   H12936837   0.175   1.129   5.328 -1.4304  1.2673  0.5764
  115MOL   C13036838   0.016   0.797   5.580  0.1904 -0.0708 -0.6582
  115MOL   C13136839   0.031   0.685   5.474 -0.8026 -0.6260  0.0783
  115MOL   C13236840   7.761   0.685   5.379 -0.0497  0.1249 -0.2356
  115MOL   O13336841   7.650   0.670   5.431 -0.4080  0.0870 -0.2303
  115MOL   N13436842   7.778   0.709   5.241 -0.4669  0.5881 -0.3314
  115MOL   C13536843   7.668   0.702   5.152  0.2319 -0.1244 -0.9705
  115MOL   C13636844   0.048   0.724   5.169  0.4188  0.3242 -0.1946
  115MOL   H13736845   0.055   0.765   5.676  0.5014 -0.9213 -1.0663
  115MOL   H13836846   7.765   0.807   5.612  0.2174 -0.0610 -0.5726
  115MOL   H13936847   0.130   0.694   5.429 -0.6334 -1.3995  0.2934
  115MOL   H14036848   7.577   0.745   5.193 -0.2856 -1.4077 -0.7414
  115MOL   H14136849   7.680   0.751   5.056 -2.1459 -0.4420 -1.4649
  115MOL   H14236850   7.659   0.595   5.134  1.5222 -0.6604  1.3799
  115MOL   H14336851   0.048   0.676   5.071 -2.2767  3.1860 -1.6842
  115MOL   H14436852   0.127   0.678   5.228  0.2864  0.1363 -0.1622
  115MOL   H14536853   0.069   0.827   5.140  0.5136  0.5751  0.7628
  115MOL   C14636854   0.037   0.550   5.535  0.3653  1.0738 -0.5183
  115MOL   C14736855   0.032   0.418   5.451 -0.5498  0.2418  0.1913
  115MOL   C14836856   7.828   0.302   5.544  0.0707 -0.2312 -0.2087
  115MOL   O14936857   0.055   0.242   5.613  0.9882 -0.1006 -0.1044
  115MOL   N15036858   7.699   0.265   5.550 -0.0450 -0.3563  0.2402
  115MOL   C15136859   7.652   0.165   5.650 -0.0763 -0.2533 -0.5324
  115MOL   C15236860   7.597   0.318   5.459  0.1869  0.3620 -0.1746
  115MOL   H15336861   0.124   0.542   5.601 -1.7275  0.7270  2.3115
  115MOL   H15436862   7.806   0.554   5.604  0.0592 -1.6682 -0.6938
  115MOL   H15536863   7.812   0.432   5.371 -1.6348 -1.6490  0.8015
  115MOL   H15636864   7.562   0.201   5.699 -0.3444  2.0990 -2.6676
  115MOL   H15736865   7.622   0.074   5.596 -1.2384 -0.1565 -0.0806
  115MOL   H15836866   7.731   0.132   5.717  0.3995  1.1079 -0.4107
  115MOL   H15936867   7.501   0.269   5.477  0.3224  0.1354 -0.0546
  115MOL   H16036868   7.628   0.302   5.355  0.8843 -0.1703  0.1048
  115MOL   H16136869   7.600   0.424   5.483  3.3893  0.1090  0.8603
  115MOL   C16236870   0.175   0.383   5.388  0.2180 -0.4307 -0.2522
  115MOL   C16336871   0.181   0.292   5.259  0.0151 -0.8597 -0.1711
  115MOL   C16436872   0.158   0.375   5.134  0.3605 -0.0525  0.5089
  115MOL   O16536873   0.041   0.393   5.112 -0.0551 -1.2047  0.1528
  115MOL   N16636874   0.260   0.432   5.069 -0.0927  0.5556  0.1902
  115MOL   C16736875   0.408   0.429   5.103  0.1894  0.2764 -0.1941
  115MOL   C16836876   0.237   0.503   4.949  0.5042  0.4876  0.4944
  115MOL   H16936877   0.229   0.477   5.374  0.0716  0.2547  3.3324
  115MOL   H17036878   0.246   0.328   5.451 -1.4539 -0.7378  1.3906
  115MOL   H17136879   0.280   0.250   5.243  0.7786  0.5682  0.6840
  115MOL   H17236880   0.421   0.468   5.204 -1.9411  0.9031 -0.1174
  115MOL   H17336881   0.447   0.328   5.105  1.2813  0.6863 -0.1990
  115MOL   H17436882   0.475   0.484   5.037 -1.1659  0.1648 -1.7087
  115MOL   H17536883   0.205   0.606   4.967  2.7661  1.0515  1.4620
  115MOL   H17636884   0.151   0.456   4.900  1.0544 -0.3547  0.3403
  115MOL   H17736885   0.316   0.495   4.875 -0.2766 -3.4595 -0.0028
  115MOL   C17836886   0.082   0.173   5.272 -0.4383 -1.0288  0.1910
  115MOL   C17936887   0.128   0.053   5.364 -0.2299 -0.1352  0.7980
  115MOL   C18036888   0.237   7.818   5.291 -0.3335  0.0329 -0.5120
  115MOL   O18136889   0.204   7.758   5.191 -0.1635 -0.5638 -0.3574
  115MOL   N18236890   0.360   7.800   5.340 -0.1216 -0.0054  0.5367
  115MOL   C18336891   0.467   7.744   5.258  0.5213  0.0978  0.0276
  115MOL   C18436892   0.414   0.022   5.456 -0.3654  0.7328 -0.3837
  115MOL   H18536893   7.836   0.207   5.303 -0.4127 -1.1525  0.4082
  115MOL   H18636894   0.070   0.131   5.173 -0.8002  2.5673 -1.3845
  115MOL   H18736895   0.170   0.099   5.453  0.0733  1.0185  0.0704
  115MOL   H18836896   0.531   7.687   5.326  0.3087 -1.2972 -0.9207
  115MOL   H18936897   0.435   7.679   5.177 -1.4673  1.5356 -0.3709
  115MOL   H19036898   0.526   7.831   5.227  1.4263  0.2328  2.0084
  115MOL   H19136899   0.403   0.127   5.431 -0.2756  0.5999 -0.9887
  115MOL   H19236900   0.519   7.851   5.471 -0.1390  2.6807  1.3663
  115MOL   H19336901   0.351   7.846   5.540  0.2825 -2.4697 -0.9480
  115MOL   C19436902   0.002   7.818   5.404  0.3764 -0.7052  0.0247
  115MOL   C19536903   0.020   7.686   5.484  0.1268 -0.0523 -0.7225
  115MOL   C19636904   7.734   7.617   5.486  1.2293 -0.4362  0.3226
  115MOL   O19736905   7.651   7.639   5.575  0.1287  0.4403 -0.0211
  115MOL   N19836906   7.708   7.518   5.398  0.0816  0.3384 -0.4173
  115MOL   C19936907   7.599   7.432   5.423 -1.0623  0.1561  0.5704
  115MOL   C20036908   7.792   7.481   5.288 -0.0513 -0.0397  0.1571
  115MOL   H20136909   7.783   0.025   5.458  1.0440  0.8820 -0.8332
  115MOL   H20236910   7.800   7.797   5.313 -0.5009  0.9587  0.1564
  115MOL   H20336911   0.092   7.627   5.427  0.4773 -0.3269 -0.0059
  115MOL   H20436912   7.603   7.348   5.354  3.6171 -0.2021  1.1262
  115MOL   H20536913   7.590   7.386   5.521 -0.8834  1.0072  0.9948
  115MOL   H20636914   7.517   7.499   5.398 -0.3222  0.9336  0.1821
  115MOL   H20736915   7.736   7.465   5.196  1.8085  0.2125 -1.0697
  115MOL   H20836916   7.845   7.389   5.311 -0.0486  0.0366  0.4622
  115MOL   H20936917   0.012   7.558   5.260 -2.1661  2.2625  0.7642
  115MOL   C21036918   0.070   7.718   5.629 -0.4760  0.4119  0.1810
  115MOL   C21136919   0.139   7.602   5.701 -0.1540  0.3785 -0.0618
  115MOL   C21236920   0.037   7.517   5.784 -0.6847  0.2245 -0.5351
  115MOL   O21336921   7.831   7.565   5.883 -0.5559  0.0149  0.0030
  115MOL   N21436922   0.024   7.384   5.752 -0.1314  0.7305 -0.5118
  115MOL   C21536923   0.093   7.313   5.648  0.4327 -0.3867 -0.2278
  115MOL   C21636924   7.782   7.307   5.825 -0.0350  0.2517  0.5584
  115MOL   H21736925   0.141   7.801   5.624  0.8486 -0.7116 -0.0451
  115MOL   H21836926   7.844   7.748   5.697  0.2150  1.0044  0.7250
  115MOL   H21936927   0.179   7.552   5.613 -1.3182  0.3785 -0.5952
  115MOL   H22036928   0.200   7.309   5.669  0.9936  3.1480 -1.9416
  115MOL   H22136929   0.061   7.213   5.617 -0.9478  0.5053 -1.7497
  115MOL   H22236930   0.087   7.365   5.552 -0.3007 -0.3939 -0.1892
  115MOL   H22336931   7.843   7.229   5.872  0.6637  0.1670 -0.4804
  115MOL   H22436932   7.699   7.257   5.774 -0.7538  1.4006  0.6026
  115MOL   H22536933   7.731   7.360   5.905 -0.7571  0.5166 -0.0745
  115MOL   C22636934   0.248   7.657   5.797  0.0506 -0.6275  0.2845
  115MOL   C22736935   0.355   7.551   5.814 -0.2932  0.3032 -0.1724
  115MOL   C22836936   0.424   7.575   5.950  0.0687  0.0076  0.3913
  115MOL   O22936937   0.511   7.660   5.957 -0.4259 -0.2397 -0.1520
  115MOL   N23036938   0.383   7.502   6.057  0.5069 -0.8212  0.5091
  115MOL   C23136939   0.447   7.519   6.193 -0.2382 -0.1283 -0.2081
  115MOL   C23236940   0.265   7.416   6.058  0.4172  0.5971 -0.2529
  115MOL   H23336941   0.296   7.750   5.769 -0.4345 -0.0794  1.2716
  115MOL   H23436942   0.202   7.690   5.890  0.4604  2.6344 -0.6243
  115MOL   H23536943   0.311   7.452   5.808  1.5672 -0.5452  0.0802
  115MOL   H23636944   0.378   7.523   6.277 -0.9796 -1.4654 -0.7492
  115MOL   H23736945   0.509   7.431   6.204  0.7278  0.7241  1.3731
  115MOL   H23836946   0.511   7.607   6.205 -1.3002  0.8203 -1.3993
  115MOL   H23936947   0.234   7.399   6.161  1.3475  0.4819  0.0120
  115MOL   H24036948   0.300   7.322   6.015  3.7191  1.6255  0.0226
  115MOL   H24136949   0.179   7.453   6.003  0.2925 -0.9117 -1.0878
  115MOL   C24236950   0.454   7.554   5.697  0.0312  0.7739  0.4216
  115MOL   C24336951   0.568   7.449   5.709  0.2045  0.6726 -0.0411
  115MOL   C24436952   0.648   7.482   5.584 -0.2151 -0.1140 -0.0396
  115MOL   O24536953   0.609   7.432   5.478  0.0541  0.2463  0.3178
  115MOL   N24636954   0.749   7.570   5.591 -0.1280 -0.0639 -0.2240
  115MOL   C24736955   0.793   7.639   5.720  0.5798  0.1573  0.4093
  115MOL   C24836956   0.823   7.625   5.472  0.4539  0.7297 -0.8576
  115MOL   H24936957   0.392   7.511   5.620  1.5992 -1.4623  0.3582
  115MOL   H25036958   0.483   7.655   5.669  0.6601  0.3682 -0.3991
  115MOL   H25136959   0.625   7.476   5.798  1.5492  0.6712 -0.8938
  115MOL   H25236960   0.831   7.558   5.781 -2.8403 -1.8348  0.0248
  115MOL   H25336961   0.862   7.722   5.704  0.8781 -0.4894 -1.8145
  115MOL   H25436962   0.707   7.683   5.770 -1.3558 -2.3188 -0.6087
  115MOL   H25536963   0.927   7.590   5.467  0.2839  0.3553 -1.8537
  115MOL   H25636964   0.802   7.731   5.467 -1.2275  0.3919 -1.2031
  115MOL   H25736965   0.782   7.586   5.379 -0.1274  0.1310 -0.3550
  115MOL   C25836966   0.526   7.305   5.723  1.0156  0.3670 -0.0567
  115MOL   C25936967   0.635   7.199   5.743  0.1042 -0.1754 -0.0298
  115MOL   C26036968   0.562   7.063   5.732 -0.3013  0.3093  0.4239
  115MOL   O26136969   0.473   7.038   5.812 -0.2779  0.2282  0.2139
  115MOL   N26236970   0.598   6.971   5.644 -0.3468  0.0719  0.8157
  115MOL   C26336971   0.536   6.842   5.643  0.4197 -0.9338  0.7671
  115MOL   C26436972   0.687   6.993   5.531  0.4022 -0.2126  0.7028
  115MOL   H26536973   0.462   7.302   5.811  1.1228 -1.9167 -0.0225
  115MOL   H26636974   0.466   7.280   5.636  0.9330  2.5545 -0.6600
  115MOL   H26736975   0.708   7.210   5.663 -0.5792  0.2294 -0.6026
  115MOL   H26836976   0.438   6.860   5.599  0.7904  1.4671  0.8585
  115MOL   H26936977   0.596   6.772   5.584  0.0453 -1.8806  1.4908
  115MOL   H27036978   0.527   6.799   5.743 -1.6657 -0.9629  0.5842
  115MOL   H27136979   0.668   6.923   5.449 -0.0766  1.2196 -0.4317
  115MOL   H27236980   0.794   6.982   5.547  0.4787 -0.5943 -0.0383
  115MOL   H27336981   0.671   7.088   5.480  1.6283  0.4032  1.4423
  115MOL   C27436982   0.708   7.217   5.883  0.4762 -0.1389  0.3893
  115MOL   C27536983   0.841   7.140   5.890 -0.1202 -0.1015 -0.0819
  115MOL   C27636984   0.866   7.076   6.026  0.3772  0.6955 -0.2987
  115MOL   O27736985   0.919   7.143   6.111 -0.4545 -0.2930  0.0380
  115MOL   N27836986   0.826   6.950   6.056  0.2706  0.1405  0.4348
  115MOL   C27936987   0.755   6.859   5.963 -0.2157  0.1320 -0.7215
  115MOL   C28036988   0.854   6.885   6.181  0.8659  0.1700 -0.2183
  115MOL   H28136989   0.728   7.318   5.916  0.2973  0.3227 -0.8900
  115MOL   H28236990   0.646   7.176   5.963  0.3099 -0.3265  0.1653
  115MOL   H28336991   0.841   7.057   5.819  0.9879  0.0556 -0.2711
  115MOL   H28436992   0.738   6.758   6.000  2.0151  0.6992  2.0463
  115MOL   H28536993   0.660   6.909   5.941  1.7519  3.8277 -1.2736
  115MOL   H28636994   0.805   6.850   5.866  0.4058  1.1893 -0.5143
  115MOL   H28736995   0.812   6.785   6.194  1.9569 -0.2042  0.5675
  115MOL   H28836996   0.823   6.947   6.265  1.4428  0.1711 -0.0016
  115MOL   H28936997   0.962   6.866   6.189  1.3570  2.5160 -0.8845
  115MOL   C29036998   0.966   7.221   5.840  0.4928  0.2414  0.0649
  115MOL   C29136999   1.088   7.142   5.789 -0.1937  0.4567 -0.5566
  115MOL   C29237000   1.222   7.200   5.841  0.0738 -0.1441  1.3118
  115MOL   O29337001   1.266   7.296   5.773 -0.9490 -0.8610 -0.1963
  115MOL   N29437002   1.292   7.143   5.946 -0.1517  0.1696 -0.5816
  115MOL   C29537003   1.428   7.195   5.991 -0.2011 -0.2940 -0.1833
  115MOL   C29637004   1.260   7.019   6.030  0.3632  0.5070  0.3090
  115MOL   H29737005   0.927   7.298   5.773 -1.5079 -0.2257  0.6838
  115MOL   H29837006   0.997   7.285   5.923  0.5789  0.5597 -0.2093
  115MOL   H29937007   1.089   7.040   5.828  1.3136  0.2058 -1.2403
  115MOL   H30037008   1.504   7.119   5.974  0.6724  0.6900 -0.7318
  115MOL   H30137009   1.456   7.285   5.936 -1.1705  0.4085  0.4508
  115MOL   H30237010   1.433   7.221   6.097 -2.8117  0.0817 -0.1042
  115MOL   H30337011   1.253   6.930   5.967  1.1984  0.7379 -0.1171
  115MOL   H30437012   1.168   7.046   6.082  1.7566  0.0555  3.0658
  115MOL   H30537013   1.335   6.998   6.105  1.6733 -1.6645 -1.5387
  115MOL   C30637014   1.084   7.139   5.633 -0.1449  0.3288  0.3615
  115MOL   C30737015   1.198   7.043   5.582  0.4785  0.7135  0.5396
  115MOL   C30837016   1.153   6.896   5.595 -0.0322 -0.6428  0.0577
  115MOL   O30937017   1.059   6.867   5.675  0.1116  0.3452 -0.0201
  115MOL   N31037018   1.198   6.794   5.524  0.1019  0.2104  0.7453
  115MOL   C31137019   1.158   6.647   5.532 -0.2624  0.0327  0.4666
  115MOL   C31237020   1.284   6.816   5.410 -0.1587 -0.1584  0.4699
  115MOL   H31337021   0.986   7.104   5.598  0.3817 -0.6563 -0.1418
  115MOL   H31437022   1.109   7.237   5.594  3.5410 -0.5074  0.4228
  115MOL   H31537023   1.201   7.071   5.476  1.8677 -0.2091  0.3267
  115MOL   H31637024   1.168   6.631   5.639  0.1829  0.6691  0.5230
  115MOL   H31737025   1.062   6.625   5.486 -0.1339 -0.7333  0.5688
  115MOL   H31837026   1.225   6.579   5.481  1.6161  0.6023  2.1086
  115MOL   H31937027   1.389   6.794   5.430  0.3111 -1.4880 -3.0092
  115MOL   H32037028   1.280   6.919   5.375 -0.8505 -0.3811 -0.1132
  115MOL   H32137029   1.261   6.754   5.323 -0.7742 -1.3511  1.4756
  115MOL   H32237030   1.293   7.059   5.632 -0.4411  1.2335  2.1376
  116MOL     C137031   7.821   6.427   6.677  0.3819  0.1227  0.3039
  116MOL     C237032   7.683   6.420   6.610 -0.2126  0.5191  0.8466
  116MOL     C337033   7.675   6.521   6.496  0.2652 -0.3742  0.0223
  116MOL     O437034   7.644   6.635   6.532 -0.0933 -0.3268  0.0748
  116MOL     N537035   7.674   6.484   6.366 -0.3010  0.1002  0.1327
  116MOL     C637036   7.726   6.356   6.321 -0.2743  0.8433 -0.0497
  116MOL     C737037   7.637   6.579   6.259  0.5343  0.3545  0.3611
  116MOL     H837038   0.043   6.424   6.599 -0.3059  0.4225 -0.3753
  116MOL     H937039   7.845   6.338   6.736  0.2742 -0.3372 -0.3455
  116MOL    H1037040   7.678   6.315   6.578 -1.8981  1.2035 -1.2227
  116MOL    H1137041   7.795   6.306   6.390 -0.1224  0.6436 -0.3489
  116MOL    H1237042   7.630   6.305   6.323 -0.9121  2.0547  1.7635
  116MOL    H1337043   7.760   6.341   6.219  0.7552 -0.6784  0.4848
  116MOL    H1437044   7.621   6.682   6.289  0.0686  0.1324  0.8640
  116MOL    H1537045   7.567   6.540   6.185  0.6404  1.2569 -0.2215
  116MOL    H1637046   7.735   6.590   6.211  0.3367  1.6710  0.2569
  116MOL    H1737047   7.843   6.518   6.734  0.3799  0.7637 -0.6991
  116MOL    C1837048   7.571   6.435   6.720 -0.6027  0.0857  0.7819
  116MOL    C1937049   7.429   6.381   6.679 -0.1904 -0.2209  0.3558
  116MOL    C2037050   7.433   6.225   6.636 -0.0152 -1.1544 -0.5311
  116MOL    O2137051   7.442   6.196   6.515 -0.0605 -0.8309 -0.1069
  116MOL    N2237052   7.412   6.128   6.724 -0.1970  0.0665  0.8014
  116MOL    C2337053   7.408   5.987   6.664  0.5033 -0.8216 -0.3320
  116MOL    C2437054   7.400   6.139   6.862  0.2554  0.6294 -0.5896
  116MOL    H2537055   7.613   6.382   6.806  3.4381  2.8159  0.6380
  116MOL    H2637056   7.562   6.538   6.755 -0.5862  0.2381  0.3438
  116MOL    H2737057   7.363   6.373   6.765 -2.2282 -0.2456 -1.1534
  116MOL    H2837058   7.332   5.984   6.587 -1.3795  0.3894  1.4110
  116MOL    H2937059   7.507   5.966   6.624 -0.1941  0.2783 -2.7093
  116MOL    H3037060   7.380   5.914   6.740 -1.4794  0.3918  0.1340
  116MOL    H3137061   7.482   6.194   6.909 -0.4727 -0.6323  2.3186
  116MOL    H3237062   7.410   6.045   6.918 -0.9395  0.6632 -0.3208
  116MOL    H3337063   7.306   6.181   6.896 -0.1048  0.3263 -1.2265
  116MOL    C3437064   7.347   6.469   6.578 -0.2480  0.5120 -0.2725
  116MOL    C3537065   7.303   6.607   6.619 -0.0606  0.6614 -0.3814
  116MOL    C3637066   7.212   6.610   6.751 -0.0602  0.3526  0.7499
  116MOL    O3737067   7.108   6.545   6.743 -0.3017  0.4203 -0.5484
  116MOL    N3837068   7.251   6.684   6.864  0.2485  0.7595 -0.0102
  116MOL    C3937069   7.357   6.783   6.864 -0.4755 -0.3673  0.5483
  116MOL    C4037070   7.178   6.671   6.991 -0.7521  0.0386 -0.8631
  116MOL    H4137071   7.408   6.476   6.488 -1.9284  1.6989 -1.3497
  116MOL    H4237072   7.256   6.412   6.563 -1.5155  2.7403 -1.4075
  116MOL    H4337073   7.399   6.656   6.636  1.3539 -2.1005 -0.1497
  116MOL    H4437074   7.429   6.785   6.782  0.4828  0.4113  1.3931
  116MOL    H4537075   7.308   6.880   6.867  1.0288  0.3834  2.2938
  116MOL    H4637076   7.415   6.777   6.957  0.4439 -0.5611 -0.0259
  116MOL    H4737077   7.109   6.755   6.988  0.9144  1.5514  1.2835
  116MOL    H4837078   7.245   6.663   7.076 -0.3174  1.8179 -1.0011
  116MOL    H4937079   7.121   6.579   6.989  0.7102 -0.8963 -0.5115
  116MOL    C5037080   7.224   6.675   6.495  0.3937 -0.4594  0.5172
  116MOL    C5137081   7.227   6.831   6.507 -0.1023 -0.2928  0.3460
  116MOL    C5237082   7.081   6.887   6.480 -0.0990  0.8628 -0.3004
  116MOL    O5337083   7.033   6.879   6.367  0.4111  0.3683 -0.4287
  116MOL    N5437084   7.019   6.957   6.576 -0.3958  0.6582 -0.3011
  116MOL    C5537085   7.012   6.922   6.721  0.0790 -0.1018  0.0216
  116MOL    C5637086   6.919   7.067   6.543  0.3677 -0.0585  0.8843
  116MOL    H5737087   7.285   6.646   6.409 -2.1151 -0.0837 -1.4667
  116MOL    H5837088   7.123   6.635   6.490  0.1720  0.1968 -0.4884
  116MOL    H5937089   7.266   6.855   6.606  0.0487  0.7080  0.0466
  116MOL    H6037090   6.915   6.916   6.770  0.8241 -0.1547  1.5270
  116MOL    H6137091   7.039   6.817   6.736 -0.4350 -0.5699 -2.1373
  116MOL    H6237092   7.086   6.987   6.768  0.4769 -1.2600  1.0310
  116MOL    H6337093   6.821   7.020   6.538  0.2567  0.1631  0.9558
  116MOL    H6437094   6.932   7.109   6.443  1.9314  0.2546  1.2022
  116MOL    H6537095   6.927   7.138   6.625  0.6749  0.8067  0.1120
  116MOL    C6637096   7.333   6.877   6.400  0.1174 -0.0075 -0.3516
  116MOL    C6737097   7.376   7.022   6.412 -0.2110 -0.2092  0.0382
  116MOL    C6837098   7.403   7.060   6.560 -0.3133  0.7454  0.3441
  116MOL    O6937099   7.305   7.093   6.629 -0.0876 -0.6829  0.1123
  116MOL    N7037100   7.527   7.048   6.611 -0.0502  0.4405 -0.7227
  116MOL    C7137101   7.558   7.103   6.747  0.0406  0.4221  0.0625
  116MOL    C7237102   7.646   6.988   6.543 -0.4920  0.1886  0.4116
  116MOL    H7337103   7.424   6.818   6.413 -1.1164 -2.4607 -2.2846
  116MOL    H7437104   7.289   6.847   6.304 -0.4356 -1.4765  0.3516
  116MOL    H7537105   7.468   7.028   6.354  0.1604 -0.5267  0.5935
  116MOL    H7637106   7.508   7.050   6.828  0.3263  0.8254  0.5057
  116MOL    H7737107   7.665   7.108   6.764 -0.1701  2.1292  0.9790
  116MOL    H7837108   7.529   7.208   6.753 -1.3421 -0.0715  4.1460
  116MOL    H7937109   7.735   6.997   6.606 -0.4273  0.0133  0.3463
  116MOL    H8037110   7.666   7.043   6.451  0.5817 -2.0037 -0.7292
  116MOL    H8137111   7.625   6.883   6.520  1.7437 -0.5573  1.5756
  116MOL    C8237112   7.284   7.130   6.345  0.3884  0.2142 -0.0897
  116MOL    C8337113   7.365   7.250   6.285 -0.0138  0.1453 -0.0711
  116MOL    C8437114   7.422   7.209   6.150  0.2828 -0.0071  0.5338
  116MOL    O8537115   7.539   7.168   6.147 -0.1783  0.1712  0.1238
  116MOL    N8637116   7.340   7.233   6.042  0.3199  0.2170 -0.7151
  116MOL    C8737117   7.407   7.196   5.915 -0.3906  1.0797  0.5492
  116MOL    C8837118   7.199   7.264   6.047 -0.1922  0.4258 -0.4165
  116MOL    H8937119   7.220   7.085   6.269 -0.4705 -0.6922  1.1544
  116MOL    H9037120   7.215   7.173   6.417  0.2693 -0.1153 -0.0062
  116MOL    H9137121   7.296   7.332   6.265  1.7872  1.6006 -0.4904
  116MOL    H9237122   7.430   7.090   5.903 -0.1715  1.2971 -1.1702
  116MOL    H9337123   7.346   7.221   5.827  1.1120  2.3194 -0.1689
  116MOL    H9437124   7.508   7.237   5.910  0.5921 -1.2039  1.0953
  116MOL    H9537125   7.142   7.200   6.114  0.4423  0.4468  0.1550
  116MOL    H9637126   7.153   7.252   5.949 -0.9065 -1.1060  0.0897
  116MOL    H9737127   7.191   7.367   6.078  1.9997 -0.0332  1.8456
  116MOL    C9837128   7.461   7.316   6.388 -0.0808  0.1792 -0.4535
  116MOL    C9937129   7.509   7.452   6.346  0.1455  0.3801  0.8632
  116MOL   C10037130   7.645   7.478   6.414 -0.0900  0.0494  0.3408
  116MOL   O10137131   7.649   7.481   6.534 -0.1943 -0.1593 -0.4689
  116MOL   N10237132   7.762   7.484   6.339 -0.0381  0.2502 -0.1936
  116MOL   C10337133   7.759   7.497   6.197  0.1463  0.0712  0.0314
  116MOL   C10437134   0.041   7.463   6.402  0.3822 -0.4709  0.1473
  116MOL   H10537135   7.408   7.318   6.484 -0.2422 -0.4576 -0.5287
  116MOL   H10637136   7.545   7.248   6.406 -2.5536 -2.3960  1.8493
  116MOL   H10737137   7.515   7.447   6.237  0.2656 -1.1703  0.9375
  116MOL   H10837138   7.689   7.569   6.156  1.3647  2.1373  1.5341
  116MOL   H10937139   0.001   7.530   6.156  0.5016  0.9097  1.5038
  116MOL   H11037140   7.725   7.408   6.143 -0.0878 -0.6976  1.4095
  116MOL   H11137141   0.118   7.506   6.338 -2.3575  1.3128 -2.0662
  116MOL   H11237142   0.058   7.367   6.451 -2.1248 -1.1883 -0.3221
  116MOL   H11337143   0.061   7.531   6.485 -0.0186  0.0779 -0.2057
  116MOL   C11437144   7.410   7.571   6.375 -0.5080  1.1306 -0.2874
  116MOL   C11537145   7.472   7.716   6.374  0.2988 -0.5520  0.1579
  116MOL   C11637146   7.517   7.769   6.520 -0.4162  0.0736  0.1101
  116MOL   O11737147   7.439   7.757   6.613 -0.2666  0.0149 -0.4268
  116MOL   N11837148   7.636   7.828   6.540 -0.6483 -0.1590 -0.4745
  116MOL   C11937149   7.704   7.826   6.667 -0.3717  0.0325 -0.3727
  116MOL   C12037150   7.726   0.004   6.434 -0.3593  0.3851 -0.2023
  116MOL   H12137151   7.324   7.574   6.308 -0.5119 -0.4174 -0.3831
  116MOL   H12237152   7.370   7.561   6.476 -1.8560  1.0613 -0.8155
  116MOL   H12337153   7.562   7.713   6.312  1.4603  0.3672  1.7750
  116MOL   H12437154   7.644   7.816   6.758 -0.8987  2.4612 -0.4365
  116MOL   H12537155   7.767   7.737   6.670 -0.8079 -0.2406  3.5331
  116MOL   H12637156   7.770   0.058   6.680 -1.5349  0.7322  1.0256
  116MOL   H12737157   7.804   0.067   6.475 -0.9566  1.4309 -0.6440
  116MOL   H12837158   7.667   0.062   6.363 -0.9312 -1.6529 -1.4352
  116MOL   H12937159   7.764   7.766   6.388 -0.4692  0.2938 -0.1131
  116MOL   C13037160   7.373   7.826   6.329  0.4148  0.4883 -0.0820
  116MOL   C13137161   7.322   7.828   6.180 -0.7732  0.0402 -0.0545
  116MOL   C13237162   7.429   7.775   6.084 -0.6954 -0.4453 -0.7072
  116MOL   O13337163   7.546   7.824   6.097  0.6998  0.0870  0.4270
  116MOL   N13437164   7.404   7.684   5.988  0.3072  0.0027  0.5875
  116MOL   C13537165   7.502   7.663   5.886 -0.2901 -0.5797  0.9581
  116MOL   C13637166   7.292   7.590   5.985 -0.4239  0.6294  0.2031
  116MOL   H13737167   7.282   7.837   6.389 -1.2119 -0.2599 -2.3150
  116MOL   H13837168   7.414   0.072   6.344 -0.1438  0.4205  2.0628
  116MOL   H13937169   7.238   7.758   6.175  0.7341 -1.8168  0.0100
  116MOL   H14037170   7.543   7.562   5.877 -0.0198 -0.1617 -3.5099
  116MOL   H14137171   7.449   7.675   5.792 -2.8672  0.3224  2.4944
  116MOL   H14237172   7.594   7.721   5.897 -1.6154  1.2518  2.6980
  116MOL   H14337173   7.341   7.496   5.957 -0.4900  0.9170 -0.8935
  116MOL   H14437174   7.205   7.618   5.926 -2.3400 -2.0290  1.6343
  116MOL   H14537175   7.255   7.567   6.084 -0.2819  1.1594  0.3807
  116MOL   C14637176   7.285   0.119   6.133 -0.3404  0.2811 -0.1967
  116MOL   C14737177   7.184   0.120   6.009  0.2763 -0.6986  0.0057
  116MOL   C14837178   7.223   0.227   5.903  0.2759  0.1186 -0.5826
  116MOL   O14937179   7.262   0.331   5.945 -0.3929  0.1792 -0.0490
  116MOL   N15037180   7.210   0.204   5.772 -0.3256  0.5103  0.5332
  116MOL   C15137181   7.272   0.293   5.678  0.1461 -0.8168  0.0144
  116MOL   C15237182   7.150   0.090   5.709 -0.2688 -0.6900 -0.4346
  116MOL   H15337183   7.258   0.181   6.219 -2.0803 -1.1983  0.3553
  116MOL   H15437184   7.371   0.163   6.084 -0.2689 -0.5608 -0.8392
  116MOL   H15537185   7.178   0.017   5.972  1.4192 -0.1873 -1.6579
  116MOL   H15637186   7.378   0.312   5.695  0.0133 -0.9103  0.9608
  116MOL   H15737187   7.268   0.258   5.575  0.7310  0.5632 -0.5007
  116MOL   H15837188   7.233   0.395   5.682  0.3495 -0.6701 -1.4460
  116MOL   H15937189   7.056   0.065   5.758  1.1826 -3.1383  1.2108
  116MOL   H16037190   7.215   0.006   5.734 -2.5251 -2.1585  0.6027
  116MOL   H16137191   7.131   0.100   5.603 -0.3818  1.3759 -0.2438
  116MOL   C16237192   7.035   0.143   6.057  0.1927  0.3532 -0.3909
  116MOL   C16337193   6.967   0.034   6.144 -0.0775 -0.1470 -0.1871
  116MOL   C16437194   6.942   7.761   6.064 -0.3738 -0.1920 -0.1627
  116MOL   O16537195   6.914   7.772   5.945  0.1305 -0.2833  0.0427
  116MOL   N16637196   6.955   7.644   6.132  0.1988 -0.0901  0.3087
  116MOL   C16737197   6.937   7.519   6.051  0.3744 -0.2335 -0.4920
  116MOL   C16837198   6.985   7.623   6.273  0.0687 -0.6138  0.2172
  116MOL   H16937199   7.031   0.237   6.112  1.0096 -0.5130  1.1803
  116MOL   H17037200   6.980   0.165   5.965  0.2791  2.1927 -0.0242
  116MOL   H17137201   7.043   0.011   6.218  0.9210  0.6323 -0.9516
  116MOL   H17237202   7.023   7.487   5.992  0.5537 -0.9242  0.1384
  116MOL   H17337203   6.911   7.440   6.122 -2.3054  0.5042 -0.5995
  116MOL   H17437204   6.845   7.541   5.998  1.5119  0.4497 -2.2249
  116MOL   H17537205   6.911   7.669   6.339 -0.9527 -0.1484 -1.2154
  116MOL   H17637206   7.078   7.673   6.298  2.3207 -2.6315 -3.7745
  116MOL   H17737207   6.995   7.523   6.317 -3.2684 -0.1296  2.2575
  116MOL   C17837208   6.837   0.087   6.216 -0.1397  0.0870  0.1827
  116MOL   C17937209   6.863   0.207   6.318 -0.1482 -0.6160 -0.2657
  116MOL   C18037210   6.974   0.174   6.419  0.1341 -0.4687 -0.2508
  116MOL   O18137211   6.959   0.067   6.476 -0.4477  1.0659  0.3213
  116MOL   N18237212   7.087   0.247   6.445  0.5994  0.5320 -0.3025
  116MOL   C18337213   7.110   0.389   6.407 -0.2093  0.2897 -0.3363
  116MOL   C18437214   7.184   0.192   6.541  0.2986  0.1590 -0.2540
  116MOL   H18537215   6.781   0.121   6.129 -0.0419 -2.1573 -0.7796
  116MOL   H18637216   6.784   0.010   6.271 -0.0247  0.8598  1.4025
  116MOL   H18737217   6.894   0.300   6.270  0.5220 -0.0419  1.2382
  116MOL   H18837218   7.218   0.406   6.412  0.3498 -2.7826 -1.3484
  116MOL   H18937219   7.081   0.395   6.302  0.8791  0.1788 -0.6492
  116MOL   H19037220   7.063   0.463   6.473  2.0241  0.7838  0.7523
  116MOL   H19137221   7.164   0.088   6.566  0.4820  0.0819 -0.4206
  116MOL   H19237222   7.192   0.258   6.628  1.4557 -0.1947 -0.0843
  116MOL   H19337223   7.281   0.186   6.491 -0.3129  3.4565 -2.0135
  116MOL   C19437224   6.734   0.237   6.397 -0.5209  0.5224  1.0039
  116MOL   C19537225   6.606   0.274   6.314  0.3431 -0.3005 -0.5494
  116MOL   C19637226   6.639   0.385   6.214  0.7860 -0.2400 -0.1433
  116MOL   O19737227   6.707   0.482   6.251  0.1555 -0.3001  0.0424
  116MOL   N19837228   6.570   0.385   6.092  0.7409 -0.1110 -0.2101
  116MOL   C19937229   6.628   0.476   5.990 -0.3220 -0.0364  0.0682
  116MOL   C20037230   6.449   0.312   6.050  0.5245 -0.0880 -0.0653
  116MOL   H20137231   6.723   0.155   6.467 -2.2181  0.5404  0.7727
  116MOL   H20237232   6.763   0.326   6.453 -1.4360  2.7032 -1.8399
  116MOL   H20337233   6.582   0.186   6.255 -1.5607 -0.4267  0.3435
  116MOL   H20437234   6.707   0.543   6.025  0.0769 -0.0333 -0.8181
  116MOL   H20537235   6.666   0.403   5.918 -1.6376  1.1501 -1.8525
  116MOL   H20637236   6.552   0.544   5.952 -1.9772 -0.9824  1.5906
  116MOL   H20737237   6.429   0.290   5.945 -0.4499 -2.8129  0.6371
  116MOL   H20837238   6.368   0.379   6.077 -0.0287 -0.3508 -1.0363
  116MOL   H20937239   6.427   0.217   6.099 -0.8889 -0.8402 -2.0725
  116MOL   C21037240   6.488   0.306   6.405 -0.0223  0.2346 -0.4190
  116MOL   C21137241   6.474   0.445   6.473  0.3657 -0.2006  0.1784
  116MOL   C21237242   6.574   0.454   6.591 -0.2350 -0.4285  0.3845
  116MOL   O21337243   6.571   0.370   6.677  0.4142  0.1969 -0.6246
  116MOL   N21437244   6.664   0.555   6.597  0.1770 -0.1800  0.4033
  116MOL   C21537245   6.776   0.561   6.695 -0.9037 -0.2591  0.7731
  116MOL   C21637246   6.638   0.676   6.517 -0.4834  0.0774 -0.4149
  116MOL   H21737247   6.397   0.277   6.354 -0.2954  0.0775  0.1530
  116MOL   H21837248   6.496   0.224   6.476 -2.2438  1.8089  1.7355
  116MOL   H21937249   6.489   0.514   6.389  1.3676 -0.0577  0.4690
  116MOL   H22037250   6.839   0.648   6.676 -0.8332 -0.4769 -0.0129
  116MOL   H22137251   6.732   0.564   6.795 -1.4556 -0.7680  0.5418
  116MOL   H22237252   6.831   0.467   6.685 -1.7655 -0.8536  1.5188
  116MOL   H22337253   6.720   0.745   6.539 -1.5795  1.4329 -0.4664
  116MOL   H22437254   6.544   0.720   6.552  0.4673 -0.1826  2.6048
  116MOL   H22537255   6.633   0.673   6.409  4.5192  0.0159 -0.7489
  116MOL   C22637256   6.332   0.477   6.524 -0.4403 -0.3904  0.0840
  116MOL   C22737257   6.230   0.521   6.413  0.3244  0.1544 -0.2489
  116MOL   C22837258   6.245   0.674   6.389 -0.5982  0.3103  0.0946
  116MOL   O22937259   6.184   0.750   6.459 -0.3094 -0.0995 -0.4551
  116MOL   N23037260   6.316   0.733   6.289 -0.0509 -0.0228  0.3064
  116MOL   C23137261   6.353   0.876   6.280  0.0906  0.4003 -0.0609
  116MOL   C23237262   6.354   0.655   6.177  0.0868  0.0007 -0.9694
  116MOL   H23337263   6.295   0.391   6.580  1.3422 -0.2767  1.5082
  116MOL   H23437264   6.341   0.555   6.599  1.9074  0.2624 -0.8460
  116MOL   H23537265   6.245   0.474   6.316  0.2149  0.8965 -0.6344
  116MOL   H23637266   6.432   0.904   6.350 -0.5458 -0.5563  1.0566
  116MOL   H23737267   6.394   0.893   6.180 -0.6724  1.3015 -0.2207
  116MOL   H23837268   6.273   0.948   6.298  0.7975  1.9538 -2.7743
  116MOL   H23937269   6.428   0.581   6.207  2.7223  3.3968  1.3809
  116MOL   H24037270   6.390   0.715   6.093  0.0809 -0.4407 -1.2905
  116MOL   H24137271   6.268   0.606   6.131  0.6938 -0.1760 -1.9491
  116MOL   C24237272   6.088   0.488   6.461  0.0212 -0.0018  0.1302
  116MOL   C24337273   5.974   0.516   6.363 -0.0881 -0.2866 -0.3132
  116MOL   C24437274   5.838   0.522   6.436 -0.7587 -0.8181  0.8310
  116MOL   O24537275   5.815   0.431   6.515  0.1604  0.6541 -0.0187
  116MOL   N24637276   5.744   0.621   6.407  0.0221 -0.1902  0.2462
  116MOL   C24737277   5.606   0.617   6.469 -0.4652 -0.0143 -0.2031
  116MOL   C24837278   5.766   0.739   6.320 -0.0078 -0.4821 -0.0117
  116MOL   H24937279   6.074   0.388   6.502 -1.5642 -0.5587 -1.7215
  116MOL   H25037280   6.059   0.544   6.550 -1.4109 -1.6739  0.7563
  116MOL   H25137281   5.997   0.612   6.317 -0.5741  0.4410  0.9271
  116MOL   H25237282   5.534   0.683   6.420 -2.0968 -1.4236  0.2152
  116MOL   H25337283   5.572   0.513   6.472 -1.4624  0.2998 -0.5045
  116MOL   H25437284   5.615   0.648   6.573 -0.9014  2.6455 -0.9150
  116MOL   H25537285   5.758   0.715   6.215 -0.3323 -1.4324  0.2288
  116MOL   H25637286   5.865   0.782   6.337  0.6320 -2.1170  0.4697
  116MOL   H25737287   5.697   0.822   6.333  0.1024 -0.2080 -1.2083
  116MOL   C25837288   5.959   0.429   6.236  0.6769 -0.2793 -0.1540
  116MOL   C25937289   5.929   0.271   6.254  0.2346 -0.2578 -0.2293
  116MOL   C26037290   6.065   0.201   6.306  0.8035  0.0953 -0.0447
  116MOL   O26137291   6.170   0.234   6.252  0.0541 -0.3251  0.1304
  116MOL   N26237292   6.059   0.113   6.413  0.5148 -0.0855 -0.1094
  116MOL   C26337293   5.939   0.089   6.492 -0.4612 -0.1770  0.5406
  116MOL   C26437294   6.178   0.075   6.485 -0.6972 -0.1984 -0.7761
  116MOL   H26537295   5.878   0.469   6.174  2.2564  1.4355 -1.1520
  116MOL   H26637296   6.033   0.449   6.159  1.1121 -0.7842  0.1356
  116MOL   H26737297   5.850   0.251   6.327 -0.8293 -2.1921 -1.8834
  116MOL   H26837298   5.853   0.068   6.428 -0.2551  0.0805  0.1785
  116MOL   H26937299   5.960   0.004   6.556  2.7758  0.5206  0.4524
  116MOL   H27037300   5.926   0.175   6.557 -0.8132 -0.9222  1.4719
  116MOL   H27137301   6.251   0.156   6.481 -0.7894  0.1257  2.6163
  116MOL   H27237302   6.223   7.836   6.449  0.8353  0.4128 -0.4933
  116MOL   H27337303   6.164   0.062   6.592 -1.2528 -0.9730 -0.9441
  116MOL   C27437304   5.893   0.215   6.118  0.2322 -0.2829 -0.2648
  116MOL   C27537305   5.823   0.079   6.120 -0.0480  0.2219  0.3100
  116MOL   C27637306   5.925   7.811   6.119  0.1206  0.2857  0.6331
  116MOL   O27737307   6.022   7.807   6.044 -0.1685 -0.0147  0.4111
  116MOL   N27837308   5.915   7.719   6.217  0.1050 -0.7548  0.4758
  116MOL   C27937309   6.028   7.625   6.240  0.1477  0.4775  0.3090
  116MOL   C28037310   5.788   7.679   6.278  0.7983  0.3417 -0.1455
  116MOL   H28137311   5.840   0.291   6.060 -1.5107 -1.3544 -0.0888
  116MOL   H28237312   5.984   0.211   6.058  1.2307  1.1415  1.0926
  116MOL   H28337313   5.764   0.085   6.211  2.4711  2.8649  1.8511
  116MOL   H28437314   6.100   7.678   6.303  1.2370 -1.2348  0.5361
  116MOL   H28537315   5.997   7.549   6.311 -0.2673  1.2232  0.9365
  116MOL   H28637316   6.083   7.592   6.152  3.1606  1.6062  1.7156
  116MOL   H28737317   5.791   7.662   6.386  3.5451 -2.6959 -0.6108
  116MOL   H28837318   5.777   7.574   6.253  3.1517 -0.2643  1.2488
  116MOL   H28937319   5.698   7.735   6.251 -0.0878 -1.8180 -1.8109
  116MOL   C29037320   5.730   0.061   5.997  0.2372 -0.0790  0.1207
  116MOL   C29137321   5.610   0.156   5.967 -0.2563 -0.1068  0.2617
  116MOL   C29237322   5.536   0.178   6.098 -0.5721  0.6852 -0.9161
  116MOL   O29337323   5.491   0.087   6.166  0.3544  0.3348 -0.2362
  116MOL   N29437324   5.517   0.308   6.141  0.1184 -0.3251 -0.6618
  116MOL   C29537325   5.556   0.430   6.075 -0.6549  0.1785 -0.6283
  116MOL   C29637326   5.455   0.340   6.266  0.0853  0.3250  0.3413
  116MOL   H29737327   5.788   0.030   5.910 -0.4680  2.3106 -1.2563
  116MOL   H29837328   5.683   7.819   6.020 -0.7043  0.3215 -0.1095
  116MOL   H29937329   5.652   0.248   5.925 -0.2195  0.0072  0.5445
  116MOL   H30037330   5.494   0.450   5.987 -1.0807 -0.3644 -0.4497
  116MOL   H30137331   5.542   0.520   6.135  1.3725  0.2855 -0.2935
  116MOL   H30237332   5.661   0.427   6.046 -1.1963 -1.8531 -2.4646
  116MOL   H30337333   5.441   0.445   6.289  2.4823  0.6329  0.4702
  116MOL   H30437334   5.524   0.307   6.343  0.9515 -0.8029 -0.9064
  116MOL   H30537335   5.358   0.289   6.272  0.9578 -1.4684 -0.4546
  116MOL   C30637336   5.521   0.099   5.851  0.3720 -0.4712 -0.7793
  116MOL   C30737337   5.399   0.188   5.825  0.2417  0.2052 -0.1297
  116MOL   C30837338   5.309   0.125   5.716  0.2956 -0.0347  0.8600
  116MOL   O30937339   5.324   0.011   5.673  0.2963 -0.5511 -1.3459
  116MOL   N31037340   5.207   0.206   5.661  0.5301  0.2456 -0.3041
  116MOL   C31137341   5.178   0.342   5.707  0.1932  0.7489  0.4590
  116MOL   C31237342   5.123   0.156   5.551 -0.1667  0.4311 -0.4098
  116MOL   H31337343   5.590   0.086   5.768  2.5337 -1.1411  1.0596
  116MOL   H31437344   5.490   7.851   5.877  1.6090 -0.2252  1.8255
  116MOL   H31537345   5.330   0.200   5.908  0.2710 -1.6997  0.1988
  116MOL   H31637346   5.257   0.401   5.661 -0.8950  0.4919 -1.8604
  116MOL   H31737347   5.088   0.387   5.664 -0.0313 -0.8598 -0.8122
  116MOL   H31837348   5.187   0.355   5.814  0.2636 -0.5762  0.6278
  116MOL   H31937349   5.162   0.092   5.471 -2.7764  2.0397 -3.0671
  116MOL   H32037350   5.084   0.239   5.491 -1.0998 -0.3712 -0.9232
  116MOL   H32137351   5.041   0.097   5.591  0.7779 -1.7115 -1.5597
  116MOL   H32237352   5.436   0.284   5.790  1.5881 -1.2267 -2.7760
  117MOL     C137353   7.699   3.739   0.376  0.0248  0.0526  0.0783
  117MOL     C237354   7.725   3.728   0.525  0.4902 -0.1320 -0.0543
  117MOL     C337355   7.671   3.866   0.586 -1.0824  0.2633  0.2056
  117MOL     O437356   7.750   3.960   0.600  0.1813  0.2973  0.5796
  117MOL     N537357   7.543   3.875   0.616  0.0119 -0.8987  0.1704
  117MOL     C637358   7.478   3.995   0.668  0.1578  0.2152 -0.6279
  117MOL     C737359   7.445   3.763   0.607 -0.1389  0.1039 -0.3641
  117MOL     H837360   7.739   3.653   0.322  2.7016  1.3433 -0.0660
  117MOL     H937361   7.771   3.809   0.333 -0.6689  1.1096  0.6144
  117MOL    H1037362   7.672   3.645   0.572  0.7806 -1.2100 -1.5920
  117MOL    H1137363   7.483   4.008   0.776  2.4691 -1.0194 -0.5523
  117MOL    H1237364   7.517   4.081   0.614  1.5179 -0.2841 -0.4421
  117MOL    H1337365   7.372   3.999   0.642  0.1055  2.0817 -0.1922
  117MOL    H1437366   7.340   3.789   0.616 -0.0353  0.2894  0.3635
  117MOL    H1537367   7.460   3.683   0.679 -0.6643 -0.5169 -0.9369
  117MOL    H1637368   7.458   3.716   0.510 -2.4808  2.4540 -1.8897
  117MOL    H1737369   7.597   3.750   0.339  0.2304  0.2332 -0.4428
  117MOL    C1837370   0.024   3.713   0.554  0.0591 -0.3814 -0.4979
  117MOL    C1937371   0.078   3.572   0.571  0.4079  0.0200  0.3020
  117MOL    C2037372   0.057   3.520   0.717  0.4671 -0.1698 -0.4942
  117MOL    O2137373   0.127   3.571   0.805 -0.2572  0.2971 -0.5531
  117MOL    N2237374   7.815   3.433   0.749  0.4331 -0.5363 -0.3177
  117MOL    C2337375   7.812   3.367   0.876 -0.4650  0.3832 -0.2307
  117MOL    C2437376   7.750   3.366   0.645 -0.0613  0.5398  0.1209
  117MOL    H2537377   0.082   3.774   0.484  0.8606 -0.1431  0.3670
  117MOL    H2637378   0.051   3.760   0.649  0.5186  0.2017 -0.9071
  117MOL    H2737379   0.030   3.509   0.496 -3.3390  1.5241  1.3111
  117MOL    H2837380   0.035   3.290   0.867  2.3341  3.0099  0.6387
  117MOL    H2937381   7.844   3.428   0.960  1.5416 -0.5171 -0.3241
  117MOL    H3037382   7.715   3.330   0.911 -0.7036  1.5897  0.3976
  117MOL    H3137383   7.680   3.431   0.593 -0.5097 -0.4184 -0.4955
  117MOL    H3237384   7.686   3.288   0.687 -2.4489  1.2721 -1.9825
  117MOL    H3337385   7.816   3.308   0.580  1.4844  1.4014  0.9068
  117MOL    C3437386   0.231   3.555   0.541  0.0356 -0.1810 -0.2988
  117MOL    C3537387   0.256   3.487   0.400 -0.7684  0.8599 -0.0675
  117MOL    C3637388   0.209   3.585   0.292 -0.0464 -0.2651 -0.1693
  117MOL    O3737389   0.093   3.566   0.248 -0.2368  0.3475  0.3805
  117MOL    N3837390   0.296   3.671   0.243 -0.6543  0.3055  0.0281
  117MOL    C3937391   0.435   3.693   0.287  0.3681  0.4223  0.1711
  117MOL    C4037392   0.268   3.739   0.118 -0.2182  0.4601 -0.4298
  117MOL    H4137393   0.280   3.652   0.552  2.4411 -1.6675  2.7407
  117MOL    H4237394   0.277   3.491   0.616  0.0796  1.7427  1.3646
  117MOL    H4337395   0.363   3.469   0.389 -1.0053  0.3093 -1.5693
  117MOL    H4437396   0.499   3.618   0.240  1.6339 -1.1470  4.1339
  117MOL    H4537397   0.472   3.792   0.262 -0.9447  1.4804  2.2412
  117MOL    H4637398   0.441   3.687   0.396  0.2061 -0.0879  0.1563
  117MOL    H4737399   0.341   3.814   0.086 -0.7179  0.6957 -1.0269
  117MOL    H4837400   0.177   3.796   0.133  0.5233  1.6279 -0.2985
  117MOL    H4937401   0.232   3.664   0.048 -1.8748 -0.1447  1.0427
  117MOL    C5037402   0.195   3.341   0.388  0.4177  0.5257 -0.2968
  117MOL    C5137403   0.250   3.246   0.276 -0.0337  0.2218  0.7776
  117MOL    C5237404   0.202   3.295   0.138 -0.6028  0.0231  0.4323
  117MOL    O5337405   0.082   3.289   0.117 -0.2617 -0.0047  0.1454
  117MOL    N5437406   0.292   3.334   0.040  0.0893 -0.8872  0.4878
  117MOL    C5537407   0.431   3.364   0.060 -0.1876  0.0902  0.4468
  117MOL    C5637408   0.244   3.391   7.763  0.1035 -0.4183 -0.0566
  117MOL    H5737409   0.202   3.294   0.486  2.6519 -1.2125 -1.2576
  117MOL    H5837410   0.087   3.347   0.373  0.3788 -2.7639 -1.5878
  117MOL    H5937411   0.358   3.245   0.287  0.0056  0.8954  0.4303
  117MOL    H6037412   0.442   3.471   0.080  0.7358  0.2318 -0.7049
  117MOL    H6137413   0.482   3.306   0.137 -0.6650 -1.0556 -0.0949
  117MOL    H6237414   0.488   3.337   7.825 -1.8652 -1.8372 -0.0685
  117MOL    H6337415   0.321   3.440   7.705 -1.1251  2.2661  0.4768
  117MOL    H6437416   0.164   3.465   7.771  0.4758  0.2450 -2.1423
  117MOL    H6537417   0.201   3.317   7.696 -0.3303  0.4905 -0.7868
  117MOL    C6637418   0.209   3.100   0.307 -0.1441 -0.6835  0.7926
  117MOL    C6737419   0.248   3.000   0.197 -0.5425  0.0934 -0.2707
  117MOL    C6837420   0.176   2.865   0.224  0.1211  0.3296 -0.4618
  117MOL    O6937421   0.212   2.791   0.315  0.4885  0.1084  0.3033
  117MOL    N7037422   0.078   2.832   0.141 -0.2508  0.1765 -0.8366
  117MOL    C7137423   0.018   2.697   0.142 -0.6339  0.5087 -0.1106
  117MOL    C7237424   0.026   2.922   0.034 -0.2451  0.5485  0.1365
  117MOL    H7337425   0.261   3.061   0.394 -0.6684 -0.0546  1.3864
  117MOL    H7437426   0.106   3.097   0.344 -0.9536 -0.1288 -1.3128
  117MOL    H7537427   0.221   3.039   0.099 -1.5632 -1.0308 -0.4556
  117MOL    H7637428   7.768   2.706   0.106 -0.5779  1.9137  0.0373
  117MOL    H7737429   0.076   2.625   0.086  0.2072  2.2193 -1.4770
  117MOL    H7837430   0.009   2.658   0.244 -1.3787 -0.7777 -0.6569
  117MOL    H7937431   7.839   3.015   0.076  0.1581  0.1237  1.4870
  117MOL    H8037432   7.798   2.876   7.832  1.2793 -0.9254 -0.9268
  117MOL    H8137433   0.100   2.951   7.812 -0.5237  0.1328 -0.2960
  117MOL    C8237434   0.403   2.981   0.190 -0.2335 -0.0482 -0.5936
  117MOL    C8337435   0.456   2.924   0.053  0.0454 -0.0382  0.4764
  117MOL    C8437436   0.583   2.838   0.079 -0.5472 -0.4341  0.5038
  117MOL    O8537437   0.682   2.902   0.124  0.2814  0.1200 -0.3272
  117MOL    N8637438   0.586   2.705   0.050 -0.1761  0.2221  0.3095
  117MOL    C8737439   0.706   2.625   0.076 -0.4673  0.0165 -0.3749
  117MOL    C8837440   0.466   2.623   0.019 -0.4181  0.1826 -0.3695
  117MOL    H8937441   0.440   3.082   0.207 -3.6956  0.9682  1.2270
  117MOL    H9037442   0.438   2.920   0.274 -1.9751 -0.1961  0.0369
  117MOL    H9137443   0.378   2.855   0.020 -1.0643  0.0042  2.9192
  117MOL    H9237444   0.699   2.573   0.171  0.2974  1.9971  0.8028
  117MOL    H9337445   0.713   2.549   7.852  1.0348 -0.9390  0.6802
  117MOL    H9437446   0.803   2.674   0.065 -0.5712  0.3853  0.3087
  117MOL    H9537447   0.396   2.641   0.101 -2.4991  0.8441 -2.2409
  117MOL    H9637448   0.483   2.516   0.011  0.9963  0.3897 -0.3096
  117MOL    H9737449   0.408   2.658   7.787 -0.1704  0.0138 -0.6092
  117MOL    C9837450   0.466   3.031   7.796  0.0105  0.5232  0.5164
  117MOL    C9937451   0.458   2.995   7.643  0.2687 -0.4130  0.4347
  117MOL   C10037452   0.315   2.963   7.594 -0.4819 -1.0195  0.0177
  117MOL   O10137453   0.262   2.868   7.646 -0.0022  0.4243 -0.6873
  117MOL   N10237454   0.259   3.048   7.502  0.1069  0.6660  0.2782
  117MOL   C10337455   0.115   3.039   7.476 -0.6226  0.3151 -0.3537
  117MOL   C10437456   0.324   3.153   7.423  0.0903 -0.5512 -0.6718
  117MOL   H10537457   0.384   3.098   7.820  0.4795  0.6694  1.8101
  117MOL   H10637458   0.559   3.087   7.812  0.2328  0.1532  0.5419
  117MOL   H10737459   0.501   3.083   7.598  1.6296 -0.1510  2.1885
  117MOL   H10837460   0.070   2.996   7.566 -0.5736 -0.5322 -0.7295
  117MOL   H10937461   0.068   3.136   7.461  0.7455  0.7205 -2.2464
  117MOL   H11037462   0.091   2.966   7.398  0.0014 -0.5715  0.2663
  117MOL   H11137463   0.406   3.106   7.369  2.3420  1.4869  0.8306
  117MOL   H11237464   0.364   3.239   7.477  0.5045 -0.3345 -1.3178
  117MOL   H11337465   0.253   3.190   7.349 -1.0846 -0.6181  0.4054
  117MOL   C11437466   0.557   2.876   7.601 -0.6932  0.0492  0.3868
  117MOL   C11537467   0.709   2.912   7.588 -0.1192  0.0377 -0.0836
  117MOL   C11637468   0.734   3.022   7.479 -0.0010 -0.2066  0.2700
  117MOL   O11737469   0.672   3.009   7.373 -0.0277 -0.2730 -0.3301
  117MOL   N11837470   0.804   3.131   7.508 -0.2725 -0.2816  0.2397
  117MOL   C11937471   0.799   3.247   7.423  0.5120 -0.2205 -0.1612
  117MOL   C12037472   0.899   3.140   7.619  0.5447  0.3811  0.6168
  117MOL   H12137473   0.541   2.783   7.656 -0.2887 -1.0770 -1.3644
  117MOL   H12237474   0.530   2.850   7.498  0.3655  3.0415 -0.7245
  117MOL   H12337475   0.723   2.957   7.687 -0.8713 -0.6151  0.3276
  117MOL   H12437476   0.837   3.216   7.325  0.3194  0.0381 -0.3180
  117MOL   H12537477   0.696   3.281   7.413 -0.6377 -2.2390  3.9082
  117MOL   H12637478   0.852   3.331   7.468 -0.9714 -0.2615  1.6952
  117MOL   H12737479   0.846   3.166   7.710 -0.4720  0.9734 -0.1272
  117MOL   H12837480   0.974   3.219   7.618  1.5562 -0.5690  0.1394
  117MOL   H12937481   0.945   3.042   7.633 -1.1966 -0.2259  2.2760
  117MOL   C13037482   0.810   2.788   7.580  0.0370 -0.3619 -0.1908
  117MOL   C13137483   0.781   2.692   7.459 -0.0901 -0.2306 -0.8326
  117MOL   C13237484   0.664   2.601   7.486 -0.0909 -0.2779 -0.7657
  117MOL   O13337485   0.661   2.543   7.595  0.0886 -0.2786  0.0234
  117MOL   N13437486   0.571   2.580   7.389 -0.0413  0.0754 -0.3209
  117MOL   C13537487   0.465   2.478   7.395  0.4570 -0.2723 -0.7269
  117MOL   C13637488   0.576   2.642   7.252 -0.0778 -0.1102 -0.0526
  117MOL   H13737489   0.907   2.832   7.559 -0.3488 -0.9783 -3.6587
  117MOL   H13837490   0.809   2.742   7.679  1.7802  1.6732  0.8046
  117MOL   H13937491   0.760   2.765   7.381  0.1637  0.4666 -0.2592
  117MOL   H14037492   0.419   2.462   7.492  1.9796  0.9157  0.2086
  117MOL   H14137493   0.390   2.487   7.316 -1.7651 -2.1395  1.1105
  117MOL   H14237494   0.518   2.384   7.392 -0.6804 -0.9410 -0.3374
  117MOL   H14337495   0.667   2.677   7.205  0.8548  0.2511  1.9631
  117MOL   H14437496   0.503   2.722   7.242 -1.4246 -1.0651  1.7345
  117MOL   H14537497   0.542   2.565   7.182  0.0832  0.4707 -0.7675
  117MOL   C14637498   0.913   2.609   7.434  0.1848  0.6766 -0.1530
  117MOL   C14737499   1.041   2.685   7.384 -0.0446  0.0682  0.1297
  117MOL   C14837500   1.009   2.767   7.259 -0.2704 -0.1998 -0.3020
  117MOL   O14937501   0.942   2.717   7.171 -0.6385  1.0488  0.4262
  117MOL   N15037502   1.050   2.895   7.247 -0.5055  0.0341 -0.0416
  117MOL   C15137503   1.133   2.964   7.348  1.0173 -0.0520 -0.0862
  117MOL   C15237504   1.022   2.987   7.135  0.2776 -0.3581  0.3936
  117MOL   H15337505   0.936   2.554   7.525  0.2597  0.0413 -0.5494
  117MOL   H15437506   0.886   2.533   7.360  2.9309 -0.9259  0.4148
  117MOL   H15537507   1.064   2.760   7.460 -0.7446  2.2709 -1.7690
  117MOL   H15637508   1.178   3.059   7.319 -0.3568 -0.0696 -2.4027
  117MOL   H15737509   1.089   2.981   7.446 -0.0210  2.7644 -0.9894
  117MOL   H15837510   1.219   2.898   7.361  0.6501 -1.1282 -2.7830
  117MOL   H15937511   0.958   3.068   7.172 -2.7370 -1.1536 -2.7788
  117MOL   H16037512   0.969   2.948   7.048 -0.9844  1.2832  0.3838
  117MOL   H16137513   1.112   3.035   7.097 -0.7548  1.6194  0.3732
  117MOL   C16237514   1.163   2.589   7.373 -1.1373 -0.3565 -0.4782
  117MOL   C16337515   1.237   2.559   7.515  0.4524 -0.0106 -0.0997
  117MOL   C16437516   1.312   2.683   7.569 -0.0305  0.1461  0.2628
  117MOL   O16537517   1.416   2.713   7.504 -0.1271  0.6831  0.2112
  117MOL   N16637518   1.273   2.742   7.680 -0.1536  0.3080 -0.4903
  117MOL   C16737519   1.149   2.712   7.755 -0.1242  0.0546 -0.6001
  117MOL   C16837520   1.349   2.860   7.728 -0.7150 -0.4375 -1.3169
  117MOL   H16937521   1.139   2.492   7.329  1.7311 -2.1064  1.6641
  117MOL   H17037522   1.233   2.637   7.304 -2.9170 -0.5849 -2.5018
  117MOL   H17137523   1.155   2.513   7.569  1.3405 -1.6078 -0.0552
  117MOL   H17237524   1.108   2.792   7.816  0.4561  0.5124 -0.8087
  117MOL   H17337525   1.067   2.677   7.693 -1.6966  2.9149 -0.2073
  117MOL   H17437526   1.179   2.630   7.820 -0.6668 -1.2658 -1.9757
  117MOL   H17537527   1.360   2.859   7.836  0.6720  0.3720 -1.4393
  117MOL   H17637528   1.316   2.959   7.698  0.9764  0.2649 -0.9003
  117MOL   H17737529   1.454   2.858   7.700 -0.1800  0.4153  0.5663
  117MOL   C17837530   1.332   2.440   7.505 -0.5019  0.1654 -0.7415
  117MOL   C17937531   1.390   2.383   7.644  0.5441 -0.8831  0.3363
  117MOL   C18037532   1.537   2.367   7.623  0.8516 -0.8907  0.1359
  117MOL   O18137533   1.572   2.300   7.526  0.6114  0.4389  0.1015
  117MOL   N18237534   1.622   2.401   7.719  0.2303  0.2697  0.7713
  117MOL   C18337535   1.594   2.497   7.818 -0.7621  0.2851 -0.0786
  117MOL   C18437536   1.763   2.357   7.711 -0.1655  0.3169 -0.5577
  117MOL   H18537537   1.299   2.362   7.436  0.3843 -0.6238 -0.2904
  117MOL   H18637538   1.407   2.468   7.431  0.8720 -0.4980  0.3611
  117MOL   H18737539   1.374   2.452   7.727 -0.5822 -1.0269  0.2509
  117MOL   H18837540   1.543   2.453   0.050  1.4060 -0.8348  0.6663
  117MOL   H18937541   1.682   2.549   0.002 -0.0488 -0.0334 -1.2887
  117MOL   H19037542   1.525   2.576   7.786 -0.6425 -0.1059 -1.3274
  117MOL   H19137543   1.808   2.339   7.808 -1.0473 -0.5329 -0.3014
  117MOL   H19237544   1.822   2.434   7.661  0.2897 -0.1301 -0.7080
  117MOL   H19337545   1.763   2.259   7.664  1.5204 -1.9106  3.8263
  117MOL   C19437546   1.334   2.240   7.682  0.5233  0.5113 -0.2928
  117MOL   C19537547   1.190   2.232   7.727  0.2705 -0.0222  0.4542
  117MOL   C19637548   1.156   2.302   0.011 -0.0616  0.7648  0.1833
  117MOL   O19737549   1.248   2.298   0.092  0.2608  0.3800 -0.0115
  117MOL   N19837550   1.041   2.363   0.036  0.1383  0.1560 -0.2613
  117MOL   C19937551   0.916   2.335   7.816  0.2285 -0.0396  0.1245
  117MOL   C20037552   1.018   2.438   0.164  0.1757 -0.1826  0.2069
  117MOL   H20137553   1.352   2.173   7.598  0.0773 -0.2368  0.1930
  117MOL   H20237554   1.401   2.190   7.752 -1.2550 -0.9318  0.4427
  117MOL   H20337555   1.123   2.272   7.651 -0.5780 -2.8133 -0.3009
  117MOL   H20437556   0.897   2.377   7.718 -1.6900 -0.7866  0.1675
  117MOL   H20537557   0.897   2.228   7.807  1.3082 -0.3882  1.7363
  117MOL   H20637558   0.833   2.371   0.023 -0.9891 -1.4990 -0.6605
  117MOL   H20737559   0.988   2.368   0.242 -0.2102  1.7406  1.8207
  117MOL   H20837560   0.946   2.520   0.166  1.2939  0.8195 -0.1871
  117MOL   H20937561   1.111   2.473   0.208 -0.2025  0.1022  0.7917
  117MOL   C21037562   1.148   2.082   7.733  0.0409  0.2216  0.0145
  117MOL   C21137563   1.094   2.031   7.595 -1.2993  0.3376  0.1547
  117MOL   C21237564   0.950   2.076   7.573 -0.2750 -0.8375  0.1822
  117MOL   O21337565   0.867   2.044   7.659  0.3407 -0.3620 -0.1199
  117MOL   N21437566   0.920   2.159   7.472 -0.0813 -0.3199 -0.1703
  117MOL   C21537567   0.780   2.210   7.451 -0.3612  0.6965  0.0665
  117MOL   C21637568   1.018   2.198   7.370  0.1701 -1.3483 -0.1113
  117MOL   H21737569   1.235   2.024   7.765 -0.0565  1.3176  2.4155
  117MOL   H21837570   1.080   2.068   7.817 -0.3706  1.9975  0.0006
  117MOL   H21937571   1.165   2.057   7.516 -1.3726 -0.4580 -0.1713
  117MOL   H22037572   0.755   2.222   7.345  2.7519 -1.2392 -0.9495
  117MOL   H22137573   0.717   2.132   7.492 -1.0867  1.4343  0.3839
  117MOL   H22237574   0.764   2.305   7.503 -0.4285  0.1824  0.9945
  117MOL   H22337575   1.102   2.254   7.412 -1.2963  1.4504 -0.7922
  117MOL   H22437576   0.977   2.246   7.281 -0.9866 -1.1009  0.5492
  117MOL   H22537577   1.070   2.110   7.330  1.1735 -1.5447  1.5473
  117MOL   C22637578   1.107   1.872   7.583 -0.0033  0.8978  0.1836
  117MOL   C22737579   1.105   1.805   7.435 -0.1018  0.2212 -0.5405
  117MOL   C22837580   1.000   1.682   7.433 -0.6178 -0.1412  0.9943
  117MOL   O22937581   1.012   1.586   7.513  0.0591 -0.1387 -0.7643
  117MOL   N23037582   0.909   1.687   7.334 -0.2022 -0.1139 -0.4034
  117MOL   C23137583   0.824   1.572   7.307 -0.3747 -0.1919 -0.0110
  117MOL   C23237584   0.885   1.808   7.258 -0.1173 -0.2954  0.2965
  117MOL   H23337585   1.181   1.821   7.644  0.9110  1.0016 -0.8123
  117MOL   H23437586   1.020   1.844   7.642 -0.3592  2.1091  0.2570
  117MOL   H23537587   1.078   1.891   7.374 -1.7759  0.3542  0.3363
  117MOL   H23637588   0.748   1.572   7.385  0.0343  0.0412  0.3940
  117MOL   H23737589   0.790   1.553   7.205 -0.7065 -1.4970  0.3338
  117MOL   H23837590   0.890   1.488   7.324  0.9698  0.6193 -1.0923
  117MOL   H23937591   0.796   1.797   7.196  0.1248  1.3869 -0.3765
  117MOL   H24037592   0.969   1.831   7.192 -1.4333  0.9699 -0.9621
  117MOL   H24137593   0.859   1.887   7.329 -0.1304  2.7953 -3.0168
  117MOL   C24237594   1.257   1.768   7.407  1.0994 -0.1871  0.8216
  117MOL   C24337595   1.288   1.754   7.247 -0.0702 -1.0426  0.3860
  117MOL   C24437596   1.218   1.633   7.192 -0.5376 -0.9747 -0.4886
  117MOL   O24537597   1.221   1.530   7.252 -0.1895  0.8169  0.5941
  117MOL   N24637598   1.158   1.641   7.070  0.1651 -0.1972  0.3654
  117MOL   C24737599   1.078   1.536   7.012  0.1587 -0.4263 -0.4170
  117MOL   C24837600   1.186   1.742   6.969  0.0613  0.0042 -0.5108
  117MOL   H24937601   1.303   1.861   7.443  1.4184 -0.1163  0.2278
  117MOL   H25037602   1.284   1.676   7.459  1.5922 -0.3036  0.3631
  117MOL   H25137603   1.242   1.845   7.209  1.9363 -0.5305 -0.8916
  117MOL   H25237604   1.015   1.583   6.937  1.7756  1.7479 -0.4379
  117MOL   H25337605   1.144   1.462   6.966 -0.6551  0.1445 -2.5791
  117MOL   H25437606   1.022   1.486   7.091  0.9173  0.0523  0.4307
  117MOL   H25537607   1.245   1.826   7.004 -1.1399  0.4298  0.5182
  117MOL   H25637608   1.094   1.797   6.947 -0.4185 -0.2910  0.7459
  117MOL   H25737609   1.226   1.695   6.879  0.8124 -0.2149 -0.0699
  117MOL   C25837610   1.436   1.737   7.212 -0.4511  0.7369  0.1594
  117MOL   C25937611   1.503   1.877   7.195 -0.3448  0.5794 -0.2587
  117MOL   C26037612   1.451   1.960   7.081 -0.2107  0.1668  0.3638
  117MOL   O26137613   1.486   1.926   6.963  0.5933  0.3290 -0.1097
  117MOL   N26237614   1.377   2.068   7.104 -0.2921 -0.4502 -0.1884
  117MOL   C26337615   1.359   2.118   7.236  0.0318 -0.4551  0.1220
  117MOL   C26437616   1.316   2.150   7.002  0.0864  0.1700  0.2475
  117MOL   H26537617   1.489   1.676   7.286 -1.4375 -0.6044 -0.2052
  117MOL   H26637618   1.457   1.680   7.121 -2.6692 -0.5109  0.3936
  117MOL   H26737619   1.493   1.931   7.288 -4.1979 -1.0408  0.3751
  117MOL   H26837620   1.453   2.145   7.284  0.0652  0.5071 -0.4723
  117MOL   H26937621   1.313   2.217   7.244 -0.0485 -0.4598 -0.2590
  117MOL   H27037622   1.312   2.049   7.306 -1.4856  2.2411  1.8480
  117MOL   H27137623   1.217   2.189   7.026  0.6002  1.1287  0.8376
  117MOL   H27237624   1.299   2.102   6.906  1.0076 -0.8104  0.5675
  117MOL   H27337625   1.379   2.236   6.978  2.1112 -1.3502 -0.0139
  117MOL   C27437626   1.656   1.864   7.171 -0.2059 -0.3019 -0.6605
  117MOL   C27537627   1.739   1.817   7.292 -1.0929  0.1378 -0.1062
  117MOL   C27637628   1.744   1.920   7.408 -0.0431 -0.1199 -0.4742
  117MOL   O27737629   1.797   2.028   7.386 -0.4110  0.0264  0.3178
  117MOL   N27837630   1.692   1.887   7.526 -0.0503 -0.3695 -0.7663
  117MOL   C27937631   1.700   1.984   7.632 -0.2359 -0.9453  0.0321
  117MOL   C28037632   1.635   1.755   7.567  0.1614 -0.2276  0.3408
  117MOL   H28137633   1.668   1.789   7.093  2.6647 -0.9089  0.3080
  117MOL   H28237634   1.704   1.954   7.133 -0.8945  0.5722  0.4992
  117MOL   H28337635   1.701   1.723   7.331 -0.0668  0.7414  2.4316
  117MOL   H28437636   1.624   2.062   7.639 -0.4004 -1.0263 -0.8189
  117MOL   H28537637   1.703   1.931   7.727  1.0625 -1.6753 -0.4012
  117MOL   H28637638   1.801   2.024   7.645 -0.8933  0.4023  1.0994
  117MOL   H28737639   1.549   1.737   7.502  0.4252  0.1429 -0.1077
  117MOL   H28837640   1.614   1.753   7.674  1.4574 -2.3536  0.5731
  117MOL   H28937641   1.702   1.671   7.551  2.8743  2.0349 -0.7066
  117MOL   C29037642   1.882   1.783   7.238  0.3550 -0.8534 -0.4537
  117MOL   C29137643   2.006   1.770   7.338  0.9447  0.1516 -0.2716
  117MOL   C29237644   2.133   1.795   7.260 -0.8873  0.5546 -0.0878
  117MOL   O29337645   2.206   1.699   7.223  0.2561 -0.0304  0.2213
  117MOL   N29437646   2.177   1.928   7.243  0.5546  0.1711  0.0199
  117MOL   C29537647   2.297   1.958   7.162 -0.1604  0.5707  0.2305
  117MOL   C29637648   2.106   2.052   7.281  0.5926 -0.1141  0.7684
  117MOL   H29737649   1.888   1.686   7.189  0.2709 -0.4010 -1.3599
  117MOL   H29837650   1.912   1.853   7.160 -0.8766 -0.6979 -0.7889
  117MOL   H29937651   1.999   1.856   7.405  3.5801  1.3322 -1.4439
  117MOL   H30037652   2.384   1.900   7.194 -1.0079 -0.0661  1.4147
  117MOL   H30137653   2.277   1.921   7.062  0.6257  0.3870  0.1348
  117MOL   H30237654   2.322   2.064   7.159 -2.0476  1.1003  2.0079
  117MOL   H30337655   2.009   2.066   7.233  1.4440  1.0397 -0.6599
  117MOL   H30437656   2.160   2.146   7.272 -2.1179  1.4769  0.4797
  117MOL   H30537657   2.081   2.056   7.387  0.9716 -2.9252  1.0026
  117MOL   C30637658   1.996   1.639   7.421  1.2220  0.1263  0.2711
  117MOL   C30737659   2.086   1.629   7.539 -0.0462  0.2029 -0.0142
  117MOL   C30837660   2.037   1.696   7.669 -0.2846 -0.1191 -0.8741
  117MOL   O30937661   2.062   1.816   7.684 -0.2268  0.2910  0.5162
  117MOL   N31037662   1.971   1.627   7.765  0.5966  0.6969  0.2125
  117MOL   C31137663   1.917   1.701   0.025  0.4404  0.5209  1.0415
  117MOL   C31237664   1.969   1.480   7.775  0.3544  0.5371 -0.0794
  117MOL   H31337665   1.896   1.620   7.460  0.9541  0.7541 -0.1023
  117MOL   H31437666   2.026   1.566   7.346  0.0876 -0.5621  0.4963
  117MOL   H31537667   2.116   1.525   7.556  0.1597 -0.3017 -3.0810
  117MOL   H31637668   1.877   1.635   0.102  0.2618  2.5204  2.7057
  117MOL   H31737669   1.988   1.761   0.082 -1.7115  1.8112  2.4345
  117MOL   H31837670   1.832   1.764   7.853  0.0893 -0.1197  0.6301
  117MOL   H31937671   1.876   1.465   7.831  0.5778  1.0551  0.4409
  117MOL   H32037672   2.055   1.455   7.837 -0.2656 -0.7796  0.2830
  117MOL   H32137673   1.961   1.424   7.682 -0.9613 -1.4425  1.1845
  117MOL   H32237674   2.177   1.684   7.514 -0.7919  1.2546 -0.4230
  118MOL     C137675   1.887   3.944   1.226  0.3719  0.1451  0.0464
  118MOL     C237676   1.736   3.964   1.247  0.1946 -0.2795 -0.0487
  118MOL     C337677   1.708   4.117   1.257  0.4795  0.7944 -0.1911
  118MOL     O437678   1.778   4.182   1.330  0.2514  0.4565  0.8787
  118MOL     N537679   1.617   4.177   1.172 -0.1312  0.5553  0.2961
  118MOL     C637680   1.602   4.321   1.173  0.0369  0.2211  0.2782
  118MOL     C737681   1.515   4.092   1.105 -0.3579  0.2400 -0.2092
  118MOL     H837682   1.925   3.846   1.200 -2.3853 -0.5836 -1.4096
  118MOL     H937683   1.943   3.978   1.313  1.8116 -0.0665 -0.7928
  118MOL    H1037684   1.692   3.927   1.155  0.4285 -1.5460  0.3332
  118MOL    H1137685   1.508   4.362   1.137 -0.7382 -3.9441 -2.7842
  118MOL    H1237686   1.618   4.361   1.273 -2.2031  0.6095  0.5053
  118MOL    H1337687   1.687   4.361   1.118  0.0986  1.0910  0.9956
  118MOL    H1437688   1.469   4.029   1.181 -2.3238 -0.0726 -1.6001
  118MOL    H1537689   1.545   4.025   1.024  1.7759  0.0254  0.7297
  118MOL    H1637690   1.435   4.146   1.054  1.3711 -0.3059 -3.6341
  118MOL    H1737691   1.907   4.009   1.141 -1.3997  0.6406 -0.0197
  118MOL    C1837692   1.678   3.883   1.367 -0.0527  0.5597 -0.0094
  118MOL    C1937693   1.648   3.733   1.340  0.0376 -0.2207  0.4044
  118MOL    C2037694   1.536   3.724   1.241  0.2874 -0.1052 -0.2606
  118MOL    O2137695   1.434   3.780   1.273  0.2455 -0.4121 -0.3545
  118MOL    N2237696   1.553   3.655   1.123  0.0103 -0.2417  0.1057
  118MOL    C2337697   1.438   3.662   1.024  0.4451  0.3200  0.2025
  118MOL    C2437698   1.670   3.566   1.094 -0.2378  0.9404  0.2431
  118MOL    H2537699   1.754   3.879   1.445  1.5001 -1.8137 -1.5795
  118MOL    H2637700   1.595   3.935   1.415 -1.7276 -0.5780 -1.5867
  118MOL    H2737701   1.737   3.688   1.296 -0.4086 -1.2927  0.6026
  118MOL    H2837702   1.423   3.766   0.995  1.4483  0.5454  0.4776
  118MOL    H2937703   1.477   3.608   0.937  1.7670 -0.3052  1.1675
  118MOL    H3037704   1.343   3.618   1.053 -0.4157  1.3219 -1.0209
  118MOL    H3137705   1.761   3.626   1.089  0.4932 -0.1852 -0.1499
  118MOL    H3237706   1.662   3.518   0.996 -0.3220 -0.8794  1.1278
  118MOL    H3337707   1.685   3.496   1.176 -1.6962 -1.1121 -1.1706
  118MOL    C3437708   1.610   3.656   1.473 -0.0817  0.1957 -0.3373
  118MOL    C3537709   1.693   3.526   1.503 -0.0663 -0.0525  0.7565
  118MOL    C3637710   1.647   3.397   1.435 -0.1108  0.3182  0.0124
  118MOL    O3737711   1.531   3.389   1.402 -0.6205  0.0328  0.0389
  118MOL    N3837712   1.730   3.291   1.411 -0.8679  0.8891 -0.4039
  118MOL    C3937713   1.673   3.164   1.368 -0.1364  0.5135 -0.8345
  118MOL    C4037714   1.873   3.288   1.431  0.1709 -0.4135  0.2961
  118MOL    H4137715   1.610   3.731   1.551  1.0775 -1.5748  1.4102
  118MOL    H4237716   1.504   3.628   1.469  0.1194 -0.6842  0.5322
  118MOL    H4337717   1.794   3.542   1.466 -1.3987 -0.9527 -3.4852
  118MOL    H4437718   1.729   3.073   1.390  1.9491  1.3991 -2.3137
  118MOL    H4537719   1.580   3.139   1.419  0.7482 -1.1840  0.0065
  118MOL    H4637720   1.658   3.166   1.260  0.2050 -1.2850 -0.9245
  118MOL    H4737721   1.923   3.290   1.334 -0.6385 -1.7864 -0.1665
  118MOL    H4837722   1.894   3.189   1.471 -1.4223 -1.8153 -2.2233
  118MOL    H4937723   1.910   3.367   1.496 -2.1476  0.8191  0.1764
  118MOL    C5037724   1.706   3.509   1.653  0.2028  0.1902 -0.5448
  118MOL    C5137725   1.802   3.605   1.732 -0.3529  0.3651 -0.3345
  118MOL    C5237726   1.943   3.549   1.745 -0.9065  0.5194 -0.7309
  118MOL    O5337727   1.957   3.447   1.814 -0.0788  0.2556 -0.8673
  118MOL    N5437728   2.051   3.601   1.687  0.2551 -0.5388  0.2014
  118MOL    C5537729   2.049   3.727   1.613 -0.1505 -0.0503  0.1494
  118MOL    C5637730   2.182   3.538   1.699  0.4407 -0.9332 -0.2883
  118MOL    H5737731   1.608   3.513   1.700  2.0933  0.3648  3.6354
  118MOL    H5837732   1.743   3.409   1.674  0.8491  0.3954 -0.6802
  118MOL    H5937733   1.793   3.698   1.676 -1.2199  0.1157 -0.6101
  118MOL    H6037734   2.151   3.758   1.593 -0.5477  1.1003 -0.1143
  118MOL    H6137735   1.994   3.708   1.521 -0.4309  0.0867  0.2884
  118MOL    H6237736   2.006   3.804   1.677  0.2430 -0.5597  1.0490
  118MOL    H6337737   2.232   3.588   1.782 -2.2412 -1.0707  1.4884
  118MOL    H6437738   2.239   3.543   1.606 -0.2942  0.5565 -0.6837
  118MOL    H6537739   2.182   3.432   1.720  2.8901 -1.2550 -1.7429
  118MOL    C6637740   1.740   3.641   1.867  0.1772  0.3002  0.1400
  118MOL    C6737741   1.804   3.765   1.942  0.1561 -0.0507 -0.5747
  118MOL    C6837742   1.778   3.751   2.093  0.5450 -0.2321  0.2538
  118MOL    O6937743   1.669   3.786   2.141 -0.9047 -0.2318 -0.0215
  118MOL    N7037744   1.871   3.712   2.182  0.1408  0.2580  0.0847
  118MOL    C7137745   1.836   3.712   2.326  0.5363 -0.5861 -0.4173
  118MOL    C7237746   1.986   3.629   2.145  0.0497 -0.4455 -0.2762
  118MOL    H7337747   1.634   3.661   1.849  0.0264 -1.6532 -1.3537
  118MOL    H7437748   1.740   3.556   1.935 -1.1271  0.4883  0.3862
  118MOL    H7537749   1.912   3.758   1.924 -0.0018  0.7428 -1.9032
  118MOL    H7637750   1.806   3.813   2.355 -1.5532 -1.1690 -0.4767
  118MOL    H7737751   1.755   3.644   2.354 -0.1708  0.2183 -0.4741
  118MOL    H7837752   1.928   3.698   2.383  0.1336 -0.6483  0.2229
  118MOL    H7937753   2.016   3.618   2.040 -0.1286 -0.6982 -0.3012
  118MOL    H8037754   1.966   3.524   2.170  0.7272 -0.1401  1.6108
  118MOL    H8137755   2.069   3.660   2.209  0.3850 -0.2781 -0.7874
  118MOL    C8237756   1.756   3.894   1.880 -0.5276 -0.3343  0.1013
  118MOL    C8337757   1.826   4.030   1.911  0.3329  0.4326 -0.1166
  118MOL    C8437758   1.963   4.029   1.841  0.2820  0.6170  0.1148
  118MOL    O8537759   2.061   3.981   1.896  0.9598  0.2863 -0.0610
  118MOL    N8637760   1.984   4.086   1.720 -0.2707  0.0865  0.4989
  118MOL    C8737761   2.114   4.118   1.665 -0.1796  0.0031  0.1605
  118MOL    C8837762   1.882   4.116   1.616  0.1963 -0.2226  0.8382
  118MOL    H8937763   1.749   3.872   1.774 -2.6539 -0.7782  0.2971
  118MOL    H9037764   1.651   3.914   1.905 -1.1394 -0.8371 -1.9632
  118MOL    H9137765   1.766   4.101   1.854 -0.5069 -0.0961  0.1026
  118MOL    H9237766   2.185   4.144   1.744 -0.6559 -0.5063  0.7609
  118MOL    H9337767   2.160   4.040   1.604 -1.6651 -0.2984 -0.5890
  118MOL    H9437768   2.111   4.208   1.603 -2.9809  0.7524  1.3056
  118MOL    H9537769   1.877   4.224   1.600  0.7890 -0.0990  1.4436
  118MOL    H9637770   1.783   4.078   1.638 -0.7498  0.8418 -1.4515
  118MOL    H9737771   1.906   4.067   1.521 -1.8406 -0.5944  0.5099
  118MOL    C9837772   1.833   4.070   2.059 -0.0518 -0.0627 -0.2151
  118MOL    C9937773   1.881   4.221   2.102 -0.6984  0.0527 -0.1656
  118MOL   C10037774   1.773   4.326   2.057  0.7206 -0.0889  0.2695
  118MOL   O10137775   1.728   4.329   1.947  0.2245  0.9867  0.1289
  118MOL   N10237776   1.734   4.427   2.139 -0.1141  0.0169  0.3888
  118MOL   C10337777   1.640   4.535   2.101 -0.3878  0.0261 -0.5678
  118MOL   C10437778   1.787   4.441   2.277  0.1913 -0.0831  0.3148
  118MOL   H10537779   1.736   4.055   2.106  1.3446 -0.0275  2.8111
  118MOL   H10637780   1.905   3.999   2.099  1.3101 -0.6064 -3.4956
  118MOL   H10737781   1.871   4.229   2.211  1.1995  0.4646 -0.0072
  118MOL   H10837782   1.693   4.598   2.029 -1.6922  0.6137 -1.0200
  118MOL   H10937783   1.541   4.508   2.064 -0.6757  1.0525 -0.5416
  118MOL   H11037784   1.621   4.609   2.179  0.6526 -0.7724  0.4656
  118MOL   H11137785   1.727   4.375   2.340  0.9106 -0.2156  0.8757
  118MOL   H11237786   1.776   4.538   2.326 -4.9140  0.5801 -1.8256
  118MOL   H11337787   1.895   4.426   2.289  0.1385  0.1412  1.1254
  118MOL   C11437788   2.025   4.257   2.054 -0.0156  0.5245  0.2204
  118MOL   C11537789   2.137   4.194   2.148 -0.4800 -0.2912  0.2458
  118MOL   C11637790   2.135   4.262   2.289 -0.1633  0.5172  0.1371
  118MOL   O11737791   2.159   4.379   2.301  0.5333 -0.2801 -0.1799
  118MOL   N11837792   2.119   4.187   2.398 -0.0955  0.3071 -0.7084
  118MOL   C11937793   2.132   4.239   2.538 -0.2449 -0.2719 -0.5159
  118MOL   C12037794   2.076   4.048   2.407  0.5726  0.2774 -0.0910
  118MOL   H12137795   2.047   4.238   1.949  0.8457  0.5372  0.3948
  118MOL   H12237796   2.032   4.365   2.063  0.5492  0.5176 -0.1639
  118MOL   H12337797   2.111   4.088   2.150 -1.3718 -0.1057 -0.8742
  118MOL   H12437798   2.177   4.337   2.552  0.4201 -0.6982  0.3343
  118MOL   H12537799   2.039   4.235   2.596  0.1682 -0.5660  0.1227
  118MOL   H12637800   2.190   4.167   2.595  1.4889  1.7424  0.3272
  118MOL   H12737801   2.170   3.995   2.418  0.1082 -0.0864  2.4286
  118MOL   H12837802   2.017   4.020   2.320  1.1411 -0.2944 -0.2966
  118MOL   H12937803   2.008   4.021   2.488 -0.1529 -1.5597 -1.2630
  118MOL   C13037804   2.271   4.209   2.076 -0.5510  0.5800 -0.5841
  118MOL   C13137805   2.401   4.172   2.158 -1.2099  0.3022 -0.6031
  118MOL   C13237806   2.523   4.223   2.081  0.1110 -0.4890  0.0892
  118MOL   O13337807   2.551   4.162   1.981  0.0497  0.2588  0.4131
  118MOL   N13437808   2.598   4.331   2.119  0.0967  0.6532  0.0848
  118MOL   C13537809   2.732   4.358   2.061 -0.0084  0.3190 -0.5742
  118MOL   C13637810   2.547   4.422   2.223  0.6397  0.3030  0.0109
  118MOL   H13737811   2.283   4.133   1.999 -0.3007  1.9871 -1.9669
  118MOL   H13837812   2.287   4.307   2.030  0.1082  0.7075 -0.1034
  118MOL   H13937813   2.396   4.222   2.255  0.7251  0.5467 -0.6243
  118MOL   H14037814   2.741   4.332   1.955  3.0830 -3.4593  0.4985
  118MOL   H14137815   2.756   4.464   2.068  0.3305  0.3510 -2.0174
  118MOL   H14237816   2.810   4.296   2.105 -1.4599 -0.7688  0.4867
  118MOL   H14337817   2.599   4.517   2.212  0.4600  0.1361 -2.4013
  118MOL   H14437818   2.565   4.381   2.322  1.0286 -1.3145 -0.7216
  118MOL   H14537819   2.439   4.442   2.219  0.5506  0.0377  1.0353
  118MOL   C14637820   2.416   4.026   2.202 -0.3398 -0.2701  0.4368
  118MOL   C14737821   2.546   3.984   2.279 -0.6400  0.4136  0.0066
  118MOL   C14837822   2.560   3.834   2.271 -0.6957  0.5116 -0.0105
  118MOL   O14937823   2.474   3.765   2.323 -0.5446  0.8968  0.7742
  118MOL   N15037824   2.671   3.772   2.217  0.1041  0.0629 -0.3491
  118MOL   C15137825   2.701   3.630   2.228 -0.0642 -0.5806 -1.1079
  118MOL   C15237826   2.780   3.842   2.145 -0.2383 -0.8454 -0.4086
  118MOL   H15337827   2.329   4.004   2.264  0.3083 -2.1900  0.6811
  118MOL   H15437828   2.409   3.967   2.110  0.6200  0.3183 -0.0205
  118MOL   H15537829   2.636   4.030   2.238  0.0744 -0.8397  0.1389
  118MOL   H15637830   2.782   3.588   2.168  1.1980  0.0319  0.1169
  118MOL   H15737831   2.728   3.594   2.327 -0.8338 -1.5452 -1.2403
  118MOL   H15837832   2.608   3.586   2.192  0.0485 -0.7038 -1.2516
  118MOL   H15937833   2.871   3.871   2.197 -0.4650  0.1729 -0.5683
  118MOL   H16037834   2.729   3.928   2.102  1.4074 -0.6652 -2.0668
  118MOL   H16137835   2.823   3.780   2.066 -1.3388 -2.8224  0.5065
  118MOL   C16237836   2.544   4.026   2.434  0.0963  0.3464 -0.4197
  118MOL   C16337837   2.679   4.039   2.517  0.5702 -0.1587  0.3747
  118MOL   C16437838   2.782   4.140   2.455  0.1166 -0.5457 -0.1667
  118MOL   O16537839   2.868   4.092   2.382 -0.0967  0.0497  0.2631
  118MOL   N16637840   2.779   4.270   2.493  0.0081 -0.2696  0.3526
  118MOL   C16737841   2.893   4.354   2.456  0.2832  0.5811  0.4790
  118MOL   C16837842   2.688   4.342   2.581 -0.3659 -0.2370  0.0261
  118MOL   H16937843   2.496   4.123   2.443 -0.5541  0.0504 -0.6778
  118MOL   H17037844   2.488   3.945   2.480 -1.6606  0.8805 -1.5574
  118MOL   H17137845   2.646   4.078   2.613  0.2365 -1.4774  0.7996
  118MOL   H17237846   2.991   4.317   2.486  1.8152  3.6408 -0.5368
  118MOL   H17337847   2.896   4.353   2.347  0.9156  0.4410  0.4981
  118MOL   H17437848   2.886   4.454   2.498  1.9652  0.4997  0.9726
  118MOL   H17537849   2.676   4.448   2.557 -0.5773 -0.3730 -0.4634
  118MOL   H17637850   2.727   4.327   2.682 -0.6457 -0.9427  0.0296
  118MOL   H17737851   2.591   4.294   2.582  0.5592 -2.1316  1.8830
  118MOL   C17837852   2.748   3.902   2.548 -1.0189  0.1688  0.6166
  118MOL   C17937853   2.852   3.876   2.658 -0.2977 -0.8871 -0.2562
  118MOL   C18037854   2.800   3.915   2.801  0.1242  0.2823 -0.6229
  118MOL   O18137855   2.775   4.034   2.828 -0.0425  0.6324 -0.0281
  118MOL   N18237856   2.759   3.817   2.888 -0.3976 -0.5684 -0.1513
  118MOL   C18337857   2.787   3.671   2.870 -0.1916  0.1391  0.0251
  118MOL   C18437858   2.699   3.847   3.017 -0.3120 -0.1911  0.1809
  118MOL   H18537859   2.678   3.818   2.555  0.1910 -0.8215  0.8431
  118MOL   H18637860   2.796   3.867   2.457  0.7726  0.7170  1.3355
  118MOL   H18737861   2.872   3.768   2.659  0.4246 -0.7567 -0.7930
  118MOL   H18837862   2.767   3.610   2.957  1.4400  0.4069  0.6060
  118MOL   H18937863   2.727   3.622   2.793 -0.0519 -1.4731  0.9233
  118MOL   H19037864   2.892   3.664   2.840 -0.1460  0.9007 -0.0053
  118MOL   H19137865   2.758   3.934   3.046 -0.1526 -0.2581  0.0606
  118MOL   H19237866   2.709   3.769   3.093 -2.2446 -1.1019 -0.4674
  118MOL   H19337867   2.597   3.884   3.009 -0.4242 -0.0873  1.9520
  118MOL   C19437868   2.995   3.939   2.636 -0.2753 -0.5415  0.1809
  118MOL   C19537869   3.077   3.864   2.533 -0.4988  0.6709 -0.4485
  118MOL   C19637870   3.134   3.736   2.591  0.2341 -0.3174 -0.4549
  118MOL   O19737871   3.223   3.740   2.674 -0.7627 -0.2648 -0.0558
  118MOL   N19837872   3.083   3.615   2.549  0.4958 -1.1338  0.6705
  118MOL   C19937873   2.969   3.591   2.465  0.6079 -0.7159  0.1526
  118MOL   C20037874   3.145   3.494   2.587  0.0250 -0.3148 -0.2482
  118MOL   H20137875   2.978   4.041   2.601 -1.4819 -0.5809  0.6427
  118MOL   H20237876   3.040   3.947   2.735  0.3967  1.2878 -0.2557
  118MOL   H20337877   3.024   3.846   2.440 -1.0099 -2.0618  0.3453
  118MOL   H20437878   2.898   3.524   2.513 -0.3730  1.4317  1.7773
  118MOL   H20537879   2.911   3.682   2.443 -0.0907 -1.1471  0.1882
  118MOL   H20637880   2.998   3.538   2.374 -1.5272 -1.1750 -0.2902
  118MOL   H20737881   3.160   3.419   2.508 -2.1852  0.3999 -1.3875
  118MOL   H20837882   3.090   3.440   2.664  0.7032 -1.3068 -0.4473
  118MOL   H20937883   3.247   3.503   2.623  0.0412 -0.4759 -0.2507
  118MOL   C21037884   3.197   3.955   2.485 -0.9179 -0.1098 -0.3274
  118MOL   C21137885   3.284   3.900   2.366 -0.6073 -0.1132 -0.1561
  118MOL   C21237886   3.189   3.868   2.244 -0.3256  0.5546 -1.1895
  118MOL   O21337887   3.151   3.750   2.236  0.5925  0.1042 -0.4435
  118MOL   N21437888   3.170   3.959   2.145  0.3804 -0.5565  0.1887
  118MOL   C21537889   3.218   4.101   2.148  0.0124  0.2115 -0.2963
  118MOL   C21637890   3.080   3.929   2.035  0.2553  0.8681  0.1288
  118MOL   H21737891   3.158   4.045   2.437  0.3783  1.3879  1.3799
  118MOL   H21837892   3.257   3.986   2.570 -1.2827 -0.5714  0.0992
  118MOL   H21937893   3.350   3.984   2.345 -2.1122  1.7019  2.0680
  118MOL   H22037894   3.228   4.148   2.245  1.3532 -2.9101  1.1447
  118MOL   H22137895   3.310   4.107   2.090 -0.0601 -0.6751 -0.5182
  118MOL   H22237896   3.140   4.161   2.101 -1.6077 -1.9224 -0.4286
  118MOL   H22337897   3.004   4.006   2.020  0.7510  1.3874  0.2459
  118MOL   H22437898   3.031   3.832   2.031  1.2054  0.4626 -2.0611
  118MOL   H22537899   3.132   3.928   1.940 -0.5978  1.5210 -0.3560
  118MOL   C22637900   3.376   3.774   2.399 -0.3004 -0.3942  0.5286
  118MOL   C22737901   3.512   3.785   2.335  0.6961 -0.3819 -0.4501
  118MOL   C22837902   3.503   3.769   2.180 -0.3193 -0.6054 -0.8971
  118MOL   O22937903   3.444   3.664   2.139 -0.1528  0.0763 -0.1127
  118MOL   N23037904   3.559   3.864   2.099  0.3479 -0.6785 -0.6343
  118MOL   C23137905   3.606   4.001   2.139  0.1449 -0.3788 -0.3377
  118MOL   C23237906   3.552   3.854   1.953  0.1399  0.1736  0.1340
  118MOL   H23337907   3.399   3.787   2.505  0.4378 -1.0894  0.4564
  118MOL   H23437908   3.328   3.676   2.401 -0.3729 -0.3687 -0.1112
  118MOL   H23537909   3.550   3.885   2.355 -1.0647  0.1620  0.2377
  118MOL   H23637910   3.654   4.062   2.062  0.7506  0.0414  0.3674
  118MOL   H23737911   3.530   4.057   2.194  2.5479  1.7873  0.8527
  118MOL   H23837912   3.683   3.989   2.215 -0.5703  2.2015  0.8318
  118MOL   H23937913   3.451   3.877   1.921 -0.7959 -0.7286  2.3759
  118MOL   H24037914   3.567   3.749   1.925  0.8223  0.1244  0.6642
  118MOL   H24137915   3.622   3.914   1.895  2.5849 -2.4292  0.2437
  118MOL   C24237916   3.611   3.673   2.386  0.4377 -0.1008  0.8251
  118MOL   C24337917   3.666   3.698   2.533  0.0898  0.1439  0.0744
  118MOL   C24437918   3.748   3.829   2.525  0.0192  1.1192  0.5039
  118MOL   O24537919   3.852   3.824   2.463  0.3782 -0.8252 -0.5995
  118MOL   N24637920   3.716   3.937   2.592 -0.2105  0.1810  0.8686
  118MOL   C24737921   3.599   3.949   2.684 -0.2774  0.5440  0.5293
  118MOL   C24837922   3.805   4.056   2.595  0.0286  0.1949 -0.0990
  118MOL   H24937923   3.559   3.578   2.398  2.7149 -1.3367  1.1590
  118MOL   H25037924   3.697   3.679   2.320 -0.5455  0.2954 -0.4322
  118MOL   H25137925   3.588   3.706   2.609 -0.5208  0.9501 -0.6319
  118MOL   H25237926   3.586   3.867   2.754 -0.0950 -1.2541 -1.4752
  118MOL   H25337927   3.589   4.035   2.750  0.8477 -1.8338  3.9198
  118MOL   H25437928   3.510   3.961   2.622 -0.0707  0.2603  0.1704
  118MOL   H25537929   3.756   4.149   2.624  0.3168  1.0731 -2.3452
  118MOL   H25637930   3.846   4.075   2.496 -1.1057 -1.3780 -0.8920
  118MOL   H25737931   3.884   4.041   2.669  0.3978  0.3650 -0.4594
  118MOL   C25837932   3.761   3.583   2.581  0.3488 -0.2436 -0.2872
  118MOL   C25937933   3.722   3.517   2.715 -0.0154  0.3477 -0.0791
  118MOL   C26037934   3.755   3.609   2.836  0.2217 -0.4539 -0.1818
  118MOL   O26137935   3.875   3.635   2.854 -0.0798 -0.1491  0.0309
  118MOL   N26237936   3.662   3.653   2.920  1.0948 -0.2869  0.1198
  118MOL   C26337937   3.515   3.621   2.914  0.0295 -0.8226  0.3903
  118MOL   C26437938   3.697   3.751   3.037 -0.2421  0.5244 -0.4811
  118MOL   H26537939   3.766   3.513   2.497 -0.7292 -0.6082 -0.0559
  118MOL   H26637940   3.863   3.622   2.585 -0.0436  0.7127  0.5534
  118MOL   H26737941   3.616   3.494   2.711 -0.3269  1.7258  0.2506
  118MOL   H26837942   3.449   3.679   2.978  0.1786 -0.1222 -0.0795
  118MOL   H26937943   3.486   3.649   2.813  2.4033 -0.4172 -0.2288
  118MOL   H27037944   3.514   3.513   2.930  0.5137 -0.6048  2.0208
  118MOL   H27137945   3.642   3.843   3.052  3.0899  2.5417 -0.2039
  118MOL   H27237946   3.803   3.774   3.024  0.6184 -2.5518  0.5921
  118MOL   H27337947   3.701   3.702   3.135  1.9694  3.0193  0.7415
  118MOL   C27437948   3.797   3.381   2.724 -0.3713 -0.2711 -0.1155
  118MOL   C27537949   3.714   3.264   2.665  0.1896 -0.7490  0.1325
  118MOL   C27637950   3.581   3.250   2.742  0.0331 -0.0497  0.0106
  118MOL   O27737951   3.575   3.278   2.861 -0.4034 -0.7841 -0.3957
  118MOL   N27837952   3.469   3.215   2.680 -0.3153  0.1962  0.0707
  118MOL   C27937953   3.339   3.217   2.756 -0.1743  0.1174  0.0101
  118MOL   C28037954   3.464   3.169   2.540 -0.3020 -0.4974  0.7607
  118MOL   H28137955   3.888   3.396   2.666  0.1863 -0.1564  0.7690
  118MOL   H28237956   3.836   3.355   2.823  0.2373  0.2742 -0.2115
  118MOL   H28337957   3.695   3.293   2.562 -2.0518 -0.2080  0.6905
  118MOL   H28437958   3.351   3.196   2.863  1.3451  1.0639  0.0332
  118MOL   H28537959   3.272   3.303   2.747  1.1489  1.0225 -1.3189
  118MOL   H28637960   3.278   3.134   2.718 -0.9204  0.8016 -0.3036
  118MOL   H28737961   3.519   3.240   2.478 -0.8379 -2.2501 -1.8161
  118MOL   H28837962   3.362   3.176   2.504 -0.4693 -0.2599  1.2780
  118MOL   H28937963   3.495   3.066   2.522 -0.4023 -0.0567 -2.1013
  118MOL   C29037964   3.801   3.133   2.670 -0.1681 -1.0097 -0.2107
  118MOL   C29137965   3.876   3.095   2.537 -0.0829  0.0991  0.2264
  118MOL   C29237966   3.899   2.947   2.534  0.7795 -0.2967 -0.4942
  118MOL   O29337967   3.939   2.886   2.635 -0.0422 -0.3231  0.3628
  118MOL   N29437968   3.898   2.885   2.416  0.0891 -0.3923  0.1901
  118MOL   C29537969   3.917   2.736   2.404  0.5938 -0.3820 -0.5691
  118MOL   C29637970   3.865   2.954   2.291  0.2011 -0.8838  0.2204
  118MOL   H29737971   3.871   3.137   2.754 -0.5943 -2.1089  0.2044
  118MOL   H29837972   3.729   3.053   2.688 -0.7152 -0.6875 -0.9565
  118MOL   H29937973   3.802   3.119   2.461 -2.1540 -1.0547  1.8062
  118MOL   H30037974   3.989   2.687   2.470  0.7799 -0.0026 -0.4887
  118MOL   H30137975   3.818   2.698   2.428  0.1424  0.7182 -0.6612
  118MOL   H30237976   3.939   2.706   2.302  2.5043 -3.9535  0.8034
  118MOL   H30337977   3.897   2.892   2.207  4.2402  1.4448 -0.0853
  118MOL   H30437978   3.910   3.048   2.261 -0.4970  0.0516  2.0020
  118MOL   H30537979   3.760   2.979   2.281  0.6913  1.0591 -0.1726
  118MOL   C30637980   3.997   3.181   2.500 -0.3196  0.0926 -0.0645
  118MOL   C30737981   3.974   3.305   2.411  0.4373  0.1718 -0.9511
  118MOL   C30837982   4.005   3.283   2.263  0.0298 -0.5457 -0.3863
  118MOL   O30937983   4.097   3.208   2.236 -0.0533 -0.0615 -0.2864
  118MOL   N31037984   3.935   3.353   2.170  0.2226  0.2222  0.0161
  118MOL   C31137985   3.807   3.427   2.198 -0.0397 -0.2899 -0.3551
  118MOL   C31237986   3.973   3.350   2.035 -0.2808  0.4850  0.4377
  118MOL   H31337987   4.044   3.211   2.594  1.6819 -3.0632 -0.0193
  118MOL   H31437988   4.073   3.118   2.454 -0.0992  0.3403 -0.0405
  118MOL   H31537989   3.874   3.339   2.436  0.2940  0.0210 -1.3115
  118MOL   H31637990   3.834   3.521   2.246  0.0736 -1.7089  2.4663
  118MOL   H31737991   3.761   3.454   2.103 -0.6610  4.7823  1.2194
  118MOL   H31837992   3.735   3.373   2.259 -0.7900  1.4784  0.3495
  118MOL   H31937993   4.078   3.377   2.018 -0.1908 -0.7047 -1.0046
  118MOL   H32037994   3.913   3.411   1.967 -0.5446 -1.1543 -0.8468
  118MOL   H32137995   3.970   3.250   1.991  0.9441  1.1852 -1.3020
  118MOL   H32237996   4.037   3.386   2.446  0.0333  0.7015 -1.4487
  119MOL     C137997   0.837   6.645   0.358 -0.0499 -0.0397 -0.2464
  119MOL     C237998   0.932   6.523   0.318  0.5562 -0.1761  0.2247
  119MOL     C337999   0.891   6.462   0.184  0.1691 -0.3046  0.7707
  119MOL     O438000   0.773   6.426   0.172  0.0682  0.1645  0.0320
  119MOL     N538001   0.991   6.452   0.088  0.7545 -0.3700  0.4639
  119MOL     C638002   1.129   6.497   0.118 -0.7841 -0.2129  0.3722
  119MOL     C738003   0.965   6.413   7.804 -0.5991  0.9541  0.4344
  119MOL     H838004   0.859   6.725   0.287  0.5535 -1.4670 -1.7185
  119MOL     H938005   0.870   6.682   0.455 -0.3552 -2.1106  0.6745
  119MOL    H1038006   1.024   6.581   0.309  0.9032 -0.5944  0.9807
  119MOL    H1138007   1.192   6.482   0.031 -0.8437  0.1249  0.2700
  119MOL    H1238008   1.128   6.606   0.128 -0.9528  0.1297 -2.9223
  119MOL    H1338009   1.176   6.461   0.209 -2.5281  2.6779  2.5470
  119MOL    H1438010   1.022   6.326   7.772 -0.3324  1.1243  0.4379
  119MOL    H1538011   1.010   6.493   7.745 -0.2224 -0.3300 -1.0362
  119MOL    H1638012   0.861   6.407   7.771 -0.5408  0.2115  0.3845
  119MOL    H1738013   0.731   6.620   0.353 -0.4685  1.7971 -0.8238
  119MOL    C1838014   0.944   6.415   0.429 -0.6508 -0.3058 -0.3013
  119MOL    C1938015   1.025   6.441   0.556 -0.3937  0.0156 -0.1371
  119MOL    C2038016   1.172   6.462   0.523 -0.5545  0.5864 -0.6434
  119MOL    O2138017   1.240   6.359   0.491 -0.1540 -0.0462  1.1628
  119MOL    N2238018   1.230   6.584   0.537  0.0846 -0.2558  0.7484
  119MOL    C2338019   1.380   6.603   0.510  0.8603  0.1384 -0.2695
  119MOL    C2438020   1.158   6.701   0.580  0.7415  0.4837  0.6110
  119MOL    H2538021   0.843   6.399   0.466 -0.8140  3.0420  0.8831
  119MOL    H2638022   0.982   6.322   0.387  1.9674  0.1355  0.9880
  119MOL    H2738023   0.980   6.523   0.611 -1.3359  0.6712 -1.8264
  119MOL    H2838024   1.444   6.535   0.566 -1.1430 -1.5447  0.0274
  119MOL    H2938025   1.405   6.579   0.407 -0.2383  0.0583 -0.5242
  119MOL    H3038026   1.414   6.706   0.522  0.8213  0.2388 -0.9857
  119MOL    H3138027   1.111   6.737   0.489  1.0390  1.8386  0.9770
  119MOL    H3238028   1.224   6.785   0.605  1.2862 -0.0171  0.8715
  119MOL    H3338029   1.089   6.676   0.661  0.5925  1.1589  0.6994
  119MOL    C3438030   0.999   6.321   0.649 -0.0776  0.3684 -0.0370
  119MOL    C3538031   0.856   6.287   0.702 -0.2971 -0.4285  0.1943
  119MOL    C3638032   0.793   6.409   0.780  0.0635 -0.1389 -0.5037
  119MOL    O3738033   0.856   6.456   0.878 -0.0935 -0.5586  0.7529
  119MOL    N3838034   0.687   6.477   0.725  0.3433 -0.3121  0.8177
  119MOL    C3938035   0.574   6.406   0.656  0.3811  0.7527 -0.2663
  119MOL    C4038036   0.661   6.618   0.756  0.0701 -0.3172 -0.4274
  119MOL    H4138037   1.030   6.234   0.590  0.6760  1.7710 -1.7448
  119MOL    H4238038   1.074   6.314   0.728 -1.3756  1.1226  1.2709
  119MOL    H4338039   0.797   6.262   0.613 -0.8159  0.4764  0.2789
  119MOL    H4438040   0.476   6.453   0.652 -0.5208 -1.2164 -3.1831
  119MOL    H4538041   0.594   6.366   0.556  0.4541  1.1115 -0.3946
  119MOL    H4638042   0.542   6.328   0.725  2.4899  2.2681  2.5135
  119MOL    H4738043   0.750   6.675   0.728 -0.2255  0.5826  0.4584
  119MOL    H4838044   0.641   6.639   0.861  0.9701  0.3916 -0.3913
  119MOL    H4938045   0.587   6.667   0.692  0.3058  1.5165  0.6575
  119MOL    C5038046   0.852   6.168   0.803 -0.2096 -0.4175 -0.2148
  119MOL    C5138047   0.846   6.027   0.732  0.0929 -0.5823 -0.6984
  119MOL    C5238048   0.711   6.005   0.658 -0.3548 -0.2124  0.0189
  119MOL    O5338049   0.610   6.055   0.714 -0.0001 -0.1394  0.2622
  119MOL    N5438050   0.707   5.935   0.545 -0.6214  0.5253 -0.6177
  119MOL    C5538051   0.584   5.930   0.466 -0.6169 -0.5400 -0.0996
  119MOL    C5638052   0.822   5.863   0.486  0.1692 -0.8381  0.0853
  119MOL    H5738053   0.941   6.167   0.866 -1.8499 -2.0023  2.1653
  119MOL    H5838054   0.765   6.181   0.868 -0.3457 -4.1715  0.4803
  119MOL    H5938055   0.924   6.033   0.656 -0.0731 -0.9438 -0.8977
  119MOL    H6038056   0.581   5.835   0.413 -3.8517  0.2621 -1.4905
  119MOL    H6138057   0.497   5.933   0.532  1.1199  2.5894  2.1987
  119MOL    H6238058   0.578   6.023   0.410  1.8044  0.4790  1.2606
  119MOL    H6338059   0.858   5.789   0.557 -1.0735 -0.4798  1.1234
  119MOL    H6438060   0.910   5.926   0.478  0.2261 -0.6015  2.2376
  119MOL    H6538061   0.801   5.834   0.384 -1.1607 -0.6733  0.3010
  119MOL    C6638062   0.873   5.903   0.828 -0.0472 -0.8501 -0.6337
  119MOL    C6738063   1.024   5.880   0.846  0.0208  0.0431 -0.2067
  119MOL    C6838064   1.074   5.777   0.740  0.4131 -0.0777  0.3871
  119MOL    O6938065   1.035   5.660   0.749 -0.1864  0.2606  0.1853
  119MOL    N7038066   1.161   5.810   0.645  0.1136  0.2833  0.3464
  119MOL    C7138067   1.193   5.717   0.537  0.7414 -0.6896 -0.6778
  119MOL    C7238068   1.218   5.945   0.623  0.2481  0.1249  0.5025
  119MOL    H7338069   0.834   5.922   0.928  3.5991 -0.5812  0.8226
  119MOL    H7438070   0.814   5.817   0.796  0.3464 -1.7459  0.9842
  119MOL    H7538071   1.080   5.973   0.844 -0.9505  0.6087 -1.4641
  119MOL    H7638072   1.270   5.758   0.472  0.4859 -1.1786 -1.2871
  119MOL    H7738073   1.216   5.623   0.587 -0.6623 -1.2081 -0.9888
  119MOL    H7838074   1.106   5.689   0.478 -0.3051 -0.7290  0.8372
  119MOL    H7938075   1.183   6.028   0.685 -0.2153 -1.6979  2.7827
  119MOL    H8038076   1.202   5.971   0.518 -1.3807 -1.1171  0.4050
  119MOL    H8138077   1.326   5.954   0.629  0.2960 -0.1160  0.0308
  119MOL    C8238078   1.053   5.836   0.984 -0.0274  0.8177  0.2743
  119MOL    C8338079   1.201   5.793   1.012 -0.1695 -0.2561  0.3915
  119MOL    C8438080   1.202   5.727   1.153  0.5274 -0.6043 -0.3817
  119MOL    O8538081   1.145   5.785   1.249  0.0039 -0.1098 -0.7036
  119MOL    N8638082   1.268   5.607   1.170  0.0604  0.2094 -0.0288
  119MOL    C8738083   1.296   5.510   1.059  0.0619  0.3181 -0.1668
  119MOL    C8838084   1.291   5.553   1.304  0.4901 -0.3484  0.8511
  119MOL    H8938085   1.020   5.920   1.044  2.1483  2.4606 -0.7720
  119MOL    H9038086   1.000   5.748   1.021 -1.7310  2.1293  1.0305
  119MOL    H9138087   1.239   5.721   0.939  2.2880 -0.2605  1.6095
  119MOL    H9238088   1.375   5.541   0.990 -0.1940 -0.9938 -1.0832
  119MOL    H9338089   1.340   5.418   1.097 -0.4962  0.4426  0.7931
  119MOL    H9438090   1.207   5.496   0.998  0.3464 -1.0838 -0.2685
  119MOL    H9538091   1.294   5.631   1.379 -1.9707  1.2910 -0.6839
  119MOL    H9638092   1.387   5.501   1.312  0.5679  0.0057  2.3721
  119MOL    H9738093   1.214   5.482   1.335 -0.9054  0.2964 -1.0216
  119MOL    C9838094   1.307   5.911   1.001 -0.0314 -0.7412 -0.2011
  119MOL    C9938095   1.315   6.025   1.104  0.4406 -0.9284 -0.2798
  119MOL   C10038096   1.196   6.125   1.094  0.3279  0.6939 -0.6296
  119MOL   O10138097   1.183   6.175   0.982  0.1797  0.0638  0.8552
  119MOL   N10238098   1.112   6.159   1.197 -0.3985 -0.3032  0.2743
  119MOL   C10338099   0.987   6.244   1.178 -0.6645  0.2745 -0.1860
  119MOL   C10438100   1.148   6.133   1.336  0.0807 -0.3038  0.1037
  119MOL   H10538101   1.402   5.859   0.989  0.0573 -0.5493 -0.3264
  119MOL   H10638102   1.284   5.954   0.904  0.2255 -0.0390  0.0423
  119MOL   H10738103   1.308   5.980   1.203 -3.7554  0.1953  0.0405
  119MOL   H10838104   0.905   6.173   1.176  1.1474 -1.9048  1.3790
  119MOL   H10938105   0.972   6.318   1.257  3.3350  0.3989  0.5498
  119MOL   H11038106   0.989   6.301   1.085  1.4602  0.2344 -0.1724
  119MOL   H11138107   1.255   6.146   1.353  0.2502 -1.9683  0.3524
  119MOL   H11238108   1.130   6.030   1.365  0.1108 -0.0630  0.9978
  119MOL   H11338109   1.088   6.201   1.395  1.6870  1.6824 -0.4706
  119MOL   C11438110   1.448   6.104   1.103 -0.5987  0.6417 -0.3483
  119MOL   C11538111   1.500   6.175   0.974 -0.1070 -0.3134  0.0294
  119MOL   C11638112   1.566   6.076   0.881 -0.5770 -0.0849  1.4676
  119MOL   O11738113   1.612   5.974   0.929  0.0389 -0.1707 -0.3334
  119MOL   N11838114   1.591   6.111   0.750  0.2114 -0.7612  0.4374
  119MOL   C11938115   1.513   6.214   0.676 -0.0978 -0.0055  0.4802
  119MOL   C12038116   1.681   6.031   0.666  0.1117 -0.0689 -0.2348
  119MOL   H12138117   1.450   6.176   1.185  0.5998 -1.5541  1.6255
  119MOL   H12238118   1.525   6.035   1.139 -2.4828 -0.4445  1.6982
  119MOL   H12338119   1.414   6.216   0.921  0.1216 -0.3296 -0.3628
  119MOL   H12438120   1.466   6.158   0.594  2.1688  0.4801 -1.2172
  119MOL   H12538121   1.426   6.261   0.722 -3.0105 -3.6346 -0.9954
  119MOL   H12638122   1.585   6.281   0.630 -0.7795 -1.0600 -2.2479
  119MOL   H12738123   1.628   5.946   0.622 -1.2044 -0.0136  1.2038
  119MOL   H12838124   1.775   6.001   0.712 -0.0331 -1.2475 -0.6942
  119MOL   H12938125   1.720   6.098   0.589  0.1146  1.1586  0.8200
  119MOL   C13038126   1.594   6.288   1.009  0.4592  0.1090 -0.3270
  119MOL   C13138127   1.532   6.414   1.061 -0.6270 -0.0540  0.0861
  119MOL   C13238128   1.447   6.483   0.960  0.2996  0.0925  0.1714
  119MOL   O13338129   1.491   6.509   0.848 -0.0975 -0.0584  0.8039
  119MOL   N13438130   1.321   6.508   0.994  0.2210 -0.2168  0.2716
  119MOL   C13538131   1.221   6.526   0.888 -0.1669 -0.2715  0.0524
  119MOL   C13638132   1.273   6.522   1.133  0.4893  0.2004 -0.3486
  119MOL   H13738133   1.671   6.259   1.081  0.2449  0.8664  0.2247
  119MOL   H13838134   1.663   6.302   0.926  1.1570 -0.9377  0.0634
  119MOL   H13938135   1.468   6.379   1.143  2.0282  0.5292  2.5032
  119MOL   H14038136   1.245   6.482   0.791  0.6363  1.3077 -0.4931
  119MOL   H14138137   1.127   6.482   0.921 -0.2873 -0.2069 -0.2053
  119MOL   H14238138   1.208   6.630   0.859 -1.0152 -0.2314  0.5517
  119MOL   H14338139   1.247   6.424   1.173  0.1785 -0.6918 -2.6606
  119MOL   H14438140   1.183   6.584   1.132 -1.1164 -2.0939 -1.9668
  119MOL   H14538141   1.358   6.563   1.188  1.8458 -0.8564 -1.6523
  119MOL   C14638142   1.638   6.513   1.119  0.3202 -0.5878  0.6101
  119MOL   C14738143   1.758   6.557   1.030 -0.5646  0.1714 -0.5863
  119MOL   C14838144   1.873   6.460   1.015 -0.2765  0.4517 -0.9528
  119MOL   O14938145   1.919   6.401   1.112  0.4681  0.1102 -0.0088
  119MOL   N15038146   1.897   6.417   0.887 -0.1351  0.1510  0.4326
  119MOL   C15138147   1.853   6.487   0.770 -0.2059 -0.9815 -0.6375
  119MOL   C15238148   1.989   6.309   0.855 -0.1997 -0.2573 -1.0250
  119MOL   H15338149   1.592   6.603   1.159 -1.8924 -1.2458 -0.3286
  119MOL   H15438150   1.672   6.459   1.207  0.0684  0.1958  1.1917
  119MOL   H15538151   1.711   6.584   0.935 -1.4814  1.4139  0.2071
  119MOL   H15638152   1.923   6.479   0.686 -1.7861 -0.4253 -2.0549
  119MOL   H15738153   1.756   6.452   0.735  0.0887 -1.9604 -0.4676
  119MOL   H15838154   1.834   6.594   0.779 -1.6728 -0.9568 -3.2024
  119MOL   H15938155   1.938   6.214   0.841 -0.4793 -0.1422 -0.7949
  119MOL   H16038156   2.041   6.278   0.945  2.7534  1.8037 -1.9593
  119MOL   H16138157   2.063   6.328   0.778  0.8507 -2.4376 -0.5918
  119MOL   C16238158   1.814   6.695   1.084  0.1951  0.7022  0.3014
  119MOL   C16338159   1.879   6.709   1.219  0.2377 -0.3646 -0.1786
  119MOL   C16438160   1.779   6.677   1.329  0.2645  0.6381 -0.1460
  119MOL   O16538161   1.683   6.747   1.339  0.7786  0.7432 -0.0881
  119MOL   N16638162   1.790   6.580   1.425 -0.0409  0.2958  0.5470
  119MOL   C16738163   1.907   6.494   1.452  0.4745 -0.2764 -0.4149
  119MOL   C16838164   1.683   6.552   1.523  0.1860 -0.4255 -0.4078
  119MOL   H16938165   1.875   6.731   1.001  1.9417 -1.2422  0.7142
  119MOL   H17038166   1.726   6.759   1.095  1.3710  2.2143  1.0593
  119MOL   H17138167   1.962   6.638   1.221  1.6823  1.3300  1.7369
  119MOL   H17238168   1.926   6.493   1.559 -1.3569  0.6105 -0.0655
  119MOL   H17338169   1.896   6.392   1.414 -1.3992  0.0501 -0.8163
  119MOL   H17438170   1.997   6.539   1.410  1.4579 -0.5720  1.3345
  119MOL   H17538171   1.704   6.480   1.602 -0.6736  0.1491  0.3550
  119MOL   H17638172   1.596   6.510   1.472 -0.5474  1.2863 -0.6078
  119MOL   H17738173   1.645   6.643   1.570  2.4224  1.2727 -1.7507
  119MOL   C17838174   1.937   6.852   1.244  0.4391 -0.6027 -0.0142
  119MOL   C17938175   2.063   6.866   1.342 -0.0378 -0.3747 -0.1538
  119MOL   C18038176   2.102   7.012   1.363 -0.2891 -0.0590  0.7988
  119MOL   O18138177   2.122   7.081   1.261 -0.3608  0.1050 -0.4120
  119MOL   N18238178   2.124   7.067   1.486 -0.2311  0.0790 -0.6609
  119MOL   C18338179   2.084   7.005   1.609 -0.0925  0.2276  0.4591
  119MOL   C18438180   2.173   7.203   1.492  0.3911  0.3883  0.4954
  119MOL   H18538181   1.974   6.901   1.153  0.8956  1.3706  1.1942
  119MOL   H18638182   1.855   6.916   1.275 -1.1866 -1.9914 -1.3397
  119MOL   H18738183   2.044   6.825   1.442 -2.6606 -0.6556 -0.7320
  119MOL   H18838184   2.093   7.080   1.688  0.1329  0.8096 -0.1201
  119MOL   H18938185   1.978   6.978   1.602 -0.2666  1.2824 -1.1775
  119MOL   H19038186   2.143   6.919   1.639  0.1421  0.5377  0.8924
  119MOL   H19138187   2.138   7.269   1.413 -1.0458 -0.9513 -0.0051
  119MOL   H19238188   2.277   7.182   1.464  0.3103  0.4046  0.1758
  119MOL   H19338189   2.169   7.258   1.586 -0.8624  1.6376 -0.2678
  119MOL   C19438190   2.194   6.798   1.287 -0.1669 -0.3772 -0.0314
  119MOL   C19538191   2.294   6.753   1.389 -0.2466 -0.0141 -0.8007
  119MOL   C19638192   2.440   6.753   1.331  0.5038 -0.0622  0.6114
  119MOL   O19738193   2.468   6.661   1.252 -0.1620 -0.1745  0.0537
  119MOL   N19838194   2.539   6.838   1.371  0.0905 -0.0520 -0.4094
  119MOL   C19938195   2.514   6.939   1.473 -0.1636  0.4848  0.2614
  119MOL   C20038196   2.682   6.839   1.315  0.0531  0.3147  0.6564
  119MOL   H20138197   2.162   6.708   1.235 -0.5149 -0.2522 -0.0330
  119MOL   H20238198   2.226   6.855   1.199  1.2050 -0.2780  0.5201
  119MOL   H20338199   2.303   6.817   1.477 -0.2515 -0.1542 -0.6980
  119MOL   H20438200   2.421   6.994   1.460 -0.2159  0.4012  0.2803
  119MOL   H20538201   2.524   6.907   1.577 -0.6927  0.8092  0.4134
  119MOL   H20638202   2.579   7.026   1.467 -0.0919  0.4178  0.0473
  119MOL   H20738203   2.670   6.905   1.229  1.0627  1.1550  1.1437
  119MOL   H20838204   2.712   6.738   1.286 -1.8844 -0.3322  0.8227
  119MOL   H20938205   2.751   6.881   1.388  2.5548  0.2735 -1.5830
  119MOL   C21038206   2.250   6.621   1.462 -0.5316  0.2105 -0.3071
  119MOL   C21138207   2.358   6.566   1.557  0.4263 -0.3469  0.6034
  119MOL   C21238208   2.312   6.426   1.576  0.3619 -0.3362 -0.8761
  119MOL   O21338209   2.221   6.406   1.660 -0.4432  0.2607 -0.0625
  119MOL   N21438210   2.365   6.328   1.498 -0.2829  0.0214  0.4632
  119MOL   C21538211   2.474   6.347   1.399  0.1847  0.2799 -0.2265
  119MOL   C21638212   2.313   6.196   1.495  0.2868 -0.2514  0.4954
  119MOL   H21738213   2.153   6.626   1.511 -0.2604 -2.6710  0.6320
  119MOL   H21838214   2.247   6.546   1.382 -0.1083 -1.0616  0.8485
  119MOL   H21938215   2.458   6.574   1.514  0.2879 -0.2151  0.3064
  119MOL   H22038216   2.445   6.432   1.337 -0.2492  0.9427  0.8632
  119MOL   H22138217   2.562   6.376   1.457 -0.2002  3.0487 -0.9225
  119MOL   H22238218   2.490   6.257   1.340 -3.0228 -2.1312  2.3438
  119MOL   H22338219   2.383   6.125   1.539 -0.1704 -0.8862  0.2052
  119MOL   H22438220   2.280   6.183   1.392 -0.4821 -0.8258  0.8107
  119MOL   H22538221   2.225   6.173   1.555  0.8267 -2.4014  0.4908
  119MOL   C22638222   2.367   6.644   1.698 -0.5016 -0.2849  0.5343
  119MOL   C22738223   2.475   6.608   1.801 -0.4807 -0.1857 -0.4686
  119MOL   C22838224   2.616   6.612   1.735  0.8831  0.0419  0.7392
  119MOL   O22938225   2.656   6.512   1.676 -0.5010 -0.3918 -0.4296
  119MOL   N23038226   2.683   6.720   1.746 -0.7228 -0.3883 -0.3703
  119MOL   C23138227   2.657   6.828   1.841 -0.1028 -0.2049  0.0923
  119MOL   C23238228   2.805   6.738   1.673 -0.2492  0.0491  0.3686
  119MOL   H23338229   2.385   6.748   1.671 -0.8119 -0.3724 -0.0140
  119MOL   H23438230   2.270   6.628   1.746 -0.0665  1.8657  2.2188
  119MOL   H23538231   2.470   6.682   1.882  1.0469 -0.0972 -0.4449
  119MOL   H23638232   2.552   6.857   1.837  0.3923  1.5782 -0.6614
  119MOL   H23738233   2.676   6.793   1.942 -0.2353  0.1890  0.2571
  119MOL   H23838234   2.728   6.911   1.832  0.0041 -0.3547 -0.4682
  119MOL   H23938235   2.798   6.806   1.587  2.4250 -2.0705 -1.6134
  119MOL   H24038236   2.850   6.641   1.653 -0.9055 -0.2392  0.2776
  119MOL   H24138237   2.880   6.797   1.726 -0.0117  0.5609 -0.5190
  119MOL   C24238238   2.455   6.472   1.872 -0.6472 -0.0219 -0.5660
  119MOL   C24338239   2.553   6.422   1.985 -0.0761  0.2882 -0.0923
  119MOL   C24438240   2.542   6.273   1.983  0.3819 -0.0517  0.2059
  119MOL   O24538241   2.455   6.224   2.056 -0.5001 -0.4164 -0.2101
  119MOL   N24638242   2.629   6.192   1.916 -0.6836  0.0991  0.4514
  119MOL   C24738243   2.733   6.235   1.826  0.1513  0.1344 -0.0841
  119MOL   C24838244   2.630   6.047   1.925 -0.2370 -0.3688  0.3516
  119MOL   H24938245   2.356   6.452   1.913 -0.6297  2.2700  0.6881
  119MOL   H25038246   2.461   6.407   1.784 -1.1827  1.3870 -1.6689
  119MOL   H25138247   2.657   6.454   1.976  0.7924 -1.9239  1.6587
  119MOL   H25238248   2.748   6.343   1.826  2.1542 -0.0982  2.3812
  119MOL   H25338249   2.831   6.199   1.857 -0.7733 -1.0791  1.4623
  119MOL   H25438250   2.699   6.191   1.732 -0.5371 -1.0665  0.7245
  119MOL   H25538251   2.695   5.997   1.854  2.9733  2.4660  1.1838
  119MOL   H25638252   2.524   6.020   1.923  0.1174 -1.7819  0.8507
  119MOL   H25738253   2.662   6.010   2.023 -1.3391 -1.5785  0.2628
  119MOL   C25838254   2.512   6.475   2.130 -0.2854 -0.5663 -0.0501
  119MOL   C25938255   2.611   6.457   2.253 -0.6196  0.1732 -0.1011
  119MOL   C26038256   2.538   6.486   2.385  0.1020  0.6546 -0.2799
  119MOL   O26138257   2.527   6.609   2.418  0.4053 -0.1759 -0.1226
  119MOL   N26238258   2.490   6.388   2.460 -0.2683  0.6630 -0.1695
  119MOL   C26338259   2.465   6.249   2.421  0.1940 -0.1492  0.4566
  119MOL   C26438260   2.444   6.422   2.596  0.2750 -0.3894  0.6771
  119MOL   H26538261   2.486   6.580   2.118 -2.5408 -1.0954 -0.0576
  119MOL   H26638262   2.413   6.437   2.159  0.5639 -0.5675  3.0073
  119MOL   H26738263   2.656   6.357   2.256 -0.8264  0.0627 -0.7210
  119MOL   H26838264   2.491   6.231   2.317 -0.2244  1.2838  0.0960
  119MOL   H26938265   2.495   6.172   2.493 -1.5610  0.2361  1.6262
  119MOL   H27038266   2.356   6.250   2.423  0.1503 -2.4706  0.0496
  119MOL   H27138267   2.407   6.341   2.658 -1.5392  1.5055  2.1372
  119MOL   H27238268   2.378   6.508   2.586  1.1637  0.2776  0.4781
  119MOL   H27338269   2.535   6.454   2.647  0.7221  0.4061 -0.6118
  119MOL   C27438270   2.727   6.558   2.236  0.4182 -0.9427 -0.2681
  119MOL   C27538271   2.843   6.551   2.348 -0.4962  0.7117 -0.1488
  119MOL   C27638272   2.929   6.680   2.358  0.0602  0.3320  0.4839
  119MOL   O27738273   2.986   6.721   2.256  0.4345 -0.1655 -0.0003
  119MOL   N27838274   2.931   6.760   2.470 -0.5118 -0.2829 -0.6086
  119MOL   C27938275   2.996   6.893   2.473 -0.0182  0.3702  0.0992
  119MOL   C28038276   2.853   6.733   2.590  1.0070 -0.0259 -0.0474
  119MOL   H28138277   2.768   6.545   2.136  0.3250  1.0497 -0.5878
  119MOL   H28238278   2.698   6.663   2.238  1.1022 -0.7602  0.7823
  119MOL   H28338279   2.791   6.550   2.444  2.1759  0.5823  1.3530
  119MOL   H28438280   2.922   6.970   2.494  0.0168  0.0028  1.6470
  119MOL   H28538281   3.084   6.881   2.535 -0.7426 -2.2266  0.6978
  119MOL   H28638282   3.038   6.930   2.380  0.1227  2.1454  0.8654
  119MOL   H28738283   2.877   6.803   2.669  0.4783  0.1391 -0.0307
  119MOL   H28838284   2.862   6.632   2.630 -2.9517 -1.7493 -3.1713
  119MOL   H28938285   2.746   6.744   2.569  1.2778  0.6189 -1.1086
  119MOL   C29038286   2.920   6.417   2.357 -0.5366 -0.1103  0.2801
  119MOL   C29138287   3.038   6.392   2.252 -0.3350 -0.7765  0.2693
  119MOL   C29238288   2.999   6.398   2.105  0.3286 -0.8969 -0.0944
  119MOL   O29338289   2.901   6.333   2.072  0.0518  0.3928  0.0650
  119MOL   N29438290   3.074   6.471   2.017 -0.4106 -0.9950 -0.2383
  119MOL   C29538291   3.195   6.549   2.043 -0.1221 -0.2587 -0.4510
  119MOL   C29638292   3.028   6.480   1.875 -0.2258 -0.4779  1.1079
  119MOL   H29738293   2.957   6.414   2.459  3.3660  2.7881 -0.8866
  119MOL   H29838294   2.849   6.335   2.348  1.4889 -1.6345 -2.8099
  119MOL   H29938295   3.118   6.461   2.278 -2.0732  2.4325 -2.4139
  119MOL   H30038296   3.240   6.582   1.949  0.1909 -2.4530 -1.1039
  119MOL   H30138297   3.154   6.635   2.096 -1.2625 -0.3424 -1.1901
  119MOL   H30238298   3.272   6.509   2.108 -1.3703 -0.4120  0.9402
  119MOL   H30338299   3.103   6.450   1.802 -2.5775  1.4320 -2.2300
  119MOL   H30438300   3.006   6.584   1.853 -2.2991 -0.7692  1.7291
  119MOL   H30538301   2.933   6.429   1.857 -0.1625 -0.6475  1.2521
  119MOL   C30638302   3.117   6.257   2.271 -0.2218  0.3269 -0.6089
  119MOL   C30738303   3.153   6.211   2.415  0.0052  0.7775  0.7392
  119MOL   C30838304   3.275   6.280   2.478 -1.0829 -0.6982  0.6045
  119MOL   O30938305   3.321   6.388   2.431  0.6663 -0.4989  0.1353
  119MOL   N31038306   3.311   6.247   2.604 -0.3002 -0.0503  0.2809
  119MOL   C31138307   3.266   6.127   2.666  0.2166 -0.2133  0.2034
  119MOL   C31238308   3.415   6.318   2.684  1.0008 -0.1590  0.5795
  119MOL   H31338309   3.063   6.175   2.223  0.2452 -0.9759  1.0272
  119MOL   H31438310   3.208   6.257   2.210 -0.3940  0.9478 -0.8677
  119MOL   H31538311   3.064   6.217   2.478 -1.4836 -1.5145 -1.0717
  119MOL   H31638312   3.283   6.121   2.774  0.1504 -1.9321  0.1183
  119MOL   H31738313   3.161   6.100   2.656 -0.1570  0.7155  1.4245
  119MOL   H31838314   3.317   6.039   2.628  1.3882  0.9966 -1.1049
  119MOL   H31938315   3.391   6.317   2.790  1.4131 -1.1009  0.6650
  119MOL   H32038316   3.426   6.424   2.658 -0.1503 -0.4082 -0.9880
  119MOL   H32138317   3.514   6.275   2.670  0.9982  0.3009 -0.9374
  119MOL   H32238318   3.184   6.107   2.410  0.6795  1.0343 -0.8334
  120MOL     C138319   2.878   5.696   5.402 -0.7824  0.4263 -0.1969
  120MOL     C238320   2.740   5.743   5.352  0.2679 -0.4730 -0.2727
  120MOL     C338321   2.633   5.642   5.402 -0.0816  0.0510  0.1058
  120MOL     O438322   2.655   5.522   5.379  0.2395 -0.3847  0.2362
  120MOL     N538323   2.520   5.683   5.468 -0.3983 -0.7242 -0.2665
  120MOL     C638324   2.475   5.818   5.479  0.0678 -0.3702 -0.6902
  120MOL     C738325   2.431   5.581   5.529 -0.1134  0.9773  0.1466
  120MOL     H838326   2.956   5.753   5.351  1.4078 -1.7279  0.6345
  120MOL     H938327   2.887   5.588   5.387  0.9038  0.9099 -3.0268
  120MOL    H1038328   2.733   5.840   5.402  0.4534 -0.1879 -0.7829
  120MOL    H1138329   2.457   5.856   5.378 -1.6190  2.8346  0.7530
  120MOL    H1238330   2.377   5.830   5.525  0.1700  1.1683 -0.8398
  120MOL    H1338331   2.549   5.866   5.543 -0.6802 -2.6956  2.0166
  120MOL    H1438332   2.438   5.482   5.484 -1.0867  1.2979 -0.7278
  120MOL    H1538333   2.334   5.623   5.554 -0.4700  0.5344 -0.4887
  120MOL    H1638334   2.473   5.561   5.628 -1.4531  1.0879  0.7469
  120MOL    H1738335   2.896   5.716   5.508  0.5304  0.0835 -0.3495
  120MOL    C1838336   2.739   5.766   5.204  0.5837 -0.0861  0.6968
  120MOL    C1938337   2.801   5.658   5.109  0.7596  0.3264 -1.0138
  120MOL    C2038338   2.956   5.666   5.097 -0.3993 -0.0057  0.3740
  120MOL    O2138339   3.007   5.775   5.067  0.6398 -0.1408 -0.1467
  120MOL    N2238340   3.026   5.550   5.105 -0.7622  0.1945  0.2868
  120MOL    C2338341   3.175   5.547   5.087 -0.3038  0.0268  0.3336
  120MOL    C2438342   2.969   5.419   5.119 -0.2244 -0.5643  0.1945
  120MOL    H2538343   2.636   5.784   5.174  1.5250  2.3143 -1.2613
  120MOL    H2638344   2.789   5.862   5.192  2.4462 -0.8097  2.4605
  120MOL    H2738345   2.774   5.566   5.161  2.5469  0.5532  0.3716
  120MOL    H2838346   3.231   5.639   5.104  0.7326 -0.1752 -1.7699
  120MOL    H2938347   3.224   5.477   5.155 -0.6403 -1.6303 -1.0930
  120MOL    H3038348   3.210   5.519   4.987 -0.8366  1.0414 -0.1441
  120MOL    H3138349   3.032   5.347   5.067  1.2253  1.0953 -0.4052
  120MOL    H3238350   2.869   5.402   5.080 -0.4921  0.9776  0.2066
  120MOL    H3338351   2.968   5.401   5.227 -0.4957 -0.8330  0.1489
  120MOL    C3438352   2.745   5.646   4.965  0.3679 -0.1702  0.2723
  120MOL    C3538353   2.593   5.633   4.944  0.1807  0.3336 -0.0403
  120MOL    C3638354   2.517   5.508   5.012 -0.0366 -0.2769  0.6697
  120MOL    O3738355   2.568   5.399   4.989  0.1606 -0.3644 -0.7183
  120MOL    N3838356   2.414   5.529   5.098 -0.5419  0.7409 -0.3742
  120MOL    C3938357   2.366   5.665   5.134  0.4724 -0.2439  0.6298
  120MOL    C4038358   2.364   5.415   5.176 -0.1454  0.4822  0.1996
  120MOL    H4138359   2.780   5.731   4.907  0.2208 -1.1689 -1.2937
  120MOL    H4238360   2.786   5.554   4.924 -1.1864 -0.9797  0.4913
  120MOL    H4338361   2.559   5.726   4.989 -0.0610  0.5922 -0.7490
  120MOL    H4438362   2.258   5.657   5.151  0.6111 -0.5260  1.3657
  120MOL    H4538363   2.412   5.706   5.223 -1.3178 -1.9517  2.3916
  120MOL    H4638364   2.366   5.739   5.054 -0.1827  0.6007  1.3954
  120MOL    H4738365   2.292   5.458   5.246 -1.1018 -2.1730  0.9145
  120MOL    H4838366   2.445   5.376   5.237  0.7211  1.2899 -0.4019
  120MOL    H4938367   2.317   5.345   5.108 -0.2443 -0.1896  0.9556
  120MOL    C5038368   2.555   5.634   4.792  0.5314 -0.2091 -0.4357
  120MOL    C5138369   2.557   5.501   4.704 -0.2900 -0.0481  0.2002
  120MOL    C5238370   2.711   5.466   4.684 -0.1791  1.0311 -0.0598
  120MOL    O5338371   2.788   5.555   4.641 -0.6307 -0.2165 -0.4359
  120MOL    N5438372   2.757   5.349   4.723 -0.0005 -0.1671 -0.3681
  120MOL    C5538373   2.671   5.237   4.731  0.0823  0.2031 -0.0853
  120MOL    C5638374   2.899   5.313   4.690 -0.4627 -0.2897 -0.5976
  120MOL    H5738375   2.450   5.664   4.796  0.3859 -0.6423 -0.8733
  120MOL    H5838376   2.606   5.713   4.737  0.8989  0.7526  1.2725
  120MOL    H5938377   2.500   5.430   4.763 -0.8247  0.1105 -0.1258
  120MOL    H6038378   2.722   5.146   4.761  1.7341  0.2185 -2.7335
  120MOL    H6138379   2.588   5.245   4.801  0.7648 -1.2411  0.9206
  120MOL    H6238380   2.621   5.224   4.635  2.1213  1.2151 -1.3051
  120MOL    H6338381   2.925   5.212   4.722  1.3227  0.3444 -0.0241
  120MOL    H6438382   2.961   5.387   4.741 -0.2443 -0.7256 -0.2279
  120MOL    H6538383   2.907   5.324   4.582  0.6309  1.7902 -0.3282
  120MOL    C6638384   2.494   5.535   4.567 -0.3613 -0.4171 -0.3122
  120MOL    C6738385   2.342   5.542   4.558 -0.2388  0.2646 -0.3614
  120MOL    C6838386   2.281   5.400   4.549 -0.4752  0.4961  0.1332
  120MOL    O6938387   2.314   5.331   4.454 -0.8104  0.0981  0.1821
  120MOL    N7038388   2.188   5.364   4.637  0.9464  0.0396 -0.3383
  120MOL    C7138389   2.172   5.419   4.778  0.0928  0.1366  0.0552
  120MOL    C7238390   2.103   5.249   4.608  1.2721 -0.7945  0.4677
  120MOL    H7338391   2.526   5.634   4.534  0.3239 -0.4704  0.1946
  120MOL    H7438392   2.526   5.463   4.492 -0.5680 -2.0770  1.1750
  120MOL    H7538393   2.294   5.593   4.642  0.4483 -0.3286  0.3956
  120MOL    H7638394   2.267   5.457   4.815 -0.7222  0.9796  1.3140
  120MOL    H7738395   2.094   5.491   4.803 -1.6177 -1.2697 -1.1219
  120MOL    H7838396   2.136   5.336   4.839 -2.6739  0.0823 -1.5848
  120MOL    H7938397   2.081   5.235   4.503  1.2415  1.7234  0.0970
  120MOL    H8038398   2.009   5.268   4.661 -0.4390 -0.8334 -2.4533
  120MOL    H8138399   2.154   5.166   4.657  1.7848 -0.4185  0.5732
  120MOL    C8238400   2.302   5.629   4.435  0.2938  0.0992 -0.8969
  120MOL    C8338401   2.151   5.623   4.393 -0.3706 -0.1179  0.1996
  120MOL    C8438402   2.125   5.684   4.255 -0.1923 -0.1385 -0.9958
  120MOL    O8538403   2.114   5.808   4.248 -0.2333 -0.1664  0.4376
  120MOL    N8638404   2.105   5.610   4.145 -0.2697  0.1773  0.4012
  120MOL    C8738405   2.151   5.471   4.121 -0.0292 -0.0193  0.0759
  120MOL    C8838406   2.036   5.676   4.033  0.2029 -0.1262 -0.3312
  120MOL    H8938407   2.323   5.735   4.443 -1.6627  0.5430 -1.4870
  120MOL    H9038408   2.360   5.585   4.354 -0.6015 -0.2445 -1.3650
  120MOL    H9138409   2.122   5.518   4.391 -2.3010  0.3955  0.0525
  120MOL    H9238410   2.213   5.455   4.033  1.5088  0.5433  1.0299
  120MOL    H9338411   2.200   5.424   4.206 -0.3979  2.7584  1.8892
  120MOL    H9438412   2.062   5.414   4.098 -2.1472  3.0369  0.4359
  120MOL    H9538413   2.040   5.612   3.944  0.3227 -1.0017  0.2985
  120MOL    H9638414   2.076   5.774   4.009  2.1043 -0.3389  1.8132
  120MOL    H9738415   1.929   5.691   4.044  0.1596 -0.4838 -0.2445
  120MOL    C9838416   2.055   5.681   4.497 -0.5268  0.1336  0.5346
  120MOL    C9938417   1.904   5.673   4.460  0.0319  0.5500 -0.0107
  120MOL   C10038418   1.828   5.763   4.562 -0.9189 -0.2024  0.1702
  120MOL   O10138419   1.827   5.724   4.676  0.3554  0.4637 -0.5368
  120MOL   N10238420   1.761   5.876   4.529  0.5627 -0.2129  0.3274
  120MOL   C10338421   1.697   5.959   4.634 -0.1092  0.7815 -0.2325
  120MOL   C10438422   1.770   5.928   4.394 -0.3286  0.0078  0.5038
  120MOL   H10538423   2.060   5.624   4.590 -1.8405  0.3270  0.7298
  120MOL   H10638424   2.090   5.783   4.515 -0.9159  0.2488  0.6379
  120MOL   H10738425   1.895   5.704   4.356 -3.1469  0.2930  0.1427
  120MOL   H10838426   1.593   5.927   4.646 -0.1301  0.2947 -1.6726
  120MOL   H10938427   1.746   5.943   4.730  0.3587  1.4774 -0.3574
  120MOL   H11038428   1.709   6.065   4.609 -1.8939  1.4025  1.3646
  120MOL   H11138429   1.718   6.022   4.380 -1.4723 -0.3822  1.9674
  120MOL   H11238430   1.746   5.860   4.312  0.4998  1.1934 -0.7458
  120MOL   H11338431   1.874   5.957   4.377  0.0952 -1.5577  0.3091
  120MOL   C11438432   1.849   5.526   4.472  0.4816 -0.0870 -0.0168
  120MOL   C11538433   1.702   5.486   4.436 -0.2416 -0.1013 -0.5163
  120MOL   C11638434   1.674   5.515   4.290 -0.9170 -0.3393 -0.0673
  120MOL   O11738435   1.636   5.626   4.258  0.1210  0.7882  0.6213
  120MOL   N11838436   1.712   5.416   4.204 -0.1564  0.2177  0.7529
  120MOL   C11938437   1.704   5.452   4.063  0.0014  0.4145 -0.3265
  120MOL   C12038438   1.744   5.273   4.229 -0.5601  0.8390  0.7032
  120MOL   H12138439   1.914   5.485   4.395  1.5365  0.9349  0.3258
  120MOL   H12238440   1.889   5.484   4.564  0.3440  1.6821  0.8530
  120MOL   H12338441   1.714   5.378   4.450  1.3857 -0.0866 -1.7096
  120MOL   H12438442   1.757   5.389   3.991 -1.2613  0.4391 -1.2824
  120MOL   H12538443   1.602   5.474   4.032  0.6301  1.6983 -1.5278
  120MOL   H12638444   1.755   5.546   4.045 -3.2089  1.9956 -1.4018
  120MOL   H12738445   1.840   5.263   4.280  0.7643  1.2235 -1.6430
  120MOL   H12838446   1.752   5.210   4.140 -0.8364  2.4238 -0.4629
  120MOL   H12938447   1.659   5.232   4.284 -1.7442  1.2702 -0.7854
  120MOL   C13038448   1.584   5.520   4.542  0.3087  0.1728 -0.7534
  120MOL   C13138449   1.454   5.431   4.543  0.0209 -0.0302  0.0919
  120MOL   C13238450   1.490   5.294   4.606 -0.4644 -0.1306 -0.2630
  120MOL   O13338451   1.532   5.208   4.535 -0.1783 -0.8838 -0.3872
  120MOL   N13438452   1.468   5.273   4.740 -0.2302 -0.4930 -0.6170
  120MOL   C13538453   1.393   5.362   4.838  0.2093  0.5779  0.3902
  120MOL   C13638454   1.523   5.158   4.812 -0.7752 -0.7516  0.7422
  120MOL   H13738455   1.629   5.524   4.641 -0.8347  0.7173 -0.2533
  120MOL   H13838456   1.561   5.624   4.523 -2.9686 -0.1632  1.0203
  120MOL   H13938457   1.379   5.476   4.608  0.4909 -0.5449  1.0039
  120MOL   H14038458   1.411   5.341   4.944 -2.6897 -4.6503  0.0475
  120MOL   H14138459   1.427   5.462   4.815 -0.2482  0.9597  1.3505
  120MOL   H14238460   1.286   5.361   4.821  0.3657 -0.7566 -0.6071
  120MOL   H14338461   1.461   5.126   4.895 -1.6400  0.2499  0.4909
  120MOL   H14438462   1.627   5.177   4.836 -0.9095 -1.8169  2.2353
  120MOL   H14538463   1.513   5.072   4.745  2.8165 -0.4602 -0.2786
  120MOL   C14638464   1.370   5.426   4.410  0.2903 -0.0029  0.6831
  120MOL   C14738465   1.219   5.417   4.435  0.3090 -0.2382  0.0136
  120MOL   C14838466   1.160   5.282   4.487  0.5557  0.0891  0.8613
  120MOL   O14938467   1.192   5.179   4.430  0.5460 -0.0702  0.3861
  120MOL   N15038468   1.069   5.280   4.589  0.2424  0.4134  0.0167
  120MOL   C15138469   1.007   5.401   4.651  0.1445  0.7935  0.8652
  120MOL   C15238470   1.014   5.153   4.631 -1.3880 -0.0861 -0.3691
  120MOL   H15338471   1.403   5.512   4.351 -0.1983 -0.5196 -0.3530
  120MOL   H15438472   1.396   5.336   4.353 -0.5118 -0.4145  0.9648
  120MOL   H15538473   1.202   5.492   4.513 -0.3700 -0.9464  0.5513
  120MOL   H15638474   1.086   5.465   4.690  0.4396  0.9058  0.0936
  120MOL   H15738475   0.959   5.458   4.571  0.5854 -1.2974 -0.9332
  120MOL   H15838476   0.930   5.390   4.727  0.5257 -1.6904  0.9291
  120MOL   H15938477   0.942   5.115   4.558 -0.4294  2.6297 -2.7868
  120MOL   H16038478   0.955   5.164   4.722  1.1654  1.3489  1.1644
  120MOL   H16138479   1.094   5.085   4.659 -0.2774  0.6397 -1.7675
  120MOL   C16238480   1.141   5.470   4.311  0.6768 -0.6990 -0.2035
  120MOL   C16338481   1.151   5.618   4.262 -0.5908  0.8249 -0.6576
  120MOL   C16438482   1.124   5.719   4.374 -0.0127  0.0873  0.6621
  120MOL   O16538483   1.015   5.714   4.431  0.5300  0.1342 -0.3170
  120MOL   N16638484   1.222   5.801   4.424 -0.1656  0.0536  0.0257
  120MOL   C16738485   1.354   5.813   4.371 -0.6042  0.4796  0.2828
  120MOL   C16838486   1.175   5.888   4.537  0.1378  0.3216 -0.5271
  120MOL   H16938487   1.165   5.399   4.232 -0.9161 -0.4086 -0.9698
  120MOL   H17038488   1.036   5.448   4.326  0.2644  0.4924 -1.2032
  120MOL   H17138489   1.249   5.634   4.218 -0.3308  1.0877  0.0124
  120MOL   H17238490   1.410   5.894   4.418  1.5458 -1.3832  1.0572
  120MOL   H17338491   1.419   5.726   4.381  0.8341  1.5534  0.4742
  120MOL   H17438492   1.361   5.840   4.265 -0.2474  0.9823  0.4305
  120MOL   H17538493   1.263   5.947   4.562  0.7319 -0.3804 -0.9294
  120MOL   H17638494   1.134   5.848   4.630  3.4536  0.3208  0.9954
  120MOL   H17738495   1.103   5.961   4.498 -0.7009 -0.8246 -1.1457
  120MOL   C17838496   1.056   5.646   4.141  0.1901 -0.2232  0.2925
  120MOL   C17938497   1.076   5.573   4.001  0.2258 -0.2807 -0.1208
  120MOL   C18038498   1.123   5.671   3.894  0.2548  0.0544 -0.4011
  120MOL   O18138499   1.039   5.734   3.834  0.3596 -0.0736 -0.6483
  120MOL   N18238500   1.252   5.677   3.851  0.6519 -0.1243  0.0159
  120MOL   C18338501   1.290   5.768   3.741 -0.3267 -0.0693 -0.6306
  120MOL   C18438502   1.357   5.576   3.888 -0.4022  0.0814  0.2707
  120MOL   H18538503   0.955   5.637   4.179  0.8959  0.9207  2.5424
  120MOL   H18638504   1.057   5.755   4.130 -0.5948 -0.1679  0.7590
  120MOL   H18738505   1.144   5.490   4.020  0.9140  0.9200  2.8940
  120MOL   H18838506   1.244   5.746   3.645 -0.8322 -2.2038  0.0738
  120MOL   H18938507   1.248   5.867   3.763 -0.7508 -0.3460 -0.1907
  120MOL   H19038508   1.397   5.782   3.725  0.0453  0.5407  2.1062
  120MOL   H19138509   1.459   5.605   3.862 -1.2669  1.4034 -1.7619
  120MOL   H19238510   1.346   5.485   3.829  0.8330  0.1642 -0.1003
  120MOL   H19338511   1.351   5.556   3.995  0.4068 -0.3182  0.2440
  120MOL   C19438512   0.942   5.498   3.968 -0.0182  0.6177  0.5105
  120MOL   C19538513   0.944   5.402   3.846 -0.5270 -0.3122  0.6609
  120MOL   C19638514   0.809   5.386   3.784 -0.9019 -0.2692  0.1433
  120MOL   O19738515   0.732   5.298   3.832 -0.7295 -0.3730 -0.2480
  120MOL   N19838516   0.767   5.456   3.678  0.2046  0.2695  0.3365
  120MOL   C19938517   0.629   5.433   3.622 -0.0519  0.3483  0.3181
  120MOL   C20038518   0.841   5.543   3.604  0.6399  0.2723 -0.2580
  120MOL   H20138519   0.892   5.441   4.047 -0.2883  0.2997  0.1143
  120MOL   H20238520   0.877   5.584   3.953 -0.9206  0.1160  1.4514
  120MOL   H20338521   1.005   5.447   3.768 -2.1446  1.1383  0.1769
  120MOL   H20438522   0.552   5.455   3.697 -0.4906 -0.2089  0.0326
  120MOL   H20538523   0.612   5.501   3.539 -2.1700  1.2207  1.3986
  120MOL   H20638524   0.611   5.330   3.591  0.0265 -0.2260  2.1045
  120MOL   H20738525   0.906   5.614   3.656  0.0720  0.3547  0.3455
  120MOL   H20838526   0.773   5.606   3.547 -0.3000 -0.5146 -0.0215
  120MOL   H20938527   0.893   5.493   3.522  0.0999  0.4336 -0.7005
  120MOL   C21038528   1.022   5.264   3.867  0.3421 -0.9326 -0.1015
  120MOL   C21138529   0.961   5.140   3.929 -0.5097 -0.1897  0.3172
  120MOL   C21238530   0.914   5.173   4.080 -0.2234 -0.1123 -0.0658
  120MOL   O21338531   1.004   5.219   4.156  0.1341  0.7345 -0.0238
  120MOL   N21438532   0.791   5.139   4.124  0.4277 -0.4375 -0.1344
  120MOL   C21538533   0.670   5.091   4.050 -0.3560  0.0201 -0.3225
  120MOL   C21638534   0.767   5.161   4.268  0.0481 -0.3309 -0.3960
  120MOL   H21738535   1.050   5.238   3.765  2.5417 -0.3870  0.3493
  120MOL   H21838536   1.116   5.293   3.913  1.0308 -0.7717 -1.5984
  120MOL   H21938537   0.872   5.109   3.875 -0.1080  3.1416 -2.4018
  120MOL   H22038538   0.700   5.031   3.964 -0.7024  0.0081 -0.4370
  120MOL   H22138539   0.601   5.032   4.109  0.4847  0.3815  1.0477
  120MOL   H22238540   0.612   5.172   4.005  0.3673  0.3566 -0.6638
  120MOL   H22338541   0.741   5.266   4.287 -1.9622 -0.2524 -3.3868
  120MOL   H22438542   0.860   5.129   4.316 -0.7440 -0.9095  0.7768
  120MOL   H22538543   0.687   5.094   4.300  2.6126 -2.3380  2.1565
  120MOL   C22638544   1.039   5.013   3.915 -0.2081  0.5421 -0.0656
  120MOL   C22738545   1.162   4.993   4.003  0.4743 -0.1576  0.4194
  120MOL   C22838546   1.293   5.031   3.919  0.3361  0.7238 -0.6718
  120MOL   O22938547   1.317   4.968   3.810 -0.0947  0.3099  0.4509
  120MOL   N23038548   1.382   5.120   3.973 -0.2196  0.1056  0.9582
  120MOL   C23138549   1.355   5.218   4.080  0.2966  0.3180 -0.2118
  120MOL   C23238550   1.516   5.128   3.915  0.5781  0.5452  0.6778
  120MOL   H23338551   0.967   4.941   3.953  0.3319  0.5412  0.9491
  120MOL   H23438552   1.060   4.970   3.817  0.7202 -1.6144  1.0474
  120MOL   H23538553   1.166   5.049   4.097 -1.3187 -0.0936  0.4742
  120MOL   H23638554   1.352   5.172   4.178  2.2699  0.0464 -0.2519
  120MOL   H23738555   1.443   5.282   4.089 -0.2074  0.9950 -0.0066
  120MOL   H23838556   1.268   5.282   4.068 -0.1542 -0.3823 -0.6864
  120MOL   H23938557   1.519   5.191   3.826 -0.5256  1.7556  1.4874
  120MOL   H24038558   1.563   5.034   3.887 -0.1687  0.0965  0.9187
  120MOL   H24138559   1.590   5.176   3.978  2.5739  0.5454 -1.5941
  120MOL   C24238560   1.165   4.841   4.039  0.0024  0.3823 -0.2880
  120MOL   C24338561   1.254   4.795   4.156  0.3232 -0.0008 -0.3715
  120MOL   C24438562   1.404   4.805   4.131 -0.1482  0.0937 -0.1400
  120MOL   O24538563   1.458   4.749   4.034  0.4003  0.2836 -0.2213
  120MOL   N24638564   1.478   4.873   4.218 -0.8466 -0.2602 -0.0841
  120MOL   C24738565   1.426   4.933   4.340 -1.0988 -0.4353  0.6729
  120MOL   C24838566   1.623   4.900   4.203 -0.3884  0.4309 -0.7810
  120MOL   H24938567   1.064   4.810   4.067  0.8719 -0.3554  2.1989
  120MOL   H25038568   1.195   4.794   3.945 -0.1553 -0.8663  0.2635
  120MOL   H25138569   1.225   4.866   4.233 -1.8302 -2.2336  0.9326
  120MOL   H25238570   1.502   4.990   4.394 -0.7317 -0.8732  0.6148
  120MOL   H25338571   1.359   5.015   4.311  0.4514  1.2089  1.6374
  120MOL   H25438572   1.380   4.862   4.408 -0.0532 -0.5698  1.2465
  120MOL   H25538573   1.625   4.971   4.120 -2.8644  0.9848 -0.4107
  120MOL   H25638574   1.673   4.807   4.176  0.2284  0.3495  0.5981
  120MOL   H25738575   1.663   4.949   4.292 -2.0845 -0.5128  0.5221
  120MOL   C25838576   1.209   4.651   4.199 -0.1557 -0.0631 -0.4360
  120MOL   C25938577   1.215   4.535   4.092 -0.5893 -0.1354  0.6991
  120MOL   C26038578   1.075   4.530   4.026  0.0775 -0.1814 -0.0924
  120MOL   O26138579   0.977   4.512   4.104 -0.2470 -0.1233 -0.1290
  120MOL   N26238580   1.067   4.542   3.893  0.5433 -0.6507  0.3777
  120MOL   C26338581   1.173   4.527   3.794 -1.0939  0.0658  0.5273
  120MOL   C26438582   0.932   4.556   3.834  0.2820  0.2312  0.5356
  120MOL   H26538583   1.275   4.621   4.280 -1.6560 -0.1588  0.7719
  120MOL   H26638584   1.117   4.647   4.258  1.4104 -1.7096  1.9713
  120MOL   H26738585   1.298   4.551   4.023 -0.2761  0.6085  1.2477
  120MOL   H26838586   1.224   4.439   3.833 -1.1027  0.1081  0.6347
  120MOL   H26938587   1.140   4.515   3.691  1.4306 -1.5594 -0.1558
  120MOL   H27038588   1.240   4.613   3.795  0.2856 -1.0044  1.4915
  120MOL   H27138589   0.868   4.472   3.863  0.1972  0.4016  0.8449
  120MOL   H27238590   0.935   4.572   3.726  0.5328 -0.5852  0.4199
  120MOL   H27338591   0.890   4.646   3.879 -1.3714 -0.6691  0.8332
  120MOL   C27438592   1.244   4.405   4.159 -0.2642  0.0933 -0.1179
  120MOL   C27538593   1.394   4.384   4.189  0.1167  0.2485 -0.8853
  120MOL   C27638594   1.470   4.311   4.076 -0.3400  0.1330 -0.1068
  120MOL   O27738595   1.396   4.259   3.990 -0.1483  0.2847 -0.1002
  120MOL   N27838596   1.604   4.311   4.060  0.0713 -0.4466 -0.3314
  120MOL   C27938597   1.668   4.268   3.935  0.3127 -0.1196 -0.1172
  120MOL   C28038598   1.701   4.366   4.156 -0.3967 -0.1004 -0.1399
  120MOL   H28138599   1.186   4.387   4.250  0.0726 -1.2158 -0.1557
  120MOL   H28238600   1.212   4.329   4.088 -1.0920  0.9946 -0.7016
  120MOL   H28338601   1.441   4.481   4.205 -0.4785  0.3263  0.4156
  120MOL   H28438602   1.775   4.256   3.951  0.2240  0.4278  0.9327
  120MOL   H28538603   1.630   4.168   3.914 -0.6541  0.4363 -1.1036
  120MOL   H28638604   1.645   4.348   3.865  2.5598  0.5086 -0.1618
  120MOL   H28738605   1.769   4.282   4.172 -0.6341 -0.6037 -1.7049
  120MOL   H28838606   1.662   4.395   4.254 -1.2050 -3.6689  0.6693
  120MOL   H28938607   1.750   4.452   4.111 -0.4751  0.6803  1.2181
  120MOL   C29038608   1.410   4.301   4.317  0.1408 -0.1218  0.2536
  120MOL   C29138609   1.425   4.393   4.446  0.5832 -0.0292  0.2118
  120MOL   C29238610   1.570   4.400   4.494  0.5916  0.5542 -0.0140
  120MOL   O29338611   1.625   4.510   4.492  0.0322 -0.6298  0.2566
  120MOL   N29438612   1.634   4.298   4.537  0.6304 -0.1976  0.5285
  120MOL   C29538613   1.584   4.164   4.558 -0.3547 -0.3225 -0.3807
  120MOL   C29638614   1.776   4.313   4.585 -0.4630 -0.0669  0.1541
  120MOL   H29738615   1.327   4.231   4.325 -0.1313  0.2500  0.6919
  120MOL   H29838616   1.486   4.226   4.295 -0.7002 -0.9715  0.2124
  120MOL   H29938617   1.403   4.491   4.404  1.0418  0.4512  1.0960
  120MOL   H30038618   1.599   4.119   4.656  2.4629  0.1121 -0.5731
  120MOL   H30138619   1.477   4.162   4.536  0.1165  0.5261 -2.8982
  120MOL   H30238620   1.622   4.096   4.483  1.3194 -0.6124  0.6972
  120MOL   H30338621   1.851   4.322   4.507 -0.1544  1.0250  0.5610
  120MOL   H30438622   1.814   4.226   4.638 -2.4843 -1.3468 -0.4469
  120MOL   H30538623   1.781   4.389   4.663 -1.1403  1.3444 -1.1485
  120MOL   C30638624   1.308   4.381   4.550  0.2911 -0.1236  0.6309
  120MOL   C30738625   1.311   4.486   4.667  0.3027 -0.1584  0.2464
  120MOL   C30838626   1.262   4.626   4.628 -0.0453  0.1868 -0.1938
  120MOL   O30938627   1.187   4.642   4.532  0.1892  0.6986  0.0772
  120MOL   N31038628   1.297   4.733   4.700 -0.6405  0.2729 -0.6321
  120MOL   C31138629   1.251   4.870   4.676  0.3706 -0.4832 -0.2371
  120MOL   C31238630   1.397   4.721   4.813  0.4211 -0.6182 -0.2791
  120MOL   H31338631   1.215   4.387   4.493  0.6816  0.7278  0.0656
  120MOL   H31438632   1.300   4.284   4.598  1.4063  0.7677  2.7113
  120MOL   H31538633   1.232   4.446   4.731 -0.4252  0.3673 -0.3226
  120MOL   H31638634   1.281   4.935   4.758  1.5394  0.9516 -1.7603
  120MOL   H31738635   1.298   4.915   4.589  1.0054  0.2220  0.4607
  120MOL   H31838636   1.143   4.878   4.666  0.2270  0.2839  1.7070
  120MOL   H31938637   1.413   4.813   4.870  0.8667  0.5838 -2.2877
  120MOL   H32038638   1.498   4.706   4.775  2.0487  1.3624  3.0542
  120MOL   H32138639   1.385   4.646   4.891 -1.6873  1.7303  1.7460
  120MOL   H32238640   1.407   4.483   4.718  0.1458  0.9652  0.6235
  121MOL     C138641   2.677   1.677   6.417 -0.2526 -0.0970 -0.3688
  121MOL     C238642   2.610   1.564   6.494  0.6439 -0.3487  0.1113
  121MOL     C338643   2.456   1.581   6.485  0.4914 -0.1401  0.8592
  121MOL     O438644   2.405   1.685   6.529 -0.0768 -0.3856 -0.2543
  121MOL     N538645   2.380   1.476   6.437  0.0291 -0.3824  0.1796
  121MOL     C638646   2.242   1.468   6.464 -0.2518  0.1421 -0.6123
  121MOL     C738647   2.427   1.378   6.337  0.4305  0.4174 -0.2307
  121MOL     H838648   2.638   1.777   6.433 -0.1803 -0.2813  1.1181
  121MOL     H938649   2.695   1.656   6.312  3.2742 -0.4082  0.2285
  121MOL    H1038650   2.640   1.478   6.434  0.3139 -0.9897  0.8460
  121MOL    H1138651   2.186   1.430   6.378  0.4468  0.1795 -1.0901
  121MOL    H1238652   2.216   1.409   6.552 -1.1798 -1.2393 -1.7769
  121MOL    H1338653   2.192   1.564   6.471  0.7649  0.6674 -0.4628
  121MOL    H1438654   2.349   1.358   6.264 -0.6865 -0.1096  1.1078
  121MOL    H1538655   2.458   1.291   6.395  0.6526  0.0882 -0.8422
  121MOL    H1638656   2.514   1.417   6.283  0.0568  1.2706 -0.2212
  121MOL    H1738657   2.779   1.673   6.455 -0.0299  0.9417 -0.8675
  121MOL    C1838658   2.656   1.548   6.640  0.4037 -0.5783  0.3563
  121MOL    C1938659   2.636   1.671   6.742  0.4985  0.0428  0.1212
  121MOL    C2038660   2.730   1.786   6.715 -0.5477  0.4730  0.3866
  121MOL    O2138661   2.847   1.756   6.700 -0.5582 -0.1572  0.2032
  121MOL    N2238662   2.688   1.916   6.711  0.3302  0.1632  0.4045
  121MOL    C2338663   2.788   2.018   6.679 -0.4561  0.0130  0.3537
  121MOL    C2438664   2.565   1.970   6.772 -0.3890  0.6307 -0.2038
  121MOL    H2538665   2.605   1.455   6.667 -1.5501  0.4449  0.3381
  121MOL    H2638666   2.758   1.511   6.645  0.8690  0.7616  0.8134
  121MOL    H2738667   2.538   1.714   6.723  0.1153 -0.5732  0.7055
  121MOL    H2838668   2.844   2.046   6.768 -0.8400 -0.8838  0.8852
  121MOL    H2938669   2.857   1.993   6.598 -0.3800  1.1529  0.0558
  121MOL    H3038670   2.736   2.111   6.656  1.3738  1.4960  2.0506
  121MOL    H3138671   2.555   2.077   6.754  0.7587  0.6474 -0.7635
  121MOL    H3238672   2.544   1.952   6.878 -0.8493 -0.5826 -0.4934
  121MOL    H3338673   2.489   1.918   6.714  1.3838 -0.7650 -1.3075
  121MOL    C3438674   2.656   1.636   6.889 -0.1020  0.3643 -0.0141
  121MOL    C3538675   2.549   1.552   6.954 -0.5712 -0.0193  0.3687
  121MOL    C3638676   2.405   1.616   6.921 -0.3826 -0.5421  0.3980
  121MOL    O3738677   2.383   1.729   6.970 -0.1475  0.1964  0.2354
  121MOL    N3838678   2.315   1.538   6.856 -0.1838 -0.4908 -0.1194
  121MOL    C3938679   2.334   1.396   6.829 -0.1891  0.0127  0.0409
  121MOL    C4038680   2.181   1.591   6.832  0.9874 -0.1465  0.0118
  121MOL    H4138681   2.745   1.575   6.899  0.3163  0.8584 -0.7292
  121MOL    H4238682   2.670   1.726   6.949 -2.4036  0.1794  0.8567
  121MOL    H4338683   2.555   1.452   6.910  1.1217  0.0342  0.4626
  121MOL    H4438684   2.250   1.364   6.766 -0.4071  0.2764  0.1932
  121MOL    H4538685   2.418   1.381   6.762 -0.9074  1.7803 -1.3132
  121MOL    H4638686   2.347   1.318   6.903 -2.3164 -1.8694 -1.5030
  121MOL    H4738687   2.184   1.662   6.750 -1.6962  2.5629  2.1514
  121MOL    H4838688   2.138   1.645   6.916  0.0079 -0.4915 -0.2597
  121MOL    H4938689   2.109   1.513   6.805  0.5719 -0.0225  0.7371
  121MOL    C5038690   2.556   1.536   7.109 -0.0971 -0.4798 -0.2980
  121MOL    C5138691   2.668   1.440   7.155 -0.1648 -0.1096 -0.3663
  121MOL    C5238692   2.613   1.296   7.159 -0.2227  0.1260  0.6820
  121MOL    O5338693   2.533   1.258   7.247 -0.9147 -0.3055  0.1556
  121MOL    N5438694   2.666   1.202   7.077 -0.2225  0.0035  0.4191
  121MOL    C5538695   2.623   1.068   7.078 -0.4556  0.6333  0.1449
  121MOL    C5638696   2.768   1.233   6.980 -0.1496  0.1539  0.0130
  121MOL    H5738697   2.572   1.634   7.155 -1.3561 -1.2839  1.9644
  121MOL    H5838698   2.458   1.505   7.145 -0.7852  0.7151 -1.1122
  121MOL    H5938699   2.751   1.447   7.086  2.2760 -0.6811  2.4163
  121MOL    H6038700   2.695   1.000   7.033 -0.0107  1.3269 -0.2094
  121MOL    H6138701   2.607   1.033   7.180 -0.4300  2.6917  0.8966
  121MOL    H6238702   2.533   1.060   7.018 -0.1062  1.7716 -0.5591
  121MOL    H6338703   2.792   1.144   6.921  1.9367  0.5655  0.1826
  121MOL    H6438704   2.858   1.251   7.039  0.6886 -1.6843 -0.6375
  121MOL    H6538705   2.756   1.311   6.906  2.8402  0.0582 -0.6326
  121MOL    C6638706   2.724   1.470   7.296  0.3969  0.2330  0.6265
  121MOL    C6738707   2.806   1.597   7.324 -0.2300 -0.3381 -0.4703
  121MOL    C6838708   2.908   1.623   7.210 -0.2371 -1.0487  0.3319
  121MOL    O6938709   2.988   1.536   7.189  0.5378 -0.2314  0.0194
  121MOL    N7038710   2.906   1.737   7.137  0.1074  0.2421  0.3854
  121MOL    C7138711   2.992   1.741   7.024 -0.3865  0.1377 -0.2365
  121MOL    C7238712   2.801   1.839   7.154  0.6985 -0.4191  0.1828
  121MOL    H7338713   2.648   1.456   7.372  0.9972  0.2133  1.2337
  121MOL    H7438714   2.798   1.391   7.303 -1.7370 -2.1830 -2.5680
  121MOL    H7538715   2.732   1.676   7.339  1.6518  1.0864  1.6877
  121MOL    H7638716   3.096   1.731   7.054 -1.1313 -2.2171  1.7081
  121MOL    H7738717   2.967   1.661   6.954 -2.6729 -0.1804  0.9039
  121MOL    H7838718   2.982   1.834   6.968 -3.0024 -0.6795 -1.2111
  121MOL    H7938719   2.782   1.905   7.069 -1.3948  1.3720  1.9779
  121MOL    H8038720   2.822   1.901   7.241  0.8337  1.2187 -0.9874
  121MOL    H8138721   2.707   1.795   7.186  1.1734  0.4621  2.9766
  121MOL    C8238722   2.877   1.567   7.452 -1.0783  0.6750  0.5835
  121MOL    C8338723   2.910   1.702   7.538 -0.1945  0.1464  0.9905
  121MOL    C8438724   3.058   1.748   7.523  0.9070 -1.0438 -0.6980
  121MOL    O8538725   3.139   1.657   7.513  0.1027  0.3207  0.5117
  121MOL    N8638726   3.096   1.880   7.527  0.2589  0.5328 -0.2580
  121MOL    C8738727   3.007   1.997   7.531  0.6923  0.4083  0.5227
  121MOL    C8838728   3.234   1.905   7.533 -0.0451 -0.4998  0.5380
  121MOL    H8938729   2.811   1.504   7.512  0.7785 -1.4514  0.4798
  121MOL    H9038730   2.960   1.497   7.456 -1.7944 -0.2065  0.0641
  121MOL    H9138731   2.846   1.776   7.491 -1.5790 -1.0534  0.9456
  121MOL    H9238732   2.929   2.002   7.454  1.3342  1.2966 -0.0882
  121MOL    H9338733   2.958   2.022   7.625 -1.6571  1.1746 -0.8580
  121MOL    H9438734   3.061   2.089   7.506 -1.6520  1.5830 -0.3471
  121MOL    H9538735   3.242   2.010   7.563 -1.2010 -0.2160 -0.1042
  121MOL    H9638736   3.281   1.885   7.437  1.3255 -1.6550  1.4179
  121MOL    H9738737   3.287   1.840   7.603  0.4226  0.3697  1.0085
  121MOL    C9838738   2.870   1.695   7.690 -0.4925  0.4471 -0.0634
  121MOL    C9938739   2.721   1.660   7.723 -0.3823  0.3853 -0.5560
  121MOL   C10038740   2.623   1.771   7.657 -0.5304 -0.4617 -0.2437
  121MOL   O10138741   2.653   1.889   7.668  0.4257 -0.3848 -0.1714
  121MOL   N10238742   2.513   1.735   7.582  0.1985 -0.3305 -0.0185
  121MOL   C10338743   2.439   1.837   7.489  0.0486  0.3144  0.0531
  121MOL   C10438744   2.455   1.601   7.571 -0.6277 -0.0818  0.6670
  121MOL   H10538745   2.936   1.627   7.743  1.2687  0.7420 -1.7908
  121MOL   H10638746   2.893   1.793   7.732  1.5595 -0.3858  0.8165
  121MOL   H10738747   2.698   1.561   7.683  2.7275  0.1323 -1.8803
  121MOL   H10838748   2.332   1.850   7.508 -0.0950 -0.4229 -0.2516
  121MOL   H10938749   2.490   1.933   7.490 -0.7850  0.7630  0.5674
  121MOL   H11038750   2.450   1.802   7.386 -2.6727 -0.3647 -0.0607
  121MOL   H11138751   2.523   1.516   7.575  0.0399  0.3635 -0.8524
  121MOL   H11238752   2.400   1.591   7.478  0.9321 -2.2834 -0.0644
  121MOL   H11338753   2.385   1.584   7.653 -1.3494 -0.4740 -0.0212
  121MOL   C11438754   2.697   1.655   0.026  0.3619 -0.1325  0.1933
  121MOL   C11538755   2.569   1.573   0.072  0.5105 -0.1050 -0.2066
  121MOL   C11638756   2.531   1.643   0.204  0.0619 -0.8382  0.3962
  121MOL   O11738757   2.600   1.613   0.303 -0.0558  0.0567  0.0757
  121MOL   N11838758   2.424   1.727   0.218  0.4384 -0.8861 -0.7246
  121MOL   C11938759   2.387   1.798   0.339 -0.2247 -0.1504 -0.3100
  121MOL   C12038760   2.330   1.746   0.116  0.0346 -0.5278  0.6681
  121MOL   H12138761   2.784   1.613   0.076  0.2392 -1.7419 -0.9174
  121MOL   H12238762   2.704   1.754   0.072  0.9119 -1.0472  2.1144
  121MOL   H12338763   2.486   1.592   0.005  0.3142 -1.0331 -0.2442
  121MOL   H12438764   2.409   1.904   0.346  1.7116 -0.3166 -3.0588
  121MOL   H12538765   2.286   1.776   0.373  0.2409 -2.0893 -0.0819
  121MOL   H12638766   2.449   1.765   0.423  0.9210  1.0163 -0.6843
  121MOL   H12738767   2.374   1.779   0.022 -0.9234 -1.9878 -0.3021
  121MOL   H12838768   2.249   1.814   0.140 -1.2477 -1.1007 -1.8994
  121MOL   H12938769   2.285   1.650   0.093  0.3699 -0.2628 -1.1402
  121MOL   C13038770   2.601   1.419   0.083  0.3745 -0.3769 -0.2729
  121MOL   C13138771   2.492   1.307   0.090 -0.3910 -0.0633 -0.1975
  121MOL   C13238772   2.386   1.323   7.820  0.0471  0.7001  1.1674
  121MOL   O13338773   2.300   1.411   7.837 -0.2006 -0.2274  0.5274
  121MOL   N13438774   2.386   1.248   7.707  0.1613  0.8600  0.8819
  121MOL   C13538775   2.274   1.259   7.611 -0.6899 -0.0969  0.3444
  121MOL   C13638776   2.472   1.135   7.678 -1.1703 -0.4962  0.1654
  121MOL   H13738777   2.650   1.406   7.840  0.8553 -0.3779 -0.0309
  121MOL   H13838778   2.670   1.409   0.167 -1.4935  1.1237  1.5095
  121MOL   H13938779   2.551   1.216   0.076 -0.4937 -0.6275  2.6302
  121MOL   H14038780   2.182   1.303   7.649 -0.3507 -1.1565  2.4630
  121MOL   H14138781   2.317   1.318   7.530  0.1956  0.5216  1.2662
  121MOL   H14238782   2.253   1.162   7.564 -2.0532  0.7976 -0.9591
  121MOL   H14338783   2.471   1.096   7.576 -0.5319 -0.1200  0.0117
  121MOL   H14438784   2.457   1.046   7.740  3.6660 -1.9538 -0.5866
  121MOL   H14538785   2.576   1.162   7.693 -2.2179  3.1267  1.3733
  121MOL   C14638786   2.427   1.287   0.224 -0.6477  0.2997  0.0219
  121MOL   C14738787   2.306   1.193   0.241 -0.4718  0.0674  0.2899
  121MOL   C14838788   2.255   1.184   0.387 -0.6384 -0.4617 -0.6156
  121MOL   O14938789   2.312   1.104   0.461 -0.1366  0.2467  0.9522
  121MOL   N15038790   2.145   1.254   0.416  0.3484  0.0594 -0.7519
  121MOL   C15138791   2.089   1.226   0.545 -0.2628  0.3731 -0.2749
  121MOL   C15238792   2.080   1.355   0.340  0.2924  0.1161 -0.6578
  121MOL   H15338793   2.516   1.261   0.282  0.2900 -0.5487 -1.7904
  121MOL   H15438794   2.396   1.383   0.267 -0.2731  0.2306  0.4550
  121MOL   H15538795   2.219   1.228   0.185  0.1283 -0.9051 -1.2831
  121MOL   H15638796   2.158   1.255   0.625 -0.1050  0.1681 -0.3376
  121MOL   H15738797   1.991   1.271   0.554 -0.4064 -0.4355  2.7409
  121MOL   H15838798   2.075   1.118   0.547  0.5304  0.2677  0.0106
  121MOL   H15938799   2.137   1.442   0.305  2.2835 -1.0043 -0.2515
  121MOL   H16038800   2.013   1.412   0.405 -0.7291 -0.9617 -0.7605
  121MOL   H16138801   2.018   1.324   0.256 -0.3870 -0.5272  0.0749
  121MOL   C16238802   2.337   1.053   0.189 -0.1553 -0.0446  0.2249
  121MOL   C16338803   2.230   0.941   0.192  0.0457 -0.1179  0.0344
  121MOL   C16438804   2.288   0.801   0.178  0.5369  0.4223 -0.4440
  121MOL   O16538805   2.301   0.760   0.064  0.0045 -0.2195 -0.1971
  121MOL   N16638806   2.356   0.747   0.280  0.6140 -0.1825 -0.1773
  121MOL   C16738807   2.327   0.769   0.425 -0.0239  0.1584 -0.7110
  121MOL   C16838808   2.451   0.642   0.265 -0.6167 -0.2838  0.2494
  121MOL   H16938809   2.359   1.059   0.082 -0.5620  5.0736  0.3100
  121MOL   H17038810   2.429   1.012   0.231  0.0518 -1.3730 -1.4536
  121MOL   H17138811   2.179   0.944   0.288  2.0425 -0.0068  1.1383
  121MOL   H17238812   2.223   0.792   0.446 -0.2340 -2.4084  1.2813
  121MOL   H17338813   2.349   0.680   0.484  1.4521  0.1369 -1.2830
  121MOL   H17438814   2.389   0.848   0.466 -0.5762  0.5393 -0.6162
  121MOL   H17538815   2.551   0.665   0.303 -0.0078 -1.3768 -0.6665
  121MOL   H17638816   2.463   0.607   0.162  1.0652  1.9399 -0.3578
  121MOL   H17738817   2.406   0.556   0.314  0.4622 -1.0866 -0.1669
  121MOL   C17838818   2.118   0.977   0.088 -0.8945  0.2893 -0.4211
  121MOL   C17938819   1.979   0.909   0.121 -0.1736  0.0761 -0.0227
  121MOL   C18038820   1.888   0.911   7.846 -0.4612  0.1895  0.0237
  121MOL   O18138821   1.833   1.019   7.819 -0.1502  0.0538 -0.1569
  121MOL   N18238822   1.869   0.795   7.771 -0.1820 -0.7438  0.3640
  121MOL   C18338823   1.933   0.663   7.790 -0.0090 -0.3097  0.1556
  121MOL   C18438824   1.790   0.786   7.644  0.2171 -0.3887 -0.6122
  121MOL   H18538825   2.111   1.085   0.076 -0.6671  0.2210 -1.1476
  121MOL   H18638826   2.164   0.948   7.848 -0.9541  2.6624 -1.2223
  121MOL   H18738827   1.997   0.803   0.141 -1.8180 -0.2865 -0.4373
  121MOL   H18838828   2.031   0.679   7.836 -0.1790 -0.0901  0.4499
  121MOL   H18938829   1.869   0.616   0.011 -2.7268  3.0994  0.0656
  121MOL   H19038830   1.958   0.611   7.698 -0.4032  2.0760 -1.3471
  121MOL   H19138831   1.856   0.773   7.558  0.3210  1.0818 -0.7684
  121MOL   H19238832   1.726   0.873   7.630  0.7231  0.0769 -0.0021
  121MOL   H19338833   1.729   0.695   7.644  0.4448 -0.5627 -2.2964
  121MOL   C19438834   1.917   0.984   0.248  0.0599  0.0920 -0.5334
  121MOL   C19538835   1.763   0.958   0.287 -0.4321 -0.3080 -0.0155
  121MOL   C19638836   1.718   1.045   0.406  0.1223 -0.0123  0.5235
  121MOL   O19738837   1.793   1.077   0.497  0.6447  0.1036  0.0923
  121MOL   N19838838   1.588   1.085   0.404 -0.6863 -0.2626  0.2298
  121MOL   C19938839   1.530   1.176   0.506 -0.6051 -0.2687  0.4228
  121MOL   C20038840   1.486   1.044   0.309 -0.3731 -0.0073  0.1256
  121MOL   H20138841   1.977   0.946   0.331  2.2663  1.5785 -1.3942
  121MOL   H20238842   1.930   1.092   0.235 -6.0990  0.9002 -1.6481
  121MOL   H20338843   1.716   1.003   0.200  1.6397  1.4707 -0.2649
  121MOL   H20438844   1.608   1.226   0.563 -1.4939  0.7761  0.7371
  121MOL   H20538845   1.465   1.248   0.457 -1.4281 -1.7988 -0.7939
  121MOL   H20638846   1.485   1.118   0.586  0.6125 -1.7006  0.0926
  121MOL   H20738847   1.508   1.082   0.209 -1.4037  0.5934  0.1203
  121MOL   H20838848   1.385   1.073   0.335  0.0474  0.8581  0.8394
  121MOL   H20938849   1.490   0.936   0.324  0.3193 -0.1470 -0.9742
  121MOL   C21038850   1.722   0.811   0.286 -0.9050 -0.7278 -0.2757
  121MOL   C21138851   1.726   0.733   0.422  0.8251 -0.0560 -0.5708
  121MOL   C21238852   1.865   0.726   0.476 -0.0980  0.1112 -0.4330
  121MOL   O21338853   1.958   0.693   0.406 -0.3710 -0.2945  0.3140
  121MOL   N21438854   1.890   0.764   0.606 -0.9547 -0.0488  0.3577
  121MOL   C21538855   1.790   0.827   0.694  0.2360 -0.1594 -0.6850
  121MOL   C21638856   2.007   0.732   0.680 -0.5279  0.2790 -0.5637
  121MOL   H21738857   1.629   0.800   0.230 -1.0797  0.5523 -0.2550
  121MOL   H21838858   1.789   0.758   0.218 -0.4024  0.9694 -1.1106
  121MOL   H21938859   1.654   0.787   0.485  1.6382 -1.5548  1.7287
  121MOL   H22038860   1.781   0.935   0.683 -1.7118 -0.0493  1.6446
  121MOL   H22138861   1.693   0.777   0.693  0.3574 -0.4767  0.9843
  121MOL   H22238862   1.826   0.820   0.797 -3.9588 -1.9840  0.7689
  121MOL   H22338863   1.989   0.646   0.745 -0.0836  1.0816  0.6483
  121MOL   H22438864   2.033   0.819   0.740  0.5202  0.4528 -1.2718
  121MOL   H22538865   2.095   0.711   0.620  0.1079 -1.6407  0.9855
  121MOL   C22638866   1.675   0.587   0.417  0.5013 -0.2283  0.8162
  121MOL   C22738867   1.667   0.501   0.557 -0.2098 -0.2027 -0.1923
  121MOL   C22838868   1.674   0.356   0.534 -0.3309 -0.2594 -0.2471
  121MOL   O22938869   1.577   0.300   0.480  0.5379  0.0669 -0.4472
  121MOL   N23038870   1.779   0.281   0.576  0.0945 -0.2278 -0.1635
  121MOL   C23138871   1.778   0.135   0.546  0.1847 -0.6650 -0.1331
  121MOL   C23238872   1.899   0.335   0.639 -0.4583  0.0385 -0.0145
  121MOL   H23338873   1.589   0.576   0.351  1.5174 -0.3714 -0.5279
  121MOL   H23438874   1.746   0.528   0.358 -0.6288 -2.1167  1.3255
  121MOL   H23538875   1.755   0.527   0.615 -0.5268 -2.6480  1.4719
  121MOL   H23638876   1.681   0.088   0.568  0.3204 -1.5050 -1.2707
  121MOL   H23738877   1.789   0.119   0.439  1.4885  2.6111 -0.5362
  121MOL   H23838878   1.862   0.085   0.594  0.3147  1.7467  2.2218
  121MOL   H23938879   1.977   0.261   0.659  0.5402  0.7530 -1.1732
  121MOL   H24038880   1.879   0.375   0.738  1.0251  0.4229  0.1503
  121MOL   H24138881   1.951   0.408   0.576  1.9941  0.7745  2.7597
  121MOL   C24238882   1.541   0.542   0.637  0.4690  0.2265  0.0028
  121MOL   C24338883   1.536   0.513   0.795 -0.4369 -0.9141  0.8828
  121MOL   C24438884   1.651   0.583   0.882  0.3046 -0.0847  0.5117
  121MOL   O24538885   1.772   0.555   0.863  0.1464  0.5183 -0.0821
  121MOL   N24638886   1.617   0.679   0.975  0.2932  0.0830 -0.1434
  121MOL   C24738887   1.478   0.747   0.971 -0.2324 -0.2618  0.0371
  121MOL   C24838888   1.717   0.737   1.060  0.2234  0.0953 -0.0656
  121MOL   H24938889   1.532   0.650   0.630  1.1300  0.3137  0.4630
  121MOL   H25038890   1.455   0.496   0.588 -0.3477  1.1571  0.5517
  121MOL   H25138891   1.443   0.554   0.832  0.7278  2.5790  0.1071
  121MOL   H25238892   1.400   0.683   1.013  0.3656  0.1804  1.8586
  121MOL   H25338893   1.481   0.834   1.036  1.5011 -1.6544  1.8592
  121MOL   H25438894   1.457   0.774   0.867  2.3248 -0.2728 -0.5037
  121MOL   H25538895   1.736   0.843   1.044  2.4685 -0.5076 -1.5968
  121MOL   H25638896   1.815   0.695   1.037 -0.6409 -1.3982 -1.1220
  121MOL   H25738897   1.708   0.716   1.166 -1.4845 -1.1444 -0.4290
  121MOL   C25838898   1.537   0.359   0.821 -0.3734 -0.1622  0.2279
  121MOL   C25938899   1.491   0.300   0.959  0.2361  0.5615 -0.4438
  121MOL   C26038900   1.345   0.331   0.993  0.0414  0.2918 -0.0449
  121MOL   O26138901   1.326   0.433   1.061  0.4960  0.1388 -0.0101
  121MOL   N26238902   1.240   0.253   0.948  0.6587  0.9357  0.5873
  121MOL   C26338903   1.252   0.131   0.865 -0.1168 -0.4308 -0.3014
  121MOL   C26438904   1.106   0.286   0.987  0.2986 -0.2332 -0.4584
  121MOL   H26538905   1.489   0.293   0.749 -0.3098 -0.4313  0.4345
  121MOL   H26638906   1.643   0.337   0.809 -0.3582  0.7509 -1.4612
  121MOL   H26738907   1.502   0.192   0.950 -0.6281  0.3354  1.0024
  121MOL   H26838908   1.313   0.143   0.775  1.1951 -1.5130  0.4252
  121MOL   H26938909   1.308   0.052   0.916 -0.8306 -0.0429  1.1065
  121MOL   H27038910   1.164   0.094   0.813 -0.9511  2.8238 -1.3280
  121MOL   H27138911   1.104   0.278   1.096 -0.4534 -2.9091 -0.6476
  121MOL   H27238912   1.028   0.218   0.954  0.4304 -0.3178 -0.5950
  121MOL   H27338913   1.077   0.387   0.958  0.8508 -0.4028 -1.5909
  121MOL   C27438914   1.592   0.331   1.080  0.4456 -0.2066 -0.9998
  121MOL   C27538915   1.741   0.284   1.076 -0.7218  0.1273  0.8861
  121MOL   C27638916   1.743   0.129   1.118 -0.0707  0.1392 -0.1829
  121MOL   O27738917   1.684   0.091   1.216  0.3723  0.3793  0.0470
  121MOL   N27838918   1.799   0.041   1.027 -1.0501  0.5499 -0.9671
  121MOL   C27938919   1.875   0.087   0.909  0.8601 -0.3044  0.3429
  121MOL   C28038920   1.839   7.758   1.066  0.8974 -0.0569  0.3065
  121MOL   H28138921   1.584   0.436   1.106  0.1369 -1.1116  2.8558
  121MOL   H28238922   1.551   0.289   1.172  2.4161  0.5201  0.2426
  121MOL   H28338923   1.777   0.300   0.975  0.5885 -0.4500  1.2521
  121MOL   H28438924   1.961   0.151   0.930 -0.2611  1.8895 -1.4710
  121MOL   H28538925   1.914   0.002   0.853  0.8174 -1.0235  1.3894
  121MOL   H28638926   1.807   0.138   0.840 -0.1308 -1.0621  0.7551
  121MOL   H28738927   1.939   7.745   1.107  0.5400 -1.1327  0.8767
  121MOL   H28838928   1.810   7.685   0.991  0.2263  0.8392 -0.3148
  121MOL   H28938929   1.767   7.730   1.143  1.3978 -1.6573  0.2095
  121MOL   C29038930   1.831   0.366   1.170 -0.1345 -0.8948 -0.1222
  121MOL   C29138931   1.981   0.356   1.148 -0.2949 -0.4990 -0.0857
  121MOL   C29238932   2.052   0.385   1.287  0.6584  0.5669 -0.3252
  121MOL   O29338933   2.072   0.499   1.314  0.3086 -1.3634 -0.3137
  121MOL   N29438934   2.070   0.281   1.372  0.1072  0.4866 -0.3781
  121MOL   C29538935   2.142   0.313   1.499  0.9374  0.1530  0.0811
  121MOL   C29638936   2.068   0.137   1.333  0.1956 -0.4591 -0.0768
  121MOL   H29738937   1.796   0.469   1.170  0.4875 -0.6563 -2.4435
  121MOL   H29838938   1.808   0.339   1.274 -0.0009 -0.3766  0.0419
  121MOL   H29938939   2.013   0.257   1.116  0.0788 -0.1776 -0.7296
  121MOL   H30038940   2.246   0.318   1.467  1.2963 -0.6372  1.1036
  121MOL   H30138941   2.109   0.403   1.550 -0.8898 -0.6043  0.2565
  121MOL   H30238942   2.146   0.238   1.578 -0.5997 -0.9469 -0.8491
  121MOL   H30338943   2.106   0.077   1.416 -2.4214 -1.9241  0.1059
  121MOL   H30438944   2.131   0.112   1.248  1.9616  0.6540  0.8697
  121MOL   H30538945   1.973   0.092   1.307 -1.4277  0.9738  3.0439
  121MOL   C30638946   2.037   0.459   1.041 -0.0690 -0.6553  0.1336
  121MOL   C30738947   2.193   0.458   1.019 -0.3439  0.5399  0.2424
  121MOL   C30838948   2.252   0.339   0.947  0.4685 -0.4297  0.0683
  121MOL   O30938949   2.270   0.237   1.017  0.2997 -0.6300  0.5145
  121MOL   N31038950   2.282   0.341   0.809 -0.3490 -0.5452 -0.6341
  121MOL   C31138951   2.242   0.455   0.718 -0.1689 -0.4966  0.0124
  121MOL   C31238952   2.325   0.223   0.737  0.6188 -0.5801  0.2464
  121MOL   H31338953   1.981   0.447   0.948  0.2686 -1.9695  0.0882
  121MOL   H31438954   2.006   0.558   1.076 -0.8289 -0.5883 -0.7284
  121MOL   H31538955   2.211   0.548   0.961  1.3859 -0.5836 -1.0043
  121MOL   H31638956   2.258   0.429   0.613 -0.7257  0.7979 -0.3984
  121MOL   H31738957   2.135   0.474   0.725 -0.1447  0.6210 -2.1557
  121MOL   H31838958   2.286   0.549   0.749 -1.0254 -0.6263  1.6710
  121MOL   H31938959   2.369   0.249   0.641  0.9137 -0.0296  0.5308
  121MOL   H32038960   2.248   0.146   0.734 -0.2395  0.2486  0.6966
  121MOL   H32138961   2.413   0.190   0.791  0.0601 -2.8214 -0.1622
  121MOL   H32238962   2.238   0.470   1.118 -1.1046  0.9033  0.5449
  122MOL     C138963   5.210   1.732   1.208  0.7232 -0.3980 -0.6484
  122MOL     C238964   5.188   1.889   1.226 -0.3125  0.0147  0.2407
  122MOL     C338965   5.252   1.964   1.106  0.1162 -0.3895 -0.3456
  122MOL     O438966   5.372   1.968   1.102  0.2875  0.0447 -0.2132
  122MOL     N538967   5.171   2.040   1.021 -0.3249  0.2053 -0.1230
  122MOL     C638968   5.029   1.995   0.996 -0.4197 -0.0621 -0.0747
  122MOL     C738969   5.233   2.121   0.909  0.0896 -0.0184 -0.4908
  122MOL     H838970   5.315   1.708   1.197  1.5169  2.9354 -0.8771
  122MOL     H938971   5.165   1.698   1.115 -1.7548 -0.5650  0.5654
  122MOL    H1038972   5.084   1.921   1.229 -0.4154 -0.4373  2.7707
  122MOL    H1138973   5.002   2.053   0.907  2.1278 -1.0547 -1.5627
  122MOL    H1238974   5.026   1.892   0.960  1.6300 -0.4659  0.8200
  122MOL    H1338975   4.970   2.006   1.086  0.8256  0.1365  0.7287
  122MOL    H1438976   5.337   2.151   0.925  0.4099 -2.0234  1.3382
  122MOL    H1538977   5.175   2.206   0.873  1.9576  0.7301 -1.8137
  122MOL    H1638978   5.225   2.056   0.822  0.1470 -0.2381 -0.3308
  122MOL    H1738979   5.163   1.675   1.288 -1.2781  1.6932 -0.2647
  122MOL    C1838980   5.272   1.926   1.353 -0.6032  0.3175 -0.5124
  122MOL    C1938981   5.261   2.062   1.421 -0.3402 -0.2777  0.5944
  122MOL    C2038982   5.375   2.158   1.377 -0.5092  1.1775  0.3138
  122MOL    O2138983   5.497   2.136   1.407  0.7114 -0.2038 -0.5411
  122MOL    N2238984   5.348   2.264   1.296 -0.6509  0.7037  0.0947
  122MOL    C2338985   5.459   2.329   1.224 -1.1245 -0.3222  0.4280
  122MOL    C2438986   5.216   2.311   1.256 -0.5204  0.1836 -0.6068
  122MOL    H2538987   5.259   1.838   1.417 -0.8283  0.8387  0.1642
  122MOL    H2638988   5.379   1.906   1.343 -0.4245 -0.9554  3.1181
  122MOL    H2738989   5.163   2.101   1.395  1.3309  1.6379 -3.2711
  122MOL    H2838990   5.428   2.414   1.164  1.9506  0.6503  0.1184
  122MOL    H2938991   5.524   2.381   1.295 -1.4216  1.2841 -0.4435
  122MOL    H3038992   5.516   2.268   1.155 -2.6968 -1.1957 -0.1269
  122MOL    H3138993   5.163   2.329   1.350  1.9796  1.6150  0.5768
  122MOL    H3238994   5.160   2.245   1.189 -0.9942 -2.3707  2.1535
  122MOL    H3338995   5.227   2.408   1.210 -1.3550  0.8835  0.6180
  122MOL    C3438996   5.267   2.042   1.578  0.6359  0.2467  0.2509
  122MOL    C3538997   5.124   1.998   1.641 -0.1974 -0.3669 -0.1276
  122MOL    C3638998   5.035   2.122   1.660 -0.1399 -0.0767  0.3850
  122MOL    O3738999   5.071   2.211   1.736  0.0896 -0.2943 -0.0936
  122MOL    N3839000   4.925   2.144   1.579  0.2461 -0.0304  0.1724
  122MOL    C3939001   4.868   2.278   1.576  0.0059  0.1653  0.2441
  122MOL    C4039002   4.853   2.039   1.502  0.6853  0.3370  0.9203
  122MOL    H4139003   5.351   1.977   1.601 -0.9320 -2.5599 -1.6495
  122MOL    H4239004   5.295   2.137   1.623 -1.0740  0.4005  1.0478
  122MOL    H4339005   5.093   1.925   1.566  0.3694 -1.6646  0.8657
  122MOL    H4439006   4.931   2.345   1.517 -1.5116  1.5397  0.1542
  122MOL    H4539007   4.774   2.275   1.521  1.8535 -2.4515 -2.9174
  122MOL    H4639008   4.861   2.328   1.673  1.5692  0.5291  0.1946
  122MOL    H4739009   4.851   1.949   1.563  0.7897  0.1427  0.6345
  122MOL    H4839010   4.921   2.018   1.419  1.3790  0.3780  1.4728
  122MOL    H4939011   4.756   2.067   1.461  1.4806  1.4471 -0.2455
  122MOL    C5039012   5.155   1.930   1.778 -0.4825 -0.9789  0.2413
  122MOL    C5139013   5.074   1.804   1.815  0.6287  0.1764  0.0378
  122MOL    C5239014   5.096   1.688   1.716 -0.0533  0.2071  0.5014
  122MOL    O5339015   5.027   1.682   1.614 -0.0042  0.3491  0.8658
  122MOL    N5439016   5.189   1.591   1.742 -0.2286 -0.4129 -1.1690
  122MOL    C5539017   5.292   1.616   1.846 -0.0084 -0.0419 -0.9955
  122MOL    C5639018   5.209   1.476   1.664 -0.8111  0.1995  0.1886
  122MOL    H5739019   5.259   1.909   1.803 -0.8874  0.2359  3.1408
  122MOL    H5839020   5.144   2.007   1.854  1.9693  1.6896 -1.9814
  122MOL    H5939021   5.103   1.759   1.910 -0.0598  0.3166  0.3192
  122MOL    H6039022   5.379   1.553   1.830 -0.2417 -0.1215 -1.9559
  122MOL    H6139023   5.331   1.717   1.845 -0.3041  0.0664 -3.2510
  122MOL    H6239024   5.247   1.596   1.944 -1.2303 -0.1622 -1.5731
  122MOL    H6339025   5.235   1.500   1.561  1.7290  1.6534  1.1228
  122MOL    H6439026   5.121   1.412   1.667  1.6366 -3.3232 -0.5870
  122MOL    H6539027   5.294   1.412   1.686 -0.1498  0.6993 -0.8946
  122MOL    C6639028   4.924   1.823   1.831 -0.4950 -0.1164 -0.2411
  122MOL    C6739029   4.860   1.940   1.916  0.6332 -0.4979  0.0041
  122MOL    C6839030   4.941   1.975   2.047 -0.2190 -0.0848  0.0324
  122MOL    O6939031   5.011   1.892   2.094 -0.5125 -0.3974  0.0232
  122MOL    N7039032   4.937   2.101   2.102 -0.3158  0.2426 -0.5450
  122MOL    C7139033   4.854   2.207   2.040 -0.5709 -0.0347 -0.8072
  122MOL    C7239034   5.035   2.143   2.205 -0.1725  0.2571  0.5552
  122MOL    H7339035   4.868   1.810   1.739  0.7178  1.5630 -1.2406
  122MOL    H7439036   4.890   1.734   1.884  0.9336  1.7359  4.0066
  122MOL    H7539037   4.855   2.033   1.860 -2.4992 -1.2040 -1.0182
  122MOL    H7639038   4.906   2.233   1.948 -1.2322  1.8114 -0.6841
  122MOL    H7739039   4.758   2.170   2.004 -0.8695  0.6671 -0.7373
  122MOL    H7839040   4.848   2.291   2.110  2.0810 -0.8300  0.4461
  122MOL    H7939041   5.115   2.204   2.164 -0.7701  1.0031  0.4711
  122MOL    H8039042   5.088   2.060   2.250  3.0615  2.0977  0.2874
  122MOL    H8139043   4.997   2.206   2.285  0.3484 -1.8376  2.4866
  122MOL    C8239044   4.721   1.885   1.959  0.7832 -0.2168  0.2008
  122MOL    C8339045   4.620   1.880   1.836  0.1169  0.0930 -0.6715
  122MOL    C8439046   4.484   1.960   1.851  0.3487  0.3179 -0.6701
  122MOL    O8539047   4.384   1.908   1.906 -0.3780 -0.0989 -0.5308
  122MOL    N8639048   4.474   2.085   1.812  0.1174  0.3160  0.1839
  122MOL    C8739049   4.349   2.159   1.826 -0.1417 -0.5078 -0.3334
  122MOL    C8839050   4.589   2.148   1.738  0.0974 -0.4382  0.2060
  122MOL    H8939051   4.739   1.793   2.015 -0.2319 -1.0177 -0.7705
  122MOL    H9039052   4.678   1.958   2.027 -2.0187 -1.5846 -0.0170
  122MOL    H9139053   4.672   1.933   1.756 -0.6320  2.2309  0.2032
  122MOL    H9239054   4.300   2.156   1.923 -1.7374 -1.1672 -1.1305
  122MOL    H9339055   4.360   2.261   1.788 -0.0929  0.0367  1.1227
  122MOL    H9439056   4.286   2.105   1.755 -0.4694  0.1332 -0.5418
  122MOL    H9539057   4.570   2.256   1.740  0.9351 -0.3017  0.8722
  122MOL    H9639058   4.598   2.111   1.636  2.4927 -0.6877  0.4896
  122MOL    H9739059   4.683   2.129   1.789  0.1464  1.0497  0.6939
  122MOL    C9839060   4.585   1.737   1.801  0.4933  0.0636  0.6509
  122MOL    C9939061   4.508   1.716   1.668  0.1575  1.3434  0.0165
  122MOL   C10039062   4.469   1.564   1.656  0.2646 -0.6990 -0.8613
  122MOL   O10139063   4.547   1.484   1.613 -0.7835  0.5269  0.0774
  122MOL   N10239064   4.338   1.533   1.695 -0.1223  0.2861  0.0482
  122MOL   C10339065   4.277   1.406   1.661  0.0858  0.3782  0.4162
  122MOL   C10439066   4.255   1.620   1.786 -0.6546  0.0362  0.5072
  122MOL   H10539067   4.676   1.677   1.790 -0.3037 -1.2345  0.9626
  122MOL   H10639068   4.528   1.695   1.884 -1.4865 -0.4570 -0.9399
  122MOL   H10739069   4.423   1.784   1.661 -1.4029 -0.7662 -2.5851
  122MOL   H10839070   4.310   1.329   1.730  1.8588  2.0366  1.4625
  122MOL   H10939071   4.169   1.418   1.665  0.3645  2.4792  3.5026
  122MOL   H11039072   4.315   1.373   1.564 -1.9586 -0.4318 -0.1354
  122MOL   H11139073   4.310   1.639   1.879 -1.0104  0.7728  0.5700
  122MOL   H11239074   4.163   1.572   1.820 -1.5308  0.5836 -1.0384
  122MOL   H11339075   4.239   1.720   1.746 -1.1499 -0.5668 -0.8180
  122MOL   C11439076   4.581   1.765   1.538 -0.5668  0.2712  0.2255
  122MOL   C11539077   4.537   1.717   1.396  0.5678 -0.5304  0.8241
  122MOL   C11639078   4.642   1.762   1.289 -0.2263 -0.1658 -0.1489
  122MOL   O11739079   4.662   1.883   1.262  0.1950  0.4073  0.2939
  122MOL   N11839080   4.699   1.663   1.211 -0.6318 -0.1429 -0.1854
  122MOL   C11939081   4.702   1.523   1.243 -1.1615 -0.4468 -0.0180
  122MOL   C12039082   4.746   1.692   1.078 -0.4619 -0.1978  0.2407
  122MOL   H12139083   4.582   1.874   1.537  1.1109  0.3109  1.9221
  122MOL   H12239084   4.688   1.745   1.543 -0.7837 -0.8005  0.9665
  122MOL   H12339085   4.531   1.608   1.397 -2.4960 -0.3951  1.2174
  122MOL   H12439086   4.605   1.475   1.228 -0.5037 -1.3645 -1.4890
  122MOL   H12539087   4.767   1.458   1.183  0.2018  0.9785 -0.1092
  122MOL   H12639088   4.717   1.502   1.349  1.4011  0.2803 -0.1974
  122MOL   H12739089   4.819   1.773   1.084 -0.8128 -0.0458  3.6532
  122MOL   H12839090   4.663   1.714   1.011 -1.5108  0.1511  1.6351
  122MOL   H12939091   4.813   1.616   1.036 -2.4947 -2.8467  1.6305
  122MOL   C13039092   4.386   1.767   1.370 -0.0200 -0.7074 -0.2054
  122MOL   C13139093   4.323   1.708   1.247 -0.1367  0.3843  0.0791
  122MOL   C13239094   4.328   1.804   1.122 -0.2416 -0.0143 -0.4098
  122MOL   O13339095   4.280   1.919   1.124  0.3575 -0.0859 -0.6987
  122MOL   N13439096   4.375   1.755   1.003  0.4528  0.3747  0.8723
  122MOL   C13539097   4.417   1.845   0.900  0.5959 -0.2777 -0.1983
  122MOL   C13639098   4.402   1.612   0.968 -0.4111  0.1803  0.1062
  122MOL   H13739099   4.321   1.751   1.456  0.7972 -1.6646  0.2520
  122MOL   H13839100   4.396   1.876   1.370 -1.1682 -0.5840 -2.7278
  122MOL   H13939101   4.391   1.626   1.226 -1.6089 -0.7107 -0.5508
  122MOL   H14039102   4.505   1.908   0.908 -0.5496  1.2464  0.6960
  122MOL   H14139103   4.436   1.787   0.809 -0.2873  1.7665 -1.7311
  122MOL   H14239104   4.334   1.907   0.865 -0.0412  0.1421  1.9722
  122MOL   H14339105   4.501   1.611   0.922 -0.5946 -1.8862 -0.3139
  122MOL   H14439106   4.318   1.576   0.908  1.5535 -3.3317 -0.6978
  122MOL   H14539107   4.399   1.542   1.052  2.7360  1.0064  0.9904
  122MOL   C14639108   4.183   1.650   1.266  0.9293 -0.3373 -0.2992
  122MOL   C14739109   4.054   1.736   1.293 -0.4089 -0.6091  0.3288
  122MOL   C14839110   4.049   1.803   1.432  0.1425 -0.3534 -0.4080
  122MOL   O14939111   4.078   1.740   1.532  0.5315  0.2862 -0.1242
  122MOL   N15039112   4.019   1.933   1.449 -0.2108 -0.5107 -0.2401
  122MOL   C15139113   3.951   2.015   1.353 -0.1108  0.0965 -0.1460
  122MOL   C15239114   4.038   1.991   1.576 -0.4726  0.1274 -0.7506
  122MOL   H15339115   4.177   1.601   1.169  0.8824 -0.6871 -0.1211
  122MOL   H15439116   4.187   1.574   1.344 -0.4171 -0.0103  0.0922
  122MOL   H15539117   4.060   1.823   1.227 -0.0456 -1.3205 -0.5819
  122MOL   H15639118   3.908   2.104   1.399  2.4959  1.1146  0.4022
  122MOL   H15739119   4.020   2.045   1.274 -1.1793  0.3697 -0.9776
  122MOL   H15839120   3.873   1.955   1.307  0.9886 -1.1644 -0.3959
  122MOL   H15939121   4.050   2.100   1.571 -0.8364  0.2859  1.4360
  122MOL   H16039122   4.131   1.960   1.625 -1.2341  1.2630  1.5163
  122MOL   H16139123   3.956   1.970   1.644 -0.3609  1.3368 -0.2206
  122MOL   C16239124   3.920   1.659   1.266 -0.0469  0.0131  0.5502
  122MOL   C16339125   3.894   1.649   1.111  0.7937 -0.4094 -0.1041
  122MOL   C16439126   3.864   1.784   1.047  0.3735  0.8731  0.1713
  122MOL   O16539127   3.768   1.847   1.091  0.5318  0.0660  0.1950
  122MOL   N16639128   3.952   1.839   0.952 -0.0452  0.6771 -0.2382
  122MOL   C16739129   3.956   1.977   0.929 -0.0068 -0.1330  0.1500
  122MOL   C16839130   4.011   1.760   0.845 -0.1431  0.1057 -0.4763
  122MOL   H16939131   3.932   1.558   1.306 -0.2278  0.2788  1.2736
  122MOL   H17039132   3.832   1.707   1.309 -1.3732 -2.0162  0.1526
  122MOL   H17139133   3.977   1.600   1.059  1.7096 -0.0129  0.9556
  122MOL   H17239134   4.043   2.018   0.878  0.7601  0.1848  1.6969
  122MOL   H17339135   3.864   2.022   0.890  0.2147 -1.8332 -2.4149
  122MOL   H17439136   3.959   2.029   1.025  1.4433 -1.0012  0.5824
  122MOL   H17539137   4.072   1.675   0.876 -1.3688 -0.6263 -0.0339
  122MOL   H17639138   4.084   1.810   0.781  0.8470 -1.1137 -0.3204
  122MOL   H17739139   3.945   1.708   0.775  0.0954 -1.0368  0.1435
  122MOL   C17839140   3.771   1.559   1.084 -0.3854 -0.2655  0.6068
  122MOL   C17939141   3.792   1.406   1.115  0.2737 -0.2058  0.6023
  122MOL   C18039142   3.899   1.342   1.017 -0.0555  0.3244 -0.8273
  122MOL   O18139143   3.880   1.344   0.899  0.3820 -0.6898  0.3998
  122MOL   N18239144   4.017   1.293   1.063  0.4704  0.6720 -0.8040
  122MOL   C18339145   4.114   1.257   0.965 -0.4313 -0.0553 -0.2024
  122MOL   C18439146   4.042   1.245   1.201  0.5736 -0.0547  0.2444
  122MOL   H18539147   3.687   1.591   1.146 -1.1625  0.0015 -0.5642
  122MOL   H18639148   3.746   1.561   0.978  0.8673 -1.0093  0.2937
  122MOL   H18739149   3.831   1.397   1.216  0.8831 -0.7128  0.3252
  122MOL   H18839150   4.172   1.347   0.943  0.8283 -1.3974 -2.5218
  122MOL   H18939151   4.176   1.177   1.006  0.7138 -0.1265 -1.9906
  122MOL   H19039152   4.086   1.212   0.870 -0.1129 -0.7993  0.0501
  122MOL   H19139153   4.056   1.331   1.266 -0.9634  1.7406 -1.7178
  122MOL   H19239154   4.131   1.185   1.218  0.0295 -0.8041  0.4961
  122MOL   H19339155   3.957   1.188   1.238  1.0417 -1.0064 -0.1413
  122MOL   C19439156   3.655   1.329   1.104 -0.0997 -0.1312  0.7541
  122MOL   C19539157   3.573   1.301   1.234 -0.3714 -0.8953  0.6351
  122MOL   C19639158   3.630   1.195   1.326 -0.3817 -0.1576  0.9652
  122MOL   O19739159   3.632   1.082   1.276 -0.3524  0.1037 -0.3022
  122MOL   N19839160   3.665   1.223   1.453  0.3620  0.3614  0.0066
  122MOL   C19939161   3.649   1.347   1.522 -0.1012 -0.8133  0.0992
  122MOL   C20039162   3.719   1.118   1.545 -0.2074  0.4912  0.5790
  122MOL   H20139163   3.600   1.396   1.038  0.1273 -0.7265 -0.0493
  122MOL   H20239164   3.679   1.235   1.054  0.3646  0.3335  0.1069
  122MOL   H20339165   3.578   1.396   1.287  1.1282 -0.1337 -0.8234
  122MOL   H20439166   3.637   1.332   1.630 -0.5963  2.1836  0.5104
  122MOL   H20539167   3.729   1.419   1.506 -0.0123 -0.5886  1.4384
  122MOL   H20639168   3.556   1.400   1.498  0.7504  0.6056 -0.1414
  122MOL   H20739169   3.648   1.088   1.622 -0.2016 -1.8362 -0.2979
  122MOL   H20839170   3.819   1.140   1.582  0.2863  0.7512 -0.8762
  122MOL   H20939171   3.731   1.023   1.494  1.9381  1.3625 -0.6130
  122MOL   C21039172   3.428   1.258   1.189 -0.4275 -0.2685  0.9326
  122MOL   C21139173   3.319   1.350   1.251 -0.7768  0.3571  0.3039
  122MOL   C21239174   3.185   1.275   1.239  0.5231  0.6283 -0.4508
  122MOL   O21339175   3.123   1.268   1.135  0.1387 -0.0901  0.4330
  122MOL   N21439176   3.145   1.208   1.350 -0.1598  0.0252  0.4070
  122MOL   C21539177   3.236   1.166   1.460  0.1162  0.3192  0.4642
  122MOL   C21639178   3.019   1.129   1.361  0.3938 -0.0329 -0.4430
  122MOL   H21739179   3.422   1.245   1.081  2.1181  1.2633  0.5545
  122MOL   H21839180   3.402   1.162   1.233  0.0650  0.7383  3.4693
  122MOL   H21939181   3.349   1.365   1.355  0.8800 -1.5031  0.1385
  122MOL   H22039182   3.334   1.136   1.423  0.7737 -1.4277  3.4803
  122MOL   H22139183   3.260   1.253   1.521  1.6314  1.1787 -1.2965
  122MOL   H22239184   3.182   1.104   1.531  1.0525 -0.7060  0.2876
  122MOL   H22339185   3.040   1.023   1.381 -0.1547 -0.1646 -0.5440
  122MOL   H22439186   2.960   1.145   1.271  0.4318  1.6008 -0.1880
  122MOL   H22539187   2.959   1.149   1.451  0.0150 -0.1924 -0.6566
  122MOL   C22639188   3.309   1.487   1.176  0.0125  0.6910 -0.3409
  122MOL   C22739189   3.273   1.612   1.264 -0.7576 -0.4723 -0.6140
  122MOL   C22839190   3.377   1.652   1.373 -0.1627  0.5869 -0.2139
  122MOL   O22939191   3.384   1.590   1.482  0.1678 -0.2262 -0.4121
  122MOL   N23039192   3.455   1.757   1.348 -0.1828  0.0779  0.0892
  122MOL   C23139193   3.562   1.784   1.450 -0.5463  0.1906 -0.0800
  122MOL   C23239194   3.478   1.823   1.221 -0.0234  0.4615 -0.4774
  122MOL   H23339195   3.413   1.508   1.147  0.0039  2.6990  0.9483
  122MOL   H23439196   3.254   1.490   1.082  1.4421  0.5499 -1.2088
  122MOL   H23539197   3.259   1.697   1.197 -0.0077  0.5989  0.5655
  122MOL   H23639198   3.621   1.871   1.421 -2.0304  0.2215 -3.3357
  122MOL   H23739199   3.524   1.792   1.552 -1.1857  2.8327 -0.4873
  122MOL   H23839200   3.637   1.705   1.449 -0.2638  0.4505  0.4910
  122MOL   H23939201   3.504   1.757   1.139 -0.8862  0.1769 -0.5184
  122MOL   H24039202   3.561   1.894   1.228  1.0202 -0.7734 -0.1437
  122MOL   H24139203   3.393   1.883   1.190  1.0002  0.7198 -2.9255
  122MOL   C24239204   3.126   1.598   1.323  0.6381  0.3014  0.6755
  122MOL   C24339205   3.010   1.598   1.216 -0.1878 -0.0107  0.4213
  122MOL   C24439206   2.994   1.737   1.155 -0.1541 -0.2419 -0.0841
  122MOL   O24539207   2.985   1.831   1.227  0.0666 -0.2243 -0.4648
  122MOL   N24639208   3.012   1.758   1.026 -0.0712  0.1792 -0.1672
  122MOL   C24739209   3.044   1.649   0.928  0.0727  0.7441  0.5755
  122MOL   C24839210   3.033   1.888   0.969 -0.5906 -0.1991  0.0247
  122MOL   H24939211   3.122   1.503   1.376 -1.0170  2.2015  4.1047
  122MOL   H25039212   3.104   1.677   1.394  0.3966  0.8978 -0.0474
  122MOL   H25139213   3.029   1.523   1.140 -0.8941  2.0075 -1.7750
  122MOL   H25239214   3.025   1.683   0.826 -0.5796  2.3875  1.2324
  122MOL   H25339215   3.150   1.631   0.947  0.0980  1.7180  1.4309
  122MOL   H25439216   2.988   1.555   0.932  0.2811  0.6236  0.6679
  122MOL   H25539217   2.969   1.967   1.007 -0.1935  0.4008 -0.5332
  122MOL   H25639218   3.014   1.894   0.862  3.0855 -0.5317 -0.7063
  122MOL   H25739219   3.136   1.921   0.983 -0.2595 -0.5799 -1.3566
  122MOL   C25839220   2.877   1.565   1.285  0.7609  0.0273  0.0184
  122MOL   C25939221   2.747   1.532   1.192 -0.0044  0.5885 -0.2366
  122MOL   C26039222   2.618   1.555   1.275 -0.3485 -0.1888  0.4053
  122MOL   O26139223   2.594   1.488   1.378 -0.5130  0.1681 -0.4376
  122MOL   N26239224   2.531   1.651   1.236  0.2978 -0.0522 -1.0441
  122MOL   C26339225   2.383   1.627   1.256  0.1892 -0.0150 -0.0937
  122MOL   C26439226   2.564   1.770   1.167  0.1947 -0.4544  0.3223
  122MOL   H26539227   2.905   1.474   1.337 -0.0334  0.5822  1.4507
  122MOL   H26639228   2.854   1.644   1.356 -1.4278  1.0295 -1.7131
  122MOL   H26739229   2.753   1.604   1.111  1.2598  1.3694  0.5388
  122MOL   H26839230   2.357   1.601   1.358 -0.4066 -0.6451 -0.4052
  122MOL   H26939231   2.314   1.702   1.216  0.2224  0.5044  0.8078
  122MOL   H27039232   2.363   1.544   1.189  1.8529 -0.0831 -0.5154
  122MOL   H27139233   2.639   1.823   1.225 -1.2948  0.4999  1.3739
  122MOL   H27239234   2.477   1.834   1.160 -0.2735 -0.9626  1.3881
  122MOL   H27339235   2.596   1.747   1.065 -0.3481  4.2040 -0.9922
  122MOL   C27439236   2.757   1.384   1.143  0.2281 -0.0707 -0.3429
  122MOL   C27539237   2.685   1.340   1.008  0.0560 -0.2153 -0.2360
  122MOL   C27639238   2.766   1.389   0.884  0.3175 -1.0050  0.7947
  122MOL   O27739239   2.761   1.511   0.868 -0.0419  0.4046  0.0204
  122MOL   N27839240   2.830   1.297   0.805  0.1583 -0.8009 -0.4927
  122MOL   C27939241   2.857   1.162   0.846 -0.3275 -0.4689 -0.3672
  122MOL   C28039242   2.853   1.329   0.670  0.4274  0.7019  0.3086
  122MOL   H28139243   2.864   1.367   1.130  0.8563  1.6638  2.2165
  122MOL   H28239244   2.732   1.320   1.228 -1.7460 -1.1399 -1.6644
  122MOL   H28339245   2.689   1.231   1.010 -0.8296 -0.2488  0.0544
  122MOL   H28439246   2.784   1.093   0.804 -0.5002 -1.3663  1.3884
  122MOL   H28539247   2.951   1.127   0.802  0.8547  0.6150  1.2358
  122MOL   H28639248   2.872   1.157   0.954 -0.9430  0.4531 -0.2378
  122MOL   H28739249   2.860   1.434   0.642 -0.0758  0.6829  0.1177
  122MOL   H28839250   2.775   1.280   0.612  1.3485 -0.4220 -0.0162
  122MOL   H28939251   2.937   1.275   0.625 -1.6217 -2.3125 -0.0448
  122MOL   C29039252   2.536   1.383   1.007 -0.2712  0.1060  0.2239
  122MOL   C29139253   2.456   1.305   0.896  0.2805  0.2089  0.6422
  122MOL   C29239254   2.361   1.395   0.821 -0.6050 -0.9746 -0.0117
  122MOL   O29339255   2.252   1.422   0.881 -0.6847  0.1743 -0.6619
  122MOL   N29439256   2.373   1.439   0.696  0.2481 -0.1869  0.1186
  122MOL   C29539257   2.275   1.517   0.630 -0.0520  0.5166  0.2241
  122MOL   C29639258   2.493   1.421   0.613  0.0386 -0.4303  0.6904
  122MOL   H29739259   2.496   1.362   1.106 -0.1772  0.0135  0.2427
  122MOL   H29839260   2.532   1.490   0.986 -3.3067 -0.4324 -2.3440
  122MOL   H29939261   2.526   1.268   0.820 -0.1132 -0.4104  0.5792
  122MOL   H30039262   2.271   1.484   0.526 -0.5583  0.5953  0.2191
  122MOL   H30139263   2.180   1.510   0.682 -0.0163 -3.6126 -0.0985
  122MOL   H30239264   2.307   1.621   0.620 -1.7103  0.8754 -1.7632
  122MOL   H30339265   2.581   1.435   0.676  1.7176 -0.4398 -1.5783
  122MOL   H30439266   2.497   1.479   0.521 -0.2849  0.1121  1.0158
  122MOL   H30539267   2.496   1.319   0.573 -0.1967  0.3580 -1.4018
  122MOL   C30639268   2.384   1.181   0.948 -0.1091 -0.1091  1.1591
  122MOL   C30739269   2.312   1.094   0.848  0.1343 -0.2989  0.8371
  122MOL   C30839270   2.236   0.966   0.907  0.3211  0.3954 -0.3737
  122MOL   O30939271   2.283   0.854   0.888 -0.2445  0.1678 -0.1386
  122MOL   N31039272   2.120   0.981   0.977 -0.6517 -0.2621  0.0703
  122MOL   C31139273   2.062   0.868   1.050  0.3534  0.3512  0.1001
  122MOL   C31239274   2.046   1.107   0.980  0.3533 -0.0919  0.0087
  122MOL   H31339275   2.457   1.117   0.998 -0.7085 -0.0866  2.1001
  122MOL   H31439276   2.324   1.211   1.034  2.0456  2.8247  1.6814
  122MOL   H31539277   2.231   1.147   0.798  0.8101  1.1218  1.2173
  122MOL   H31639278   2.139   0.801   1.089 -0.7314  0.1188  1.9110
  122MOL   H31739279   1.993   0.900   1.128  0.9446 -0.2337  0.8739
  122MOL   H31839280   1.998   0.827   0.971 -0.8894 -0.9310  1.7397
  122MOL   H31939281   2.105   1.182   1.032 -0.2805  1.1505 -1.0210
  122MOL   H32039282   1.951   1.098   1.033 -0.6687  0.0837 -1.7448
  122MOL   H32139283   2.021   1.151   0.883 -0.8403  0.3593  0.5076
  122MOL   H32239284   2.361   1.056   0.759 -1.3001  0.9306 -0.5069
  123MOL     C139285   3.489   6.096   6.227  0.0696 -0.2995 -0.2063
  123MOL     C239286   3.494   5.941   6.251 -0.4235 -0.1520 -0.2053
  123MOL     C339287   3.612   5.920   6.345 -0.1579 -0.2291 -0.2337
  123MOL     O439288   3.726   5.949   6.314 -0.1236 -0.2641  0.3069
  123MOL     N539289   3.592   5.865   6.467  0.3262  0.0952 -0.4448
  123MOL     C639290   3.707   5.823   6.545 -0.4315  0.4927  0.5984
  123MOL     C739291   3.459   5.830   6.528 -0.4964  0.3052 -0.1661
  123MOL     H839292   3.590   6.137   6.217 -0.2747  0.1719 -1.8501
  123MOL     H939293   3.429   6.151   6.300 -0.8153  0.7289 -1.6817
  123MOL    H1039294   3.403   5.902   6.297 -1.0831 -1.7378 -2.7474
  123MOL    H1139295   3.694   5.731   6.601 -0.7652  1.0005  1.3526
  123MOL    H1239296   3.797   5.808   6.485  0.1595  0.9315  1.3656
  123MOL    H1339297   3.721   5.907   6.612  1.7078 -0.0132  0.8437
  123MOL    H1439298   3.466   5.779   6.624 -0.6177 -0.3474 -0.5062
  123MOL    H1539299   3.411   5.761   6.459 -1.8461  0.0049  1.0352
  123MOL    H1639300   3.396   5.919   6.542  0.5597  0.8824  0.9829
  123MOL    H1739301   3.433   6.115   6.135 -0.5072  0.3634  0.2703
  123MOL    C1839302   3.526   5.867   6.118  0.0255 -0.3344 -0.0406
  123MOL    C1939303   3.411   5.834   6.015  0.1793  0.5958 -0.7337
  123MOL    C2039304   3.315   5.745   6.089 -0.4973  0.0586 -0.1406
  123MOL    O2139305   3.354   5.632   6.126 -0.7588 -0.0180  0.9525
  123MOL    N2239306   3.187   5.781   6.107 -0.4217  0.2880  0.1252
  123MOL    C2339307   3.130   5.918   6.089 -0.2291 -0.3259 -0.5619
  123MOL    C2439308   3.076   5.685   6.129  0.4131 -0.2079  0.2358
  123MOL    H2539309   3.598   5.928   6.064 -0.8615 -0.0635 -0.9279
  123MOL    H2639310   3.577   5.775   6.145 -0.4457 -0.3709  0.7458
  123MOL    H2739311   3.372   5.932   5.990 -1.0649  0.1841 -0.4397
  123MOL    H2839312   3.027   5.924   6.124  0.2656  1.3190  0.6866
  123MOL    H2939313   3.190   5.981   6.155 -1.8062 -0.8678  1.4152
  123MOL    H3039314   3.138   5.959   5.988 -0.7954  2.2490  0.4210
  123MOL    H3139315   3.056   5.635   6.034  1.0743  0.1767 -0.1131
  123MOL    H3239316   2.986   5.726   6.175  1.4174 -0.3116  2.3773
  123MOL    H3339317   3.096   5.591   6.182 -1.9102 -0.4011  0.8236
  123MOL    C3439318   3.466   5.771   5.881  0.1070 -0.0502 -0.7305
  123MOL    C3539319   3.373   5.764   5.763  0.5230 -0.8743 -0.0045
  123MOL    C3639320   3.316   5.901   5.722  0.2766  0.0298  0.2259
  123MOL    O3739321   3.201   5.929   5.760 -0.4028 -0.3645  0.2629
  123MOL    N3839322   3.390   5.987   5.646 -0.3010 -0.4897 -0.0211
  123MOL    C3939323   3.516   5.952   5.579 -0.0993 -0.0669 -0.2178
  123MOL    C4039324   3.339   6.118   5.604  0.0026  0.1959  0.4302
  123MOL    H4139325   3.570   5.795   5.859 -0.2516 -0.2938 -2.8583
  123MOL    H4239326   3.488   5.664   5.876  1.5390  0.0581  2.5761
  123MOL    H4339327   3.424   5.725   5.674  0.1874 -0.9257 -0.1759
  123MOL    H4439328   3.587   5.916   5.653 -0.5008 -1.6455 -0.5945
  123MOL    H4539329   3.500   5.873   5.506 -0.5998 -0.7186  0.5939
  123MOL    H4639330   3.562   6.039   5.532  0.9330 -0.6448 -0.2889
  123MOL    H4739331   3.230   6.113   5.597  0.0945 -0.5370 -0.4525
  123MOL    H4839332   3.367   6.155   5.505 -2.9845 -0.1098 -0.5699
  123MOL    H4939333   3.349   6.195   5.681  0.7692  0.5801 -0.0487
  123MOL    C5039334   3.258   5.656   5.769 -0.3306 -0.0208  0.1106
  123MOL    C5139335   3.288   5.507   5.758  0.0485  0.0356  0.1545
  123MOL    C5239336   3.340   5.475   5.612  0.1231 -0.2508 -0.2371
  123MOL    O5339337   3.267   5.466   5.514 -0.5532  0.4185 -0.1485
  123MOL    N5439338   3.473   5.467   5.593  0.3386 -0.5201 -0.6408
  123MOL    C5539339   3.528   5.499   5.461  0.5343  0.4650 -0.9751
  123MOL    C5639340   3.575   5.440   5.688 -0.0351 -0.2418 -0.2186
  123MOL    H5739341   3.200   5.673   5.860  1.1600  1.6095  0.7695
  123MOL    H5839342   3.185   5.672   5.689 -1.0146 -0.6091  0.6071
  123MOL    H5939343   3.366   5.500   5.833 -0.8749  0.8288  1.2210
  123MOL    H6039344   3.535   5.607   5.446  1.2542  0.3757 -1.3175
  123MOL    H6139345   3.631   5.464   5.453  0.3629  0.2997 -2.6656
  123MOL    H6239346   3.474   5.447   5.381 -0.4916 -1.0682  0.6758
  123MOL    H6339347   3.674   5.425   5.643 -0.2294  0.4901 -0.9089
  123MOL    H6439348   3.565   5.345   5.740 -2.8599 -0.0363 -0.3412
  123MOL    H6539349   3.594   5.515   5.765  2.2912 -1.8834  0.8397
  123MOL    C6639350   3.171   5.407   5.802  0.6376  0.0510  0.0787
  123MOL    C6739351   3.176   5.338   5.942  0.2446  0.3226  0.3768
  123MOL    C6839352   3.316   5.268   5.954  0.3526  0.0352 -0.1819
  123MOL    O6939353   3.361   5.218   5.853 -0.3290 -0.3473  0.5493
  123MOL    N7039354   3.385   5.284   6.069  0.4952  0.9448 -0.4532
  123MOL    C7139355   3.521   5.232   6.065 -0.0366  0.1732  0.1799
  123MOL    C7239356   3.328   5.306   6.199  0.1347  0.4776 -0.2830
  123MOL    H7339357   3.093   5.482   5.791  2.2598  2.3073  3.0005
  123MOL    H7439358   3.157   5.336   5.721 -1.0633 -2.6316  2.6144
  123MOL    H7539359   3.164   5.412   6.021  1.0983  1.2849 -0.3732
  123MOL    H7639360   3.575   5.251   6.157  3.4033  2.6843 -2.2086
  123MOL    H7739361   3.515   5.129   6.029 -0.2501  0.4666 -0.6471
  123MOL    H7839362   3.580   5.285   5.990  1.7499 -0.6317  0.9806
  123MOL    H7939363   3.376   5.394   6.241 -1.1452  1.0299  0.0420
  123MOL    H8039364   3.352   5.221   6.263  0.5985  0.5645 -0.3399
  123MOL    H8139365   3.220   5.317   6.194 -0.0250 -0.8380  0.1962
  123MOL    C8239366   3.057   5.246   5.974  0.7292  0.1742  0.2171
  123MOL    C8339367   2.995   5.157   5.861  0.0834  0.3015  0.6629
  123MOL    C8439368   2.891   5.233   5.769  0.8204 -0.5070 -0.3283
  123MOL    O8539369   2.800   5.306   5.824 -0.5620  0.3139  0.4669
  123MOL    N8639370   2.896   5.216   5.632  0.7441  0.0960 -0.2284
  123MOL    C8739371   2.814   5.292   5.538 -0.0817  0.6021  0.4855
  123MOL    C8839372   2.971   5.111   5.565 -0.5375 -0.2234 -0.3324
  123MOL    H8939373   3.084   5.170   6.048 -0.3226 -2.9185 -2.4669
  123MOL    H9039374   2.975   5.307   6.012 -2.8407 -3.3728 -1.4448
  123MOL    H9139375   3.076   5.113   5.802 -0.9593 -2.6147  1.3317
  123MOL    H9239376   2.722   5.235   5.522  0.5032  0.1466 -1.4972
  123MOL    H9339377   2.766   5.387   5.562 -2.1482 -0.2701 -0.0394
  123MOL    H9439378   2.870   5.308   5.445  0.0531 -1.9908  0.0752
  123MOL    H9539379   3.079   5.117   5.573 -0.3233 -0.9844 -2.3159
  123MOL    H9639380   2.949   5.108   5.458 -0.0660  3.7503 -0.6234
  123MOL    H9739381   2.942   5.010   5.596  0.9306 -1.3023 -2.3518
  123MOL    C9839382   2.905   5.036   5.916 -0.0229 -0.2090  0.2347
  123MOL    C9939383   2.968   4.916   5.973 -0.1682  0.4312 -0.0580
  123MOL   C10039384   3.056   4.845   5.867  0.2457  0.1087  0.4133
  123MOL   O10139385   3.010   4.831   5.753 -0.1035  0.6878  0.4079
  123MOL   N10239386   3.172   4.786   5.897 -0.5026 -0.1839  0.1304
  123MOL   C10339387   3.231   4.686   5.804  0.0564 -0.9336 -0.2902
  123MOL   C10439388   3.226   4.788   6.036 -0.0846  0.6489 -0.2029
  123MOL   H10539389   2.837   5.071   5.994  0.4561  0.2711  0.4385
  123MOL   H10639390   2.840   4.997   5.838  1.4455 -0.3985 -0.9090
  123MOL   H10739391   3.031   4.955   6.053 -1.0504  0.0129  0.8494
  123MOL   H10839392   3.337   4.679   5.829  0.0895  0.3338 -0.0300
  123MOL   H10939393   3.180   4.592   5.826 -0.3092 -1.0936 -1.7531
  123MOL   H11039394   3.220   4.718   5.700 -2.8543  0.2548  0.3423
  123MOL   H11139395   3.270   4.888   6.045 -0.3488  0.8024 -0.5959
  123MOL   H11239396   3.308   4.718   6.051 -0.9693  0.0279  1.8424
  123MOL   H11339397   3.155   4.768   6.116 -0.3950 -0.0649 -0.6552
  123MOL   C11439398   2.884   4.809   6.048 -0.8809 -0.0327 -0.3414
  123MOL   C11539399   2.769   4.733   5.971  0.3659 -0.4735  0.5097
  123MOL   C11639400   2.662   4.828   5.910  0.3516 -0.0972 -0.8150
  123MOL   O11739401   2.605   4.906   5.985  0.0344  0.1647 -0.1345
  123MOL   N11839402   2.637   4.834   5.773 -0.5166 -0.0114  0.3432
  123MOL   C11939403   2.690   4.737   5.681  0.1971  0.8390  0.9171
  123MOL   C12039404   2.556   4.940   5.714 -0.8125  0.2483  0.1039
  123MOL   H12139405   2.942   4.722   6.078  0.9773  1.7718  1.4556
  123MOL   H12239406   2.857   4.844   6.148 -1.3480 -0.2692 -0.3842
  123MOL   H12339407   2.819   4.685   5.888 -0.2855 -0.9407  0.3848
  123MOL   H12439408   2.637   4.736   5.586  0.8833  0.3739  0.5329
  123MOL   H12539409   2.791   4.766   5.652  0.0978  2.2197  1.8552
  123MOL   H12639410   2.686   4.632   5.710  0.1702  0.6622  0.2786
  123MOL   H12739411   2.526   5.021   5.781 -1.6060 -0.2945  0.4100
  123MOL   H12839412   2.469   4.898   5.664  0.3759 -0.4513 -1.4262
  123MOL   H12939413   2.616   4.990   5.638  2.5528  1.0486  3.1220
  123MOL   C13039414   2.721   4.604   6.038  0.8915 -0.2792  0.4744
  123MOL   C13139415   2.656   4.599   6.179  0.3047 -0.2947  0.3346
  123MOL   C13239416   2.761   4.636   6.284 -0.8460  0.0258  0.8302
  123MOL   O13339417   2.859   4.563   6.299  0.0159  0.0375 -0.3284
  123MOL   N13439418   2.744   4.748   6.362  0.7127 -0.5289  0.2136
  123MOL   C13539419   2.648   4.856   6.342  0.0380  0.2072 -0.1187
  123MOL   C13639420   2.842   4.781   6.457 -0.5897 -0.4612  0.3603
  123MOL   H13739421   2.653   4.559   5.965 -0.2735 -1.6831  2.3980
  123MOL   H13839422   2.813   4.547   6.048  2.2008  2.2118  3.6605
  123MOL   H13939423   2.568   4.663   6.169 -1.8326 -3.1394  0.3338
  123MOL   H14039424   2.667   4.913   6.251  0.2369  2.8130  1.5081
  123MOL   H14139425   2.555   4.801   6.357 -0.1854  1.2714  2.6588
  123MOL   H14239426   2.649   4.924   6.427 -1.4581 -1.0031  0.8951
  123MOL   H14339427   2.929   4.825   6.408  0.7242  1.4315  4.1799
  123MOL   H14439428   2.882   4.696   6.513  2.4432 -1.1591 -2.6963
  123MOL   H14539429   2.808   4.853   6.531  1.3786  0.3455  0.5107
  123MOL   C14639430   2.601   4.468   6.230 -0.1351 -0.1528  0.0732
  123MOL   C14739431   2.491   4.394   6.139 -0.6716 -0.2441  0.3259
  123MOL   C14839432   2.362   4.485   6.121  0.5853 -0.4611  0.1034
  123MOL   O14939433   2.318   4.540   6.222  0.0739  0.0674 -0.3934
  123MOL   N15039434   2.302   4.501   5.997  0.2563  0.2483 -0.5358
  123MOL   C15139435   2.367   4.450   5.877 -0.4504  0.6114  0.7963
  123MOL   C15239436   2.174   4.576   5.972  0.0582  0.6832 -0.3017
  123MOL   H15339437   2.682   4.395   6.234 -0.4761 -0.5135  0.4236
  123MOL   H15439438   2.566   4.484   6.332 -0.3733  2.9400 -0.4589
  123MOL   H15539439   2.544   4.379   6.045  0.9903  1.0434  1.0289
  123MOL   H15639440   2.391   4.344   5.881  0.3047  0.7985  1.4445
  123MOL   H15739441   2.307   4.479   5.791  0.0039 -1.0617 -0.1068
  123MOL   H15839442   2.459   4.509   5.877  0.6239 -1.0513 -0.4736
  123MOL   H15939443   2.108   4.549   6.054 -0.0288 -1.4128 -1.0431
  123MOL   H16039444   2.116   4.536   5.889 -0.1859  1.7800 -0.6641
  123MOL   H16139445   2.179   4.682   5.949 -0.1804  0.5066 -1.2013
  123MOL   C16239446   2.456   4.244   6.192 -0.2583 -0.1042 -0.6187
  123MOL   C16339447   2.395   4.233   6.338  0.4024 -0.0494 -0.5356
  123MOL   C16439448   2.466   4.117   6.419 -0.6373 -0.5597  0.3786
  123MOL   O16539449   2.480   4.010   6.355 -0.6876 -0.2838  0.1168
  123MOL   N16639450   2.515   4.124   6.542 -0.0131 -0.9749  0.3685
  123MOL   C16739451   2.534   4.254   6.606 -0.5007  0.4115  0.3897
  123MOL   C16839452   2.539   4.003   6.627  0.2309  0.4185  0.3204
  123MOL   H16939453   2.392   4.199   6.116 -2.3629  0.0022  1.0744
  123MOL   H17039454   2.554   4.197   6.189  0.9060  2.1980 -0.2587
  123MOL   H17139455   2.393   4.323   6.400 -1.3526 -0.6611  0.3232
  123MOL   H17239456   2.436   4.285   6.642 -1.1731 -0.9992 -0.1500
  123MOL   H17339457   2.593   4.259   6.697 -1.3237 -0.4581  0.9786
  123MOL   H17439458   2.579   4.324   6.535 -0.4120  0.1566  0.1919
  123MOL   H17539459   2.644   3.976   6.609  0.1833 -0.5038  1.3938
  123MOL   H17639460   2.461   3.929   6.612 -1.8250  2.3653  1.2282
  123MOL   H17739461   2.536   4.035   6.731 -1.6643 -1.1484  0.7680
  123MOL   C17839462   2.239   4.216   6.331  1.0890  0.2977 -0.6036
  123MOL   C17939463   2.159   4.239   6.463  0.1200  0.0718 -0.8638
  123MOL   C18039464   2.174   4.146   6.585  0.2584  0.3302 -0.0405
  123MOL   O18139465   2.175   4.026   6.558 -0.0013  0.8924 -0.0769
  123MOL   N18239466   2.176   4.194   6.717 -0.3203  0.3747  0.2984
  123MOL   C18339467   2.166   4.331   6.753 -0.0965  0.2264 -0.5290
  123MOL   C18439468   2.184   4.100   6.827  0.3199  0.3127 -0.0492
  123MOL   H18539469   2.198   4.280   6.253 -1.6321 -0.5926  0.0523
  123MOL   H18639470   2.225   4.112   6.300 -0.8889  0.3991 -0.1104
  123MOL   H18739471   2.187   4.339   6.497  1.3334 -0.1808 -1.1133
  123MOL   H18839472   2.068   4.355   6.714 -0.3438 -0.0094 -0.0553
  123MOL   H18939473   2.176   4.344   6.861  1.4124 -1.3133 -0.4476
  123MOL   H19039474   2.245   4.392   6.709  0.2803 -0.4051 -0.7394
  123MOL   H19139475   2.248   4.015   6.803 -1.1540 -0.7429 -0.3199
  123MOL   H19239476   2.078   4.077   6.843  0.1970  0.9336  0.0610
  123MOL   H19339477   2.218   4.144   6.921  0.4744  0.3438 -0.1206
  123MOL   C19439478   2.006   4.257   6.437  0.0635  0.1139 -0.2784
  123MOL   C19539479   1.936   4.142   6.370  0.1384 -0.9524 -0.6140
  123MOL   C19639480   1.927   4.154   6.211 -0.1510 -0.2924 -0.6917
  123MOL   O19739481   1.887   4.265   6.164  0.5780  0.0546  0.3043
  123MOL   N19839482   1.948   4.047   6.125  0.0520 -0.2577 -0.1070
  123MOL   C19939483   1.930   4.076   5.981 -0.4014 -0.1881 -0.3301
  123MOL   C20039484   1.996   3.914   6.158 -0.5500  0.0648 -0.0145
  123MOL   H20139485   1.948   4.290   6.524  1.2074  0.5924  0.3221
  123MOL   H20239486   1.991   4.344   6.374 -1.1783  0.0578 -0.0764
  123MOL   H20339487   1.987   4.046   6.380 -0.4820 -1.1707  0.5480
  123MOL   H20439488   2.009   4.150   5.965 -0.4383 -0.2764 -0.9113
  123MOL   H20539489   1.936   3.989   5.916  0.2152  1.4506 -2.5293
  123MOL   H20639490   1.835   4.126   5.962 -1.5443 -1.6985  1.2432
  123MOL   H20739491   1.921   3.869   6.223  2.1352  2.7902  5.2313
  123MOL   H20839492   2.095   3.917   6.203  0.3548  1.0269 -1.9723
  123MOL   H20939493   2.006   3.856   6.067  1.0884  1.2778 -0.6330
  123MOL   C21039494   1.797   4.115   6.415  0.3384  0.8051 -0.4164
  123MOL   C21139495   1.783   4.056   6.557 -0.0606 -0.2502  0.4277
  123MOL   C21239496   1.847   3.911   6.582 -0.6671 -0.4373 -0.2032
  123MOL   O21339497   1.871   3.837   6.489 -0.4218  0.6290  0.4835
  123MOL   N21439498   1.887   3.888   6.710 -0.1337  0.8146  0.2297
  123MOL   C21539499   1.963   3.760   6.728 -0.2349 -0.3575 -0.0049
  123MOL   C21639500   1.839   3.951   6.835 -0.0610  0.6460 -0.1668
  123MOL   H21739501   1.736   4.206   6.407 -0.7166  0.2381  0.9190
  123MOL   H21839502   1.750   4.046   6.346  0.6517  2.3382 -2.1893
  123MOL   H21939503   1.821   4.133   6.625 -0.8028  2.4875 -2.1621
  123MOL   H22039504   2.007   3.767   6.828  0.7794  0.5524 -0.4980
  123MOL   H22139505   1.912   3.666   6.710  0.7824 -0.2863 -3.7806
  123MOL   H22239506   2.046   3.770   6.657  0.2850 -0.9716  0.5135
  123MOL   H22339507   1.734   3.932   6.858 -0.0518 -0.7989 -1.3005
  123MOL   H22439508   1.846   4.058   6.816  0.3955  0.7643  0.6379
  123MOL   H22539509   1.901   3.923   6.921 -0.2932  0.1289 -0.1649
  123MOL   C22639510   1.628   4.047   6.584  0.0399 -0.3505  0.0181
  123MOL   C22739511   1.555   4.177   6.613 -0.5341 -0.3801  0.9979
  123MOL   C22839512   1.597   4.239   6.747 -0.3480 -0.1221  0.1132
  123MOL   O22939513   1.582   4.174   6.850  0.7496 -0.5642 -0.1336
  123MOL   N23039514   1.674   4.358   6.751  0.0983 -0.3422 -0.0815
  123MOL   C23139515   1.693   4.453   6.638 -0.2120  0.0470  0.3725
  123MOL   C23239516   1.738   4.406   6.877 -0.1390  0.2207  0.0353
  123MOL   H23339517   1.584   4.001   6.495 -1.2947 -0.9073  0.9385
  123MOL   H23439518   1.597   3.981   6.666 -0.5403  0.8318  0.7601
  123MOL   H23539519   1.599   4.242   6.538  1.0974 -0.4405  1.8948
  123MOL   H23639520   1.622   4.475   6.558  3.6679  3.0352 -2.5144
  123MOL   H23739521   1.713   4.553   6.677 -1.9475  1.2119 -1.6229
  123MOL   H23839522   1.786   4.425   6.588  0.4358  0.8153  1.1334
  123MOL   H23939523   1.820   4.464   6.836  0.1260 -1.4612 -1.9092
  123MOL   H24039524   1.760   4.323   6.944  1.7077  0.5220 -0.1882
  123MOL   H24139525   1.658   4.458   6.929  0.9837 -1.3955  3.4866
  123MOL   C24239526   1.400   4.153   6.600 -0.3527 -0.2337  0.1303
  123MOL   C24339527   1.299   4.267   6.630 -0.2756  0.4561  0.0764
  123MOL   C24439528   1.159   4.202   6.657  0.0347 -0.6153 -0.6673
  123MOL   O24539529   1.107   4.136   6.567  0.1823 -0.1568  0.3557
  123MOL   N24639530   1.106   4.220   6.781 -0.5151 -0.3731 -0.2612
  123MOL   C24739531   0.988   4.138   6.809 -0.4427 -1.0768 -0.0404
  123MOL   C24839532   1.170   4.279   6.903 -0.3987  0.0932  0.8049
  123MOL   H24939533   1.375   4.096   6.510  0.7680 -1.0968  0.3457
  123MOL   H25039534   1.384   4.069   6.668  1.6765  0.4422  1.5193
  123MOL   H25139535   1.335   4.306   6.726  1.0233 -0.5681  0.0288
  123MOL   H25239536   0.913   4.198   6.860  1.4293  0.1411  1.3842
  123MOL   H25339537   0.926   4.101   6.728 -1.7619  0.4091  0.2632
  123MOL   H25439538   1.012   4.054   6.874 -0.7485 -1.1010  0.0414
  123MOL   H25539539   1.176   4.387   6.891 -1.6876 -0.0826 -1.7972
  123MOL   H25639540   1.272   4.243   6.916 -0.5206  0.3124  2.4763
  123MOL   H25739541   1.119   4.260   6.998 -1.2804  0.1974  0.3565
  123MOL   C25839542   1.295   4.386   6.537  0.0137 -1.0659 -0.1982
  123MOL   C25939543   1.278   4.361   6.382  0.4804 -0.0870 -0.3362
  123MOL   C26039544   1.416   4.344   6.314  0.1269  0.4096 -0.1442
  123MOL   O26139545   1.506   4.428   6.338 -0.2349  0.9472  0.1834
  123MOL   N26239546   1.445   4.235   6.234  0.3238 -0.4639 -0.1098
  123MOL   C26339547   1.349   4.126   6.208 -0.0612 -0.2495 -0.2316
  123MOL   C26439548   1.569   4.226   6.152  0.5577  0.1620  0.3320
  123MOL   H26539549   1.213   4.451   6.568  3.2203  2.8598  0.5023
  123MOL   H26639550   1.381   4.451   6.551 -0.2281 -1.1285  1.6222
  123MOL   H26739551   1.218   4.270   6.373 -1.2548  1.0846 -0.9211
  123MOL   H26839552   1.290   4.088   6.292 -1.7606  0.4373 -1.0879
  123MOL   H26939553   1.290   4.169   6.127  1.7542  1.0480 -0.8848
  123MOL   H27039554   1.391   4.040   6.156  1.6043  0.0174  0.6278
  123MOL   H27139555   1.653   4.285   6.187  1.6632 -1.3640  0.2856
  123MOL   H27239556   1.549   4.249   6.047 -1.9236  0.0841  0.7472
  123MOL   H27339557   1.605   4.125   6.171 -1.1566 -0.6697 -0.7069
  123MOL   C27439558   1.196   4.478   6.322 -0.0926  0.0673  0.3545
  123MOL   C27539559   1.048   4.453   6.284 -0.2424  0.4492 -0.6328
  123MOL   C27639560   1.043   4.358   6.163  0.1356 -0.8541 -0.7356
  123MOL   O27739561   1.103   4.398   6.062  0.0217 -0.1248  0.0247
  123MOL   N27839562   0.980   4.236   6.166  0.3113 -0.3208 -0.3066
  123MOL   C27939563   1.003   4.134   6.065  0.2457 -0.0630  0.9905
  123MOL   C28039564   0.895   4.189   6.279  0.4472 -0.0954 -0.1883
  123MOL   H28139565   1.200   4.563   6.389  1.4895 -2.2191  3.2723
  123MOL   H28239566   1.249   4.511   6.232 -0.5188 -0.0605  0.0513
  123MOL   H28339567   1.000   4.395   6.362  0.8076  0.3789 -0.0351
  123MOL   H28439568   1.076   4.060   6.097 -0.2163 -0.5512  0.9278
  123MOL   H28539569   0.918   4.070   6.042  0.7620  0.3987 -2.5385
  123MOL   H28639570   1.039   4.171   5.969 -0.0088 -1.1590  0.4580
  123MOL   H28739571   0.804   4.249   6.282  0.3418 -0.2912  0.4904
  123MOL   H28839572   0.953   4.204   6.370  0.7480  1.1621 -0.5707
  123MOL   H28939573   0.853   4.090   6.263  0.7557 -0.4961  1.4501
  123MOL   C29039574   0.959   4.586   6.271  0.1278 -0.5872  0.1657
  123MOL   C29139575   0.988   4.682   6.147 -0.7441 -0.3973  0.0884
  123MOL   C29239576   1.102   4.777   6.190  0.3723 -0.1622 -0.2935
  123MOL   O29339577   1.080   4.845   6.292 -0.2115  0.1626  0.2059
  123MOL   N29439578   1.224   4.775   6.127 -0.6710  0.1901 -0.2135
  123MOL   C29539579   1.236   4.721   5.988  0.4882 -0.4096  0.6987
  123MOL   C29639580   1.351   4.819   6.193 -0.2688  0.2137 -0.5403
  123MOL   H29739581   0.854   4.559   6.257  0.1697 -1.6106  1.6643
  123MOL   H29839582   0.956   4.630   6.371 -1.4229 -1.0955  0.3600
  123MOL   H29939583   1.009   4.619   6.061 -3.0483 -0.9236 -0.1082
  123MOL   H30039584   1.243   4.612   5.991  1.4607 -0.3372  1.3717
  123MOL   H30139585   1.150   4.746   5.926 -0.7459 -1.7039  1.8596
  123MOL   H30239586   1.326   4.759   5.939  0.3818 -1.5160 -0.3600
  123MOL   H30339587   1.439   4.790   6.135 -0.5514 -0.2759 -0.7288
  123MOL   H30439588   1.365   4.776   6.292 -1.1740  1.4391  0.1311
  123MOL   H30539589   1.337   4.926   6.210  0.5997  0.3939 -0.9015
  123MOL   C30639590   0.865   4.769   6.104 -0.1352  0.0140 -0.0125
  123MOL   C30739591   0.740   4.702   6.043  0.8281  0.4859  0.1862
  123MOL   C30839592   0.770   4.591   5.952 -0.1381  0.0538 -0.5683
  123MOL   O30939593   0.806   4.485   6.013  0.6826  0.5374 -0.2619
  123MOL   N31039594   0.782   4.618   5.823 -0.3874 -0.0314  0.1512
  123MOL   C31139595   0.854   4.514   5.749 -0.1413 -0.0307 -0.5280
  123MOL   C31239596   0.726   4.730   5.751 -0.1324 -0.2573  0.2354
  123MOL   H31339597   0.823   4.830   6.184 -0.5640  1.2852 -1.1904
  123MOL   H31439598   0.896   4.837   6.025 -0.2933 -0.5524 -0.5666
  123MOL   H31539599   0.682   4.653   6.122 -0.2493 -0.9912 -1.4889
  123MOL   H31639600   0.928   4.463   5.811 -1.6250  1.0988  2.2343
  123MOL   H31739601   0.793   4.434   5.708 -0.5061  0.7430 -1.5205
  123MOL   H31839602   0.916   4.558   5.670  2.0778 -1.0566  0.5820
  123MOL   H31939603   0.718   4.710   5.644  2.0577  0.2855 -0.0398
  123MOL   H32039604   0.805   4.803   5.763  0.4418 -0.7529 -0.5509
  123MOL   H32139605   0.630   4.770   5.784  0.6419  0.2242  2.0119
  123MOL   H32239606   0.666   4.774   6.008  2.5139  1.2732 -1.8251
  124MOL     C139607   0.790   7.665   6.353  0.9970  0.1754  0.7449
  124MOL     C239608   0.707   7.781   6.322  0.0857 -0.9020  0.5509
  124MOL     C339609   0.791   0.056   6.330 -0.4355 -0.4259 -0.7743
  124MOL     O439610   0.837   0.091   6.443  0.1780  0.4592  0.0001
  124MOL     N539611   0.819   0.119   6.218  0.3101  0.5345 -0.3016
  124MOL     C639612   0.766   0.091   6.084  0.4768 -0.0752 -0.2956
  124MOL     C739613   0.917   0.230   6.231  0.1843  0.7130  0.2240
  124MOL     H839614   0.807   7.663   6.461 -3.0652  0.1160  1.4708
  124MOL     H939615   0.891   7.673   6.314  0.7700 -0.6666 -0.0253
  124MOL    H1039616   0.676   7.763   6.219  0.4787  0.6964  0.1328
  124MOL    H1139617   0.662   0.122   6.082  0.7574  0.8997 -0.1773
  124MOL    H1239618   0.816   0.148   6.005  0.3279  0.0893 -0.2722
  124MOL    H1339619   0.771   7.842   6.047 -2.7752 -1.3455  2.5212
  124MOL    H1439620   0.873   0.326   6.259 -1.9099 -0.3775  0.8021
  124MOL    H1539621   0.963   0.241   6.133  1.0473 -1.9806  0.3089
  124MOL    H1639622   0.987   0.213   6.313  0.3789 -0.1275 -0.1091
  124MOL    H1739623   0.748   7.568   6.329  3.8684 -1.5515  2.4011
  124MOL    C1839624   0.587   7.798   6.420  0.0999 -0.2042  0.1770
  124MOL    C1939625   0.475   0.047   6.386  0.3904 -0.3419  0.0615
  124MOL    C2039626   0.376   0.046   6.503 -0.1662  0.0344  0.0603
  124MOL    O2139627   0.278   7.818   6.499 -0.6450 -0.4387  0.8063
  124MOL    N2239628   0.398   0.119   6.615  0.2481  0.3270  0.0110
  124MOL    C2339629   0.317   0.104   6.732  0.8553 -0.4504  0.6375
  124MOL    C2439630   0.485   0.241   6.610  0.3722 -0.0650  0.2128
  124MOL    H2539631   0.548   7.702   6.454 -0.6563  0.2491  0.6265
  124MOL    H2639632   0.629   7.836   6.514 -1.1840  0.2828  0.5699
  124MOL    H2739633   0.532   0.140   6.386 -1.6455  0.9518 -1.0851
  124MOL    H2839634   0.237   0.179   6.723  1.8635  0.5806  0.1174
  124MOL    H2939635   0.261   0.012   6.747 -0.3729  0.3407  1.0515
  124MOL    H3039636   0.357   0.128   6.831 -0.1970  0.8900  0.7601
  124MOL    H3139637   0.428   0.319   6.561  2.6985  1.8590  0.4829
  124MOL    H3239638   0.578   0.237   6.552 -0.3499 -2.4947 -0.8558
  124MOL    H3339639   0.509   0.276   6.710  1.9406 -2.7586  0.8282
  124MOL    C3439640   0.400   0.023   6.246  0.1686  0.5004  0.0533
  124MOL    C3539641   0.288   0.126   6.214 -0.2263  0.3273  0.1131
  124MOL    C3639642   0.237   0.120   6.072 -0.6553 -0.2701  0.4137
  124MOL    O3739643   0.311   0.154   5.980  0.0053  0.1356 -0.6256
  124MOL    N3839644   0.108   0.077   6.052  0.6376  0.8442 -0.1726
  124MOL    C3939645   0.052   0.108   5.920 -0.0722  0.2094 -0.5455
  124MOL    C4039646   0.020   0.000   6.142 -0.4282  0.0953 -0.3276
  124MOL    H4139647   0.471   0.009   6.164  1.7101  2.3076  1.0111
  124MOL    H4239648   0.352   7.779   6.247  1.3317 -0.0961 -0.5228
  124MOL    H4339649   0.208   0.098   6.282  0.9849  0.1433  1.4767
  124MOL    H4439650   0.126   0.105   5.840  0.0479  0.9199 -0.4575
  124MOL    H4539651   7.819   0.045   5.894 -0.0642  0.1408 -0.4099
  124MOL    H4639652   0.019   0.211   5.916  1.9227  0.8125 -2.4398
  124MOL    H4739653   7.805   7.796   6.081 -3.7738  2.0643  1.3987
  124MOL    H4839654   7.809   0.068   6.198 -1.5858  0.1483 -1.6939
  124MOL    H4939655   0.064   7.789   6.219 -0.4175  0.2674 -0.1883
  124MOL    C5039656   0.333   0.274   6.244 -0.0252 -0.0919 -0.2977
  124MOL    C5139657   0.242   0.393   6.213  0.7616  0.0690 -0.0349
  124MOL    C5239658   0.338   0.515   6.197 -0.4010 -0.3091  0.4257
  124MOL    O5339659   0.383   0.550   6.302  0.1467  0.0314 -0.2629
  124MOL    N5439660   0.370   0.572   6.079 -0.0868  0.3907 -0.3346
  124MOL    C5539661   0.481   0.666   6.055  0.3222  0.3826 -0.6484
  124MOL    C5639662   0.288   0.556   5.956 -0.1352  0.0293  1.0099
  124MOL    H5739663   0.353   0.280   6.351 -0.8446  1.5911 -0.2354
  124MOL    H5839664   0.428   0.289   6.194  0.5633 -0.7550  0.6113
  124MOL    H5939665   0.200   0.369   6.115  1.2557 -1.2746  0.0753
  124MOL    H6039666   0.555   0.654   6.135 -0.6542  1.7610  0.4966
  124MOL    H6139667   0.540   0.643   5.967  0.1874 -1.2643 -0.3249
  124MOL    H6239668   0.445   0.769   6.058 -2.1751 -0.4789  0.5158
  124MOL    H6339669   0.211   0.632   5.963 -0.7783 -0.4276 -0.7921
  124MOL    H6439670   0.262   0.452   5.935  1.9958 -0.6535  1.5334
  124MOL    H6539671   0.344   0.581   5.866 -0.0991 -0.6202  0.8477
  124MOL    C6639672   0.130   0.406   6.324 -0.0334 -0.1477 -0.3404
  124MOL    C6739673   0.007   0.493   6.282  0.1167 -0.6211 -0.0409
  124MOL    C6839674   7.791   0.449   6.153  0.4059 -0.5373  0.0310
  124MOL    O6939675   7.836   0.494   6.049 -0.0827 -0.0326 -0.2854
  124MOL    N7039676   7.683   0.369   6.146 -0.3767  0.4500 -1.1876
  124MOL    C7139677   7.621   0.333   6.017 -0.0237  0.9368 -0.1045
  124MOL    C7239678   7.622   0.309   6.261 -0.0346 -0.1591 -0.0874
  124MOL    H7339679   0.093   0.307   6.352 -0.6360 -0.5175 -2.3222
  124MOL    H7439680   0.178   0.427   6.419 -1.2249  0.5936  0.1086
  124MOL    H7539681   7.786   0.477   6.360 -1.5281  1.3158 -1.1675
  124MOL    H7639682   7.663   0.394   5.937  0.6342 -0.1375 -0.5957
  124MOL    H7739683   7.656   0.232   5.991 -0.8936  0.7319 -0.4864
  124MOL    H7839684   7.515   0.351   6.031  0.0837  3.1260 -1.7865
  124MOL    H7939685   7.555   0.227   6.236  0.7044 -1.4084  1.8835
  124MOL    H8039686   7.564   0.387   6.311 -1.2561 -0.5531 -0.8527
  124MOL    H8139687   7.701   0.265   6.322 -0.9522  0.4768  1.5815
  124MOL    C8239688   0.034   0.646   6.280 -0.1189  0.4545  0.1924
  124MOL    C8339689   7.766   0.743   6.258  0.0715 -0.4595 -0.0470
  124MOL    C8439690   7.815   0.881   6.253  0.6122  0.2749 -0.0355
  124MOL    O8539691   7.805   0.954   6.351  0.0438  0.0111  0.3610
  124MOL    N8639692   0.003   0.931   6.132 -0.2431  0.3536 -0.2367
  124MOL    C8739693   0.045   1.071   6.111  0.3271  0.2845 -0.0556
  124MOL    C8839694   0.052   0.850   6.023 -0.3506 -0.3354 -0.7131
  124MOL    H8939695   0.073   0.667   6.380  1.5936 -0.5971 -0.2270
  124MOL    H9039696   0.112   0.660   6.206  1.2362 -0.0550  1.4999
  124MOL    H9139697   7.709   0.716   6.169 -1.0672 -0.9874  0.8424
  124MOL    H9239698   0.153   1.076   6.100  0.3456 -2.1385 -1.3969
  124MOL    H9339699   7.848   1.125   6.030  2.1742  0.9891 -0.7550
  124MOL    H9439700   0.027   1.129   6.201  2.0601 -0.2459  0.6470
  124MOL    H9539701   0.066   0.902   5.929  0.4342 -0.2446 -0.5506
  124MOL    H9639702   7.847   0.761   6.000  0.2578 -0.5247 -1.5502
  124MOL    H9739703   0.154   0.830   6.055 -1.4905 -1.2877  2.5319
  124MOL    C9839704   7.666   0.718   6.378 -0.8182 -0.6169  0.9392
  124MOL    C9939705   7.530   0.795   6.384 -0.4996  0.1886 -0.1652
  124MOL   C10039706   7.465   0.768   6.518  0.0307 -0.0878 -0.2298
  124MOL   O10139707   7.414   0.656   6.538 -0.2698 -0.4027 -0.4770
  124MOL   N10239708   7.466   0.859   6.618 -0.6150 -0.3214 -0.0495
  124MOL   C10339709   7.522   0.991   6.608  0.1920  0.8127 -0.7131
  124MOL   C10439710   7.429   0.821   6.755 -0.2389 -0.4229 -0.5463
  124MOL   H10539711   7.637   0.613   6.383  2.6126 -1.7147 -0.4380
  124MOL   H10639712   7.716   0.742   6.471  0.8147 -0.5324  0.0698
  124MOL   H10739713   7.552   0.902   6.375 -1.0012  0.2844 -0.2557
  124MOL   H10839714   7.631   0.983   6.611  0.1110 -1.3963 -2.3658
  124MOL   H10939715   7.505   1.059   6.524  2.0757  1.7874 -0.3254
  124MOL   H11039716   7.488   1.045   6.697  0.6471 -1.0801  0.6551
  124MOL   H11139717   7.357   0.740   6.762  1.5000 -2.0254 -0.7940
  124MOL   H11239718   7.384   0.905   6.808  1.5336 -0.9012  1.8473
  124MOL   H11339719   7.514   0.781   6.811  1.4699 -1.3249 -3.6709
  124MOL   C11439720   7.440   0.762   6.261 -0.3749 -0.2231 -0.5878
  124MOL   C11539721   7.287   0.820   6.256  0.4348 -0.9702  0.0367
  124MOL   C11639722   7.169   0.713   6.277  0.7670 -0.1485  0.3041
  124MOL   O11739723   7.173   0.613   6.200  0.1244 -0.0047  0.0052
  124MOL   N11839724   7.066   0.738   6.360  0.6471  0.3948  0.0646
  124MOL   C11939725   7.060   0.849   6.459  0.2987 -0.4523  0.6174
  124MOL   C12039726   6.937   0.676   6.342 -0.2827 -0.5115 -0.1659
  124MOL   H12139727   7.493   0.781   6.168 -1.5853  1.0383 -1.0402
  124MOL   H12239728   7.437   0.653   6.256 -1.5372 -0.2599  0.6805
  124MOL   H12339729   7.279   0.887   6.342 -1.6985 -1.3284  0.1606
  124MOL   H12439730   6.969   0.869   6.516  0.5060  0.7677  0.5355
  124MOL   H12539731   7.123   0.832   6.546 -0.2873 -2.1223  0.7299
  124MOL   H12639732   7.100   0.942   6.418  0.0396 -0.5306  0.1830
  124MOL   H12739733   6.886   0.636   6.430 -2.0544  0.1841 -0.8627
  124MOL   H12839734   6.942   0.599   6.265  0.4974  1.0950 -1.7697
  124MOL   H12939735   6.867   0.750   6.303  1.0891  2.1848  2.3500
  124MOL   C13039736   7.269   0.918   6.140 -0.6512 -0.6767  0.0356
  124MOL   C13139737   7.269   0.863   5.994  0.0146 -0.0354 -0.2773
  124MOL   C13239738   7.410   0.860   5.933 -0.8642 -0.5570  0.5140
  124MOL   O13339739   7.471   0.969   5.934  0.4637 -0.0943  0.3768
  124MOL   N13439740   7.459   0.750   5.871  0.4686 -0.0019 -0.2257
  124MOL   C13539741   7.586   0.771   5.794  0.0877  0.0740  0.4549
  124MOL   C13639742   7.399   0.618   5.885  0.1461 -0.4661  0.2552
  124MOL   H13739743   7.179   0.975   6.163  1.0208  1.6082  1.2402
  124MOL   H13839744   7.347   0.994   6.150 -1.4891  0.2187 -0.1987
  124MOL   H13939745   7.230   0.762   5.989 -0.5902  0.1867 -0.1463
  124MOL   H14039746   7.608   0.871   5.759  1.5272 -0.0575  0.9178
  124MOL   H14139747   7.670   0.723   5.845  0.1104 -0.7926 -0.3913
  124MOL   H14239748   7.575   0.704   5.709  0.4403  0.3034  0.2315
  124MOL   H14339749   7.312   0.609   5.820  1.2164 -2.0360 -1.0165
  124MOL   H14439750   7.368   0.604   5.988  0.2268 -2.5786  0.0102
  124MOL   H14539751   7.466   0.534   5.867  1.0112  0.4875 -1.1082
  124MOL   C14639752   7.174   0.944   5.902  0.7635 -0.0540  0.1115
  124MOL   C14739753   7.131   0.875   5.762 -0.3023  0.5827 -0.5397
  124MOL   C14839754   7.223   0.930   5.650 -0.1793 -0.4804 -0.0376
  124MOL   O14939755   7.240   1.054   5.641 -0.1950  0.9450 -0.1750
  124MOL   N15039756   7.285   0.849   5.555  0.3124 -0.2665 -0.2411
  124MOL   C15139757   7.383   0.915   5.467  0.1731 -0.1787  0.2984
  124MOL   C15239758   7.237   0.709   5.533  0.7161  0.1177 -0.6371
  124MOL   H15339759   7.080   0.957   5.955  2.2651  0.8138  2.6348
  124MOL   H15439760   7.220   1.041   5.883 -1.0198  1.0018  1.0870
  124MOL   H15539761   7.140   0.767   5.767  0.6931  0.7009  0.4790
  124MOL   H15639762   7.472   0.924   5.530  0.6169  2.2947 -0.6373
  124MOL   H15739763   7.423   0.858   5.383 -0.2484 -0.2146  0.1238
  124MOL   H15839764   7.337   1.004   5.424 -0.1292 -0.1953  0.5830
  124MOL   H15939765   7.318   0.649   5.573  0.8724  1.1371  0.5962
  124MOL   H16039766   7.227   0.695   5.425 -0.2086  0.6479 -0.6263
  124MOL   H16139767   7.150   0.677   5.592 -0.9106  0.3142 -2.8518
  124MOL   C16239768   6.984   0.896   5.723  0.1563 -0.2046 -0.0901
  124MOL   C16339769   6.875   0.823   5.807  0.3492  0.8562 -0.2054
  124MOL   C16439770   6.844   0.679   5.758 -0.2089  0.0283 -0.3634
  124MOL   O16539771   6.763   0.672   5.665 -0.4173 -0.8276  0.2256
  124MOL   N16639772   6.909   0.580   5.818 -0.0215  0.2099  0.6982
  124MOL   C16739773   6.997   0.590   5.934  0.1558 -0.2288 -0.3344
  124MOL   C16839774   6.888   0.440   5.770 -0.0956  0.5941 -0.0424
  124MOL   H16939775   6.956   1.001   5.723  2.2833  0.4049 -1.9699
  124MOL   H17039776   6.981   0.862   5.619  0.5246 -3.6580  0.9789
  124MOL   H17139777   6.907   0.823   5.911  2.9025  2.5313 -0.9551
  124MOL   H17239778   7.074   0.513   5.943 -2.3508 -2.5411  2.2023
  124MOL   H17339779   7.058   0.680   5.942 -0.5523  0.4282 -2.0637
  124MOL   H17439780   6.936   0.585   6.024 -0.1072 -1.5384 -0.5816
  124MOL   H17539781   6.794   0.425   5.715  0.8108  1.5089 -1.8925
  124MOL   H17639782   6.877   0.369   5.852  3.2884  0.2235  0.1515
  124MOL   H17739783   6.977   0.405   5.717  1.2624  1.6418  1.5087
  124MOL   C17839784   6.755   0.911   5.799 -0.5960 -0.3461  0.3410
  124MOL   C17939785   6.753   1.033   5.897 -0.0763 -1.1148  0.0220
  124MOL   C18039786   6.707   0.974   6.032 -0.3156  1.1396  0.0623
  124MOL   O18139787   6.622   0.886   6.034 -0.4876 -0.3353 -0.3034
  124MOL   N18239788   6.759   1.024   6.147  0.1245  0.1637  0.9642
  124MOL   C18339789   6.879   1.111   6.150 -0.3171  0.8279  0.0312
  124MOL   C18439790   6.697   0.994   6.278  0.2069  0.5803 -0.2788
  124MOL   H18539791   6.751   0.952   5.698 -0.7732  1.6189  1.1230
  124MOL   H18639792   6.658   0.863   5.809 -0.4137 -0.2064  3.1969
  124MOL   H18739793   6.852   1.076   5.910 -0.9489  2.1789 -3.2478
  124MOL   H18839794   6.963   1.073   6.092 -0.7193 -1.2222  0.7411
  124MOL   H18939795   6.880   1.207   6.100 -0.9675  1.4049  1.1023
  124MOL   H19039796   6.938   1.111   6.242 -2.8350 -0.9892  1.7233
  124MOL   H19139797   6.771   0.989   6.358  0.4798  0.6310 -0.5249
  124MOL   H19239798   6.655   0.893   6.279  0.1759  0.5696 -1.5148
  124MOL   H19339799   6.627   1.072   6.308  1.2787  1.5890 -0.3743
  124MOL   C19439800   6.655   1.138   5.851 -0.1866 -0.2240  0.2096
  124MOL   C19539801   6.706   1.251   5.753  0.0370 -0.6429  0.6067
  124MOL   C19639802   6.800   1.346   5.839  0.4914  0.6111  0.3979
  124MOL   O19739803   6.755   1.403   5.937 -0.2545 -0.3252 -0.2128
  124MOL   N19839804   6.927   1.350   5.796 -0.0415  0.1240 -0.9955
  124MOL   C19939805   7.030   1.412   5.880 -0.1501  0.7793  0.4505
  124MOL   C20039806   6.980   1.310   5.663 -0.0944  0.0901  0.7934
  124MOL   H20139807   6.572   1.083   5.805 -0.0357  0.6482 -1.1149
  124MOL   H20239808   6.620   1.186   5.942 -2.8278  0.7337 -1.2395
  124MOL   H20339809   6.763   1.197   5.677  0.2779 -0.9812  1.0268
  124MOL   H20439810   7.058   1.510   5.843 -1.0737  1.7509  2.2686
  124MOL   H20539811   7.010   1.414   5.987  1.7119 -0.9918  0.8621
  124MOL   H20639812   7.121   1.353   5.875  0.0055  1.0501  0.0707
  124MOL   H20739813   6.992   1.202   5.652  0.9671  0.4723 -2.3435
  124MOL   H20839814   7.082   1.344   5.645  0.7859 -2.6633  0.2817
  124MOL   H20939815   6.916   1.343   5.582  1.0711  1.1325  0.2786
  124MOL   C21039816   6.583   1.340   5.704  0.5343  0.2936  0.2529
  124MOL   C21139817   6.519   1.324   5.560  0.3769 -1.0455 -0.5142
  124MOL   C21239818   6.625   1.277   5.455 -0.5123 -0.0931  0.3070
  124MOL   O21339819   6.693   1.368   5.409 -0.7443 -0.1601 -0.5888
  124MOL   N21439820   6.646   1.147   5.426  0.5122 -0.1888  0.0988
  124MOL   C21539821   6.737   1.092   5.327 -0.3161  0.0223  0.0881
  124MOL   C21639822   6.577   1.033   5.492 -0.4662 -0.1773  0.3757
  124MOL   H21739823   6.502   1.318   5.774  0.7507 -0.9315  0.1147
  124MOL   H21839824   6.608   1.446   5.715 -1.7179  0.7570  1.2731
  124MOL   H21939825   6.447   1.245   5.576  0.1610 -1.0577 -1.5529
  124MOL   H22039826   6.775   1.166   5.256 -3.6111 -0.9835 -2.8859
  124MOL   H22139827   6.819   1.047   5.381 -0.1938  1.3076  1.0016
  124MOL   H22239828   6.692   1.012   5.269  2.2504  0.1504 -2.1615
  124MOL   H22339829   6.627   0.938   5.478  0.4268  0.1854  1.0851
  124MOL   H22439830   6.470   1.026   5.473 -0.7789  1.7715  1.2364
  124MOL   H22539831   6.572   1.046   5.600 -1.6618  0.2963  0.2719
  124MOL   C22639832   6.431   1.445   5.510 -0.4160  0.6320  0.6868
  124MOL   C22739833   6.340   1.513   5.615  0.0025 -0.4742  0.0295
  124MOL   C22839834   6.227   1.416   5.654  0.2140 -0.1603  0.0451
  124MOL   O22939835   6.163   1.367   5.568  0.3906  0.3519 -0.0379
  124MOL   N23039836   6.190   1.398   5.785 -0.4642  0.0183 -0.4091
  124MOL   C23139837   6.257   1.461   5.909 -0.7881  0.9601  0.1060
  124MOL   C23239838   6.067   1.331   5.815  0.8035  0.7329  0.2091
  124MOL   H23339839   6.493   1.520   5.461  0.5339  1.1814  2.6969
  124MOL   H23439840   6.359   1.419   5.433  0.8166 -2.3025  0.4425
  124MOL   H23539841   6.407   1.546   5.695  0.1465  2.7677 -1.3564
  124MOL   H23639842   6.305   1.553   5.877 -0.0455  0.1768 -1.0655
  124MOL   H23739843   6.186   1.491   5.987  1.6148  3.7041  1.3227
  124MOL   H23839844   6.337   1.405   5.957 -0.9257 -0.2564 -1.0616
  124MOL   H23939845   6.043   1.326   5.921  0.4003  0.7553  0.1195
  124MOL   H24039846   6.102   1.230   5.796  3.0225  1.1332  1.8784
  124MOL   H24139847   5.981   1.365   5.758 -0.8257 -1.8899  1.0490
  124MOL   C24239848   6.282   1.641   5.550 -0.1765 -0.5707 -0.2814
  124MOL   C24339849   6.202   1.727   5.644  0.0802 -0.3247 -0.3847
  124MOL   C24439850   6.113   1.830   5.574 -0.1192 -0.5419 -0.1865
  124MOL   O24539851   6.168   1.930   5.524 -0.1634  0.5882 -0.8832
  124MOL   N24639852   5.972   1.819   5.579 -0.0964 -0.3760  0.4781
  124MOL   C24739853   5.888   1.941   5.544  0.5279 -0.6114 -0.1744
  124MOL   C24839854   5.899   1.699   5.628 -0.2829 -0.3733  0.1590
  124MOL   H24939855   6.367   1.704   5.524  0.3124 -0.4851  1.4585
  124MOL   H25039856   6.221   1.622   5.462  1.2890 -0.1523 -1.4180
  124MOL   H25139857   6.132   1.663   5.697  1.8932 -0.6919  1.6259
  124MOL   H25239858   5.907   1.982   5.445  3.8242  0.8915  0.9823
  124MOL   H25339859   5.785   1.918   5.569  0.1154 -0.8671 -2.0778
  124MOL   H25439860   5.906   2.022   5.615  1.2079 -1.4180  0.5836
  124MOL   H25539861   5.791   1.710   5.615 -0.3521  0.3423  1.3232
  124MOL   H25639862   5.915   1.692   5.736 -0.7059 -2.9256  0.0910
  124MOL   H25739863   5.926   1.604   5.581  0.9606  0.3914 -0.7173
  124MOL   C25839864   6.294   1.794   5.750  0.2692 -0.1992  0.4975
  124MOL   C25939865   6.234   1.812   5.898  0.5269  0.4278 -0.5733
  124MOL   C26039866   6.127   1.924   5.901  0.1458  0.6275 -0.3668
  124MOL   O26139867   6.010   1.886   5.908  0.2583 -0.3434  0.1516
  124MOL   N26239868   6.163   2.052   5.893  0.2116  0.6286 -0.5897
  124MOL   C26339869   6.298   2.114   5.903 -0.3198  0.0300  1.1749
  124MOL   C26439870   6.066   2.164   5.902 -0.0419 -0.1576  0.1575
  124MOL   H26539871   6.390   1.742   5.756  0.9688  1.0120  0.1061
  124MOL   H26639872   6.327   1.889   5.707 -1.6080 -0.7559 -2.3089
  124MOL   H26739873   6.178   1.720   5.919  0.7248  0.7197  1.2917
  124MOL   H26839874   6.325   2.127   6.007 -0.9328  2.4273  1.0577
  124MOL   H26939875   6.376   2.056   5.853 -1.0578 -0.5417  0.6759
  124MOL   H27039876   6.309   2.217   5.869 -1.7455  0.3448  1.6267
  124MOL   H27139877   5.966   2.136   5.872  0.5324 -0.3315 -1.6367
  124MOL   H27239878   6.098   2.256   5.854  0.7018  0.6036  2.0315
  124MOL   H27339879   6.041   2.177   6.007 -1.3563 -1.1728 -0.0149
  124MOL   C27439880   6.342   1.819   6.018 -0.4173 -0.1580 -0.2332
  124MOL   C27539881   6.299   1.766   6.158  0.6444  0.4767 -0.0778
  124MOL   C27639882   6.188   1.860   6.222 -0.1881  0.1655  0.0962
  124MOL   O27739883   6.210   1.985   6.233  0.5707 -0.1066  0.5390
  124MOL   N27839884   6.066   1.814   6.254  0.2793  0.5195  0.5722
  124MOL   C27939885   5.975   1.901   6.332 -0.4118  0.0003 -0.2325
  124MOL   C28039886   6.013   1.685   6.210  1.2986  0.1817  0.1746
  124MOL   H28139887   6.436   1.773   5.985  0.3741  0.2458  1.4034
  124MOL   H28239888   6.372   1.922   6.036 -2.5014  0.8888 -2.4299
  124MOL   H28339889   6.266   1.663   6.143 -2.7569  1.0827  2.9019
  124MOL   H28439890   5.978   2.008   6.312 -0.6013  1.0206  4.6084
  124MOL   H28539891   5.870   1.879   6.311 -0.2611 -1.2619  0.2836
  124MOL   H28639892   6.001   1.890   6.437  0.6175 -0.7493 -0.5525
  124MOL   H28739893   5.910   1.663   6.241  2.0594 -2.4182  0.9957
  124MOL   H28839894   6.084   1.618   6.258  0.3179 -0.2162  1.0999
  124MOL   H28939895   6.015   1.673   6.102 -0.6848 -1.1277  0.2532
  124MOL   C29039896   6.426   1.757   6.244  0.1382  0.3010 -0.0960
  124MOL   C29139897   6.506   1.633   6.223 -0.5142 -0.0634 -0.4579
  124MOL   C29239898   6.464   1.517   6.318  0.0871 -0.2975  0.4697
  124MOL   O29339899   6.433   1.543   6.432  0.1701  0.5339 -0.3703
  124MOL   N29439900   6.443   1.394   6.267 -0.2976 -1.2036 -0.1705
  124MOL   C29539901   6.533   1.338   6.160  0.8026 -1.0672  0.2312
  124MOL   C29639902   6.348   1.303   6.322 -0.0299  0.6059  0.9180
  124MOL   H29739903   6.486   1.845   6.221 -0.3301 -0.0069 -2.5662
  124MOL   H29839904   6.417   1.777   6.351  0.0988 -0.5474  0.0616
  124MOL   H29939905   6.481   1.596   6.124  0.1175 -0.3860 -0.5036
  124MOL   H30039906   6.623   1.297   6.206  0.7991 -0.1323  1.0977
  124MOL   H30139907   6.480   1.262   6.103  1.3343 -1.6792  0.5447
  124MOL   H30239908   6.562   1.407   6.081  1.7878 -0.8749  0.7418
  124MOL   H30339909   6.395   1.249   6.405  0.9423  1.6508  1.0624
  124MOL   H30439910   6.321   1.224   6.252 -0.6185 -0.0527  1.8767
  124MOL   H30539911   6.263   1.356   6.364 -0.9376  0.9828 -1.3591
  124MOL   C30639912   6.660   1.651   6.229  0.6467  0.2510  0.1710
  124MOL   C30739913   6.733   1.722   6.109 -0.1780 -0.4268  0.3127
  124MOL   C30839914   6.837   1.821   6.173 -0.2102  0.0212  0.1953
  124MOL   O30939915   6.794   1.916   6.240 -1.0722 -0.1557  0.1037
  124MOL   N31039916   6.973   1.799   6.145  0.4049  0.3162  0.3351
  124MOL   C31139917   7.076   1.858   6.231  0.5690 -0.6610 -0.0798
  124MOL   C31239918   7.021   1.682   6.064  0.3612 -0.0405  0.2785
  124MOL   H31339919   6.677   1.710   6.319  2.1460  2.9231 -1.8189
  124MOL   H31439920   6.709   1.554   6.242  0.8697  0.6145  2.2451
  124MOL   H31539921   6.766   1.656   6.029  0.7097  0.0291  0.2952
  124MOL   H31639922   7.129   1.937   6.178 -1.8360  0.9852 -0.1216
  124MOL   H31739923   7.035   1.912   6.317  0.6061 -1.2843  0.3320
  124MOL   H31839924   7.137   1.773   6.260  1.1868 -0.5399 -1.0095
  124MOL   H31939925   6.970   1.690   5.968  0.4282 -2.6324 -0.0015
  124MOL   H32039926   7.011   1.589   6.119  2.0641 -0.8917 -0.8018
  124MOL   H32139927   7.127   1.694   6.039  0.4820 -1.0761  0.2632
  124MOL   H32239928   6.657   1.788   6.068  1.6535  1.7026  0.2455
  125MOL     C139929   3.038   5.152   0.070 -0.3494 -0.8091  0.5163
  125MOL     C239930   3.053   5.171   7.764 -0.1105  0.4823 -0.2527
  125MOL     C339931   3.117   5.310   7.742  0.2106  0.4765 -0.1430
  125MOL     O439932   3.061   5.405   7.795  0.1520 -0.8357  0.4482
  125MOL     N539933   3.245   5.320   7.693  0.3506 -0.8966  0.3504
  125MOL     C639934   3.300   5.459   7.677 -0.0637 -0.3157  0.5841
  125MOL     C739935   3.337   5.212   7.660  0.7079 -1.6677  0.5708
  125MOL     H839936   2.950   5.202   0.110 -0.7080 -1.3051  0.3611
  125MOL     H939937   3.115   5.209   0.121  0.3275 -1.0047 -0.2815
  125MOL    H1039938   3.114   5.084   7.736 -0.8804  0.1931 -1.0521
  125MOL    H1139939   3.234   5.513   7.609  0.1239  1.5510  1.8499
  125MOL    H1239940   3.306   5.515   7.770 -0.3913  0.5637  0.0850
  125MOL    H1339941   3.393   5.465   7.620 -1.6461  0.7007 -1.9901
  125MOL    H1439942   3.336   5.193   7.552 -1.2313  0.7054  0.1220
  125MOL    H1539943   3.318   5.125   7.722 -1.4976  0.1281  2.5059
  125MOL    H1639944   3.438   5.246   7.680  0.6970 -1.1143 -0.2944
  125MOL    H1739945   3.029   5.046   0.094  0.2108 -1.0827 -0.4581
  125MOL    C1839946   2.914   5.174   7.698 -0.4023  0.0858  0.6306
  125MOL    C1939947   2.910   5.165   7.548 -0.5921 -0.3901  0.1161
  125MOL    C2039948   2.921   5.300   7.471  0.3325 -0.1391 -0.7348
  125MOL    O2139949   2.823   5.372   7.487 -0.7068 -0.3601 -0.1612
  125MOL    N2239950   3.018   5.329   7.384  0.0935 -0.6343  0.3827
  125MOL    C2339951   3.014   5.439   7.298  0.5345 -0.5111  0.6813
  125MOL    C2439952   3.131   5.239   7.345 -0.3036  0.0976 -0.3526
  125MOL    H2539953   2.856   5.087   7.729 -2.1801  1.1257  0.2964
  125MOL    H2639954   2.849   5.256   7.726  0.4060  0.0064  2.8441
  125MOL    H2739955   3.003   5.110   7.538  0.4583  0.8808  2.7372
  125MOL    H2839956   2.932   5.506   7.323  0.5087 -0.6051  0.8446
  125MOL    H2939957   3.106   5.496   7.298  0.5603 -0.5505  1.2225
  125MOL    H3039958   2.993   5.410   7.195  1.1254  2.4389 -0.3009
  125MOL    H3139959   3.212   5.273   7.409  0.6173  0.4701 -1.6951
  125MOL    H3239960   3.156   5.253   7.240 -2.4408  1.8679 -0.6759
  125MOL    H3339961   3.102   5.136   7.361 -2.7444  0.9912  1.3403
  125MOL    C3439962   2.778   5.082   7.495 -0.1033 -0.4213  0.0119
  125MOL    C3539963   2.764   5.067   7.342  0.4099  0.0810 -0.2835
  125MOL    C3639964   2.616   5.015   7.320  0.1086  0.0164  0.1626
  125MOL    O3739965   2.586   4.893   7.320 -0.0353 -0.3053 -0.4535
  125MOL    N3839966   2.524   5.111   7.303 -0.1520 -0.2596  0.1015
  125MOL    C3939967   2.545   5.251   7.288 -0.1037 -0.7624 -0.3941
  125MOL    C4039968   2.389   5.079   7.256  0.3123  0.9882  0.6005
  125MOL    H4139969   2.766   4.985   7.543 -1.8105 -0.2350 -0.0315
  125MOL    H4239970   2.693   5.138   7.534  0.3969  0.5411 -0.2515
  125MOL    H4339971   2.782   5.159   7.286 -0.2491  0.6055  0.3606
  125MOL    H4439972   2.604   5.270   7.198  2.6590  1.0021  1.7051
  125MOL    H4539973   2.458   5.316   7.285 -0.1237 -0.7325  0.5872
  125MOL    H4639974   2.595   5.286   7.378  1.6813 -3.5344 -0.2417
  125MOL    H4739975   2.351   4.999   7.320  1.5833 -0.2899 -0.2155
  125MOL    H4839976   2.394   5.048   7.152  1.0457 -0.3758  1.0403
  125MOL    H4939977   2.311   5.154   7.270  1.1316  2.0333 -0.3733
  125MOL    C5039978   2.860   4.953   7.291 -1.0102 -0.2957  0.2502
  125MOL    C5139979   2.852   4.920   7.140 -0.1846 -0.2973  0.1214
  125MOL    C5239980   2.915   4.780   7.111 -0.6544  0.6506  0.0783
  125MOL    O5339981   3.036   4.781   7.129  0.2952  0.1620 -0.2138
  125MOL    N5439982   2.849   4.674   7.053 -0.0506 -0.3528  0.3204
  125MOL    C5539983   2.708   4.669   7.046 -0.1385 -0.3938  0.1770
  125MOL    C5639984   2.926   4.550   7.004 -0.6673  0.2319 -0.1805
  125MOL    H5739985   2.961   4.971   7.328 -0.8654 -2.1757  0.8087
  125MOL    H5839986   2.837   4.860   7.341 -1.0363 -0.2117  0.3939
  125MOL    H5939987   2.752   4.917   7.097  0.5354 -0.3494 -1.6002
  125MOL    H6039988   2.658   4.731   7.121 -2.9920 -2.6106  0.2300
  125MOL    H6139989   2.662   4.702   6.953  1.8949 -1.3648 -1.2160
  125MOL    H6239990   2.670   4.570   7.074 -1.3919 -0.3950 -1.4137
  125MOL    H6339991   2.946   4.562   6.898  0.5222  1.8476  0.2047
  125MOL    H6439992   2.879   4.455   7.030 -0.8308  0.4862  0.4731
  125MOL    H6539993   3.027   4.556   7.046 -0.9194  2.2789  0.1739
  125MOL    C6639994   2.927   5.034   7.061  0.1908 -0.4124  0.3794
  125MOL    C6739995   2.882   5.057   6.911  0.4761 -0.0614  0.0441
  125MOL    C6839996   2.731   5.074   6.883  0.1988  0.0897  0.0954
  125MOL    O6939997   2.669   4.974   6.852 -0.1134 -0.0571  0.7774
  125MOL    N7039998   2.667   5.196   6.894  0.3133 -0.1938  0.0584
  125MOL    C7139999   2.731   5.324   6.935  0.6404 -0.4991 -0.2447
  125MOL    C7240000   2.534   5.214   6.846  0.6178  0.2199 -0.0831
  125MOL    H7340001   2.918   5.128   7.114 -2.4599 -1.1200  1.2350
  125MOL    H7440002   3.035   5.015   7.055 -0.0058 -1.1477 -1.4472
  125MOL    H7540003   2.931   5.149   6.879 -1.6529  0.9834 -0.3319
  125MOL    H7640004   2.662   5.392   6.985 -1.2712 -2.0912 -0.7060
  125MOL    H7740005   2.812   5.305   7.005  0.9157  0.0402 -0.4092
  125MOL    H7840006   2.778   5.382   6.855  1.8352  2.0419  2.2134
  125MOL    H7940007   2.468   5.156   6.910  2.3794 -2.3413 -0.5179
  125MOL    H8040008   2.529   5.174   6.745 -0.2492 -0.3078  0.1607
  125MOL    H8140009   2.491   5.314   6.844  0.7126  0.2621  0.0022
  125MOL    C8240010   2.938   4.945   6.823 -1.2265  0.8023 -0.3420
  125MOL    C8340011   3.095   4.926   6.810  0.3594  0.2326 -0.3225
  125MOL    C8440012   3.155   5.056   6.744  0.3757 -0.0921 -0.4520
  125MOL    O8540013   3.126   5.072   6.626  0.0607 -0.2288  0.3983
  125MOL    N8640014   3.228   5.139   6.813 -0.9405 -0.2200  0.8915
  125MOL    C8740015   3.307   5.237   6.737  0.0808  0.1749 -0.2351
  125MOL    C8840016   3.257   5.135   6.953  0.3966  0.4483  0.2074
  125MOL    H8940017   2.896   4.850   6.856  2.6302 -0.9476 -0.1902
  125MOL    H9040018   2.890   4.950   6.726 -0.6338  2.6127 -0.5588
  125MOL    H9140019   3.134   4.891   6.905 -1.0325 -2.3582 -0.6425
  125MOL    H9240020   3.284   5.251   6.631 -2.2642  0.1316  0.2255
  125MOL    H9340021   3.265   5.330   6.777 -1.6194 -0.8831  0.4621
  125MOL    H9440022   3.414   5.228   6.750 -0.1086 -0.1385  1.1084
  125MOL    H9540023   3.173   5.180   7.006  0.0903  2.2377 -1.7434
  125MOL    H9640024   3.340   5.202   6.979  2.0097 -0.4956 -2.3516
  125MOL    H9740025   3.297   5.041   6.989  0.5278  0.2467 -0.4528
  125MOL    C9840026   3.125   4.812   6.712  0.0834  0.3075 -0.5574
  125MOL    C9940027   3.274   4.760   6.692  0.3365  0.9088  0.4834
  125MOL   C10040028   3.278   4.666   6.568  0.6262 -1.0936 -0.3849
  125MOL   O10140029   3.283   4.543   6.579 -0.1551 -0.6785  0.0056
  125MOL   N10240030   3.277   4.719   6.447 -0.2345 -0.4815 -0.1618
  125MOL   C10340031   3.257   4.626   6.335 -0.3461 -0.0214  0.1680
  125MOL   C10440032   3.286   4.859   6.405 -0.8380  1.1234  0.0774
  125MOL   H10540033   3.058   4.734   6.748 -0.1039  1.1888  1.0322
  125MOL   H10640034   3.081   4.837   6.615  0.9423 -2.9085 -1.8514
  125MOL   H10740035   3.339   4.846   6.673  0.5914 -0.1953 -4.0273
  125MOL   H10840036   3.335   4.660   6.267 -0.2156  2.1631  1.3955
  125MOL   H10940037   3.285   4.521   6.347 -1.8487 -0.6369 -1.4002
  125MOL   H11040038   3.154   4.628   6.299 -0.4071  2.1950  0.4459
  125MOL   H11140039   3.380   4.894   6.447  1.1929 -2.4862 -1.2019
  125MOL   H11240040   3.195   4.906   6.443 -0.4306  0.6110  1.7191
  125MOL   H11340041   3.269   4.864   6.297  1.7927  1.1617 -0.3451
  125MOL   C11440042   3.336   4.684   6.823  0.4489  0.2298 -0.6472
  125MOL   C11540043   3.488   4.703   6.857  0.1362  0.0549 -0.0428
  125MOL   C11640044   3.535   4.585   6.946  0.7278  0.8359  0.4683
  125MOL   O11740045   3.489   4.577   7.062 -0.0095  0.0758 -0.1216
  125MOL   N11840046   3.616   4.485   6.891  0.1753 -0.0691 -0.0884
  125MOL   C11940047   3.691   4.398   6.981 -0.0815 -0.2369 -0.5354
  125MOL   C12040048   3.643   4.485   6.747  0.0287  0.2557  0.4091
  125MOL   H12140049   3.291   4.729   6.912  0.0682  0.1266 -0.7877
  125MOL   H12240050   3.317   4.577   6.833  1.6855  0.0884  0.3256
  125MOL   H12340051   3.540   4.718   6.763  0.6650 -0.7081  0.1179
  125MOL   H12440052   3.759   4.463   7.037 -2.9550  2.2471  0.2227
  125MOL   H12540053   3.625   4.351   7.055 -0.5147 -0.8662 -1.3246
  125MOL   H12640054   3.740   4.315   6.932  0.1392 -0.2696 -0.2622
  125MOL   H12740055   3.703   4.570   6.717  1.2135 -1.2353 -1.5287
  125MOL   H12840056   3.553   4.499   6.687  1.1006  0.0672 -1.2855
  125MOL   H12940057   3.694   4.397   6.708 -2.0626  0.7850 -3.7656
  125MOL   C13040058   3.502   4.836   6.932  0.2212  0.1003 -0.5780
  125MOL   C13140059   3.641   4.890   6.958  0.8983  0.5025 -0.2261
  125MOL   C13240060   3.614   5.031   7.022  0.3261 -0.2648  0.1515
  125MOL   O13340061   3.581   5.123   6.944 -1.0226  0.1909  0.0203
  125MOL   N13440062   3.628   5.053   7.154  0.2611 -0.6791  0.7587
  125MOL   C13540063   3.628   5.190   7.205  0.0247 -0.2419 -0.0804
  125MOL   C13640064   3.635   4.941   7.251 -0.2200  0.0876 -0.4782
  125MOL   H13740065   3.452   4.910   6.870  0.3466  2.9938  2.6341
  125MOL   H13840066   3.440   4.826   7.022 -0.8697  0.8666 -1.2307
  125MOL   H13940067   3.675   4.822   7.036  0.8122 -1.1347 -1.5702
  125MOL   H14040068   3.539   5.228   7.256  0.9580 -0.3434  1.6452
  125MOL   H14140069   3.712   5.230   7.263  0.4440 -2.6923  1.0405
  125MOL   H14240070   3.620   5.261   7.122 -0.4128 -0.4121 -0.1850
  125MOL   H14340071   3.550   4.880   7.221 -0.3000 -0.6217  1.1457
  125MOL   H14440072   3.599   4.975   7.348  1.0797  0.0488  0.0310
  125MOL   H14540073   3.728   4.884   7.262 -0.4066 -0.1047  0.1502
  125MOL   C14640074   3.740   4.886   6.840 -0.7219 -0.3591  0.3794
  125MOL   C14740075   3.885   4.940   6.855  0.1107 -0.2941 -0.4831
  125MOL   C14840076   3.950   4.901   6.990 -0.2098 -0.0664  0.1344
  125MOL   O14940077   3.952   4.986   7.084  0.1441  0.5253 -0.0293
  125MOL   N15040078   4.016   4.778   7.007  0.2038  0.2752 -0.8274
  125MOL   C15140079   4.033   4.678   6.899 -0.4633  0.4721 -0.2987
  125MOL   C15240080   4.052   4.735   7.148 -0.0119 -0.8283 -0.4242
  125MOL   H15340081   3.749   4.786   6.798 -0.7821 -0.1184 -0.2033
  125MOL   H15440082   3.686   4.944   6.766  0.1194  0.9162  0.7577
  125MOL   H15540083   3.941   4.892   6.775 -1.7022 -0.4060 -1.7124
  125MOL   H15640084   3.931   4.646   6.879 -1.0557  1.1804  1.4676
  125MOL   H15740085   4.086   4.715   6.811  1.2049 -0.8468  0.1160
  125MOL   H15840086   4.083   4.588   6.935 -2.2724  1.4805  5.2207
  125MOL   H15940087   4.107   4.642   7.158  1.4535  0.0340 -0.3625
  125MOL   H16040088   3.971   4.736   7.221  0.5272  0.7637  0.1806
  125MOL   H16140089   4.127   4.801   7.192 -0.7483 -2.2762  3.2201
  125MOL   C16240090   3.904   5.091   6.820  0.0947  0.1207  0.3197
  125MOL   C16340091   4.051   5.128   6.786  0.4261  0.6990  0.2366
  125MOL   C16440092   4.087   5.273   6.792  0.4489 -0.6412 -0.4148
  125MOL   O16540093   4.017   5.355   6.728 -0.5830  0.3811 -0.2108
  125MOL   N16640094   4.194   5.319   6.861  0.4251  1.5274  0.1998
  125MOL   C16740095   4.283   5.232   6.939 -0.1857 -0.5717  0.5636
  125MOL   C16840096   4.230   5.458   6.857 -0.0318 -0.2844 -0.0445
  125MOL   H16940097   3.844   5.109   6.731  1.3212 -0.0579 -0.5618
  125MOL   H17040098   3.863   5.152   6.900  2.6232  0.7599  1.1946
  125MOL   H17140099   4.111   5.075   6.860  1.7099 -1.3247 -2.1959
  125MOL   H17240100   4.319   5.148   6.878  1.4411 -0.4536  1.3327
  125MOL   H17340101   4.377   5.274   6.974  0.5045 -0.8738 -0.8731
  125MOL   H17440102   4.231   5.201   7.030 -1.4033 -0.8176 -0.2030
  125MOL   H17540103   4.157   5.530   6.893 -0.0436  0.9211 -2.4047
  125MOL   H17640104   4.258   5.477   6.754 -1.7880  0.8689 -0.3316
  125MOL   H17740105   4.323   5.486   6.907  0.5289 -1.3137 -0.4855
  125MOL   C17840106   4.108   5.064   6.654  0.0192  0.1250 -0.2622
  125MOL   C17940107   4.057   5.117   6.514 -0.1432  0.1626  0.9320
  125MOL   C18040108   3.918   5.047   6.486 -0.2639 -0.3561  0.6177
  125MOL   O18140109   3.920   4.926   6.479  0.0410 -0.2798 -0.7586
  125MOL   N18240110   3.803   5.122   6.469 -0.5268  0.1465  0.2438
  125MOL   C18340111   3.808   5.255   6.425  0.1224 -0.3470 -0.0928
  125MOL   C18440112   3.668   5.063   6.491 -0.1716  0.6166 -0.0421
  125MOL   H18540113   4.215   5.080   6.654 -0.0854  0.8582 -1.5517
  125MOL   H18640114   4.105   4.956   6.658  2.5586  0.1211  3.8752
  125MOL   H18740115   4.048   5.225   6.510  1.0578  0.2206 -0.6596
  125MOL   H18840116   3.878   5.272   6.343 -0.7741  1.8396 -0.4476
  125MOL   H18940117   3.710   5.290   6.392 -0.0909  0.2266  1.1360
  125MOL   H19040118   3.850   5.296   6.517  0.7967  0.6748 -0.8512
  125MOL   H19140119   3.669   4.957   6.517  3.0546  0.1948 -1.6240
  125MOL   H19240120   3.604   5.072   6.403  0.0260  1.6732 -0.0902
  125MOL   H19340121   3.626   5.111   6.579  1.0620  0.7384  0.4867
  125MOL   C19440122   4.142   5.074   6.387 -0.1324  0.6938 -0.2999
  125MOL   C19540123   4.282   5.124   6.382 -0.3642  0.7054 -0.1704
  125MOL   C19640124   4.304   5.277   6.383 -0.3731 -0.2704 -0.1110
  125MOL   O19740125   4.228   5.334   6.306  0.0057 -0.9281  0.1309
  125MOL   N19840126   4.379   5.334   6.477 -0.1460 -0.1810  0.6667
  125MOL   C19940127   4.390   5.479   6.480  1.1778 -0.2943  0.8229
  125MOL   C20040128   4.468   5.262   6.568 -0.1387  0.4382 -0.1530
  125MOL   H20140129   4.150   4.966   6.394  0.6673  0.7387 -0.5579
  125MOL   H20240130   4.085   5.101   6.298 -2.3216 -0.2940  0.7571
  125MOL   H20340131   4.339   5.079   6.463  0.1790  0.1872 -0.8357
  125MOL   H20440132   4.442   5.515   6.569  0.7016 -1.2347  1.4902
  125MOL   H20540133   4.429   5.512   6.384  1.3869 -3.0053 -0.0571
  125MOL   H20640134   4.288   5.517   6.486  1.6534  1.5348 -1.8331
  125MOL   H20740135   4.527   5.178   6.531  0.3342  0.1820  1.1779
  125MOL   H20840136   4.418   5.246   6.663  1.3523 -0.4578  0.5049
  125MOL   H20940137   4.541   5.339   6.593  1.2924 -1.0565  0.3336
  125MOL   C21040138   4.341   5.062   6.253 -0.9887 -0.5111 -0.8639
  125MOL   C21140139   4.498   5.063   6.241 -0.5238 -0.0128 -0.6149
  125MOL   C21240140   4.540   5.025   6.104 -0.5472 -0.7419  0.5075
  125MOL   O21340141   4.473   4.942   6.045  0.2210  0.0282  0.4762
  125MOL   N21440142   4.656   5.074   6.053 -0.2245 -0.6954  0.0490
  125MOL   C21540143   4.762   5.136   6.129  0.3543  0.1771  0.0196
  125MOL   C21640144   4.687   5.056   5.914 -0.1472  0.1745  0.2851
  125MOL   H21740145   4.312   4.957   6.249 -0.4977 -0.8066  2.3016
  125MOL   H21840146   4.292   5.111   6.169 -0.9525 -1.5226 -1.4839
  125MOL   H21940147   4.531   5.167   6.252  1.0250 -0.6278  0.7058
  125MOL   H22040148   4.830   5.193   6.066  0.2968 -0.6439 -0.7972
  125MOL   H22140149   4.718   5.199   6.207  0.1162  0.6781 -0.5145
  125MOL   H22240150   4.822   5.060   6.179  2.1784  0.9778 -0.9104
  125MOL   H22340151   4.737   5.145   5.877 -3.7733  1.4526 -1.7973
  125MOL   H22440152   4.600   5.032   5.853  0.3485  1.5864 -1.0024
  125MOL   H22540153   4.758   4.973   5.917 -0.2491  0.0740 -0.0583
  125MOL   C22640154   4.579   4.983   6.345  0.1122 -0.0383 -0.0295
  125MOL   C22740155   4.625   4.835   6.316  0.5953 -0.1979 -0.0434
  125MOL   C22840156   4.502   4.738   6.297 -0.7436 -0.6365  0.2626
  125MOL   O22940157   4.409   4.753   6.375 -0.1525 -0.4558  0.1511
  125MOL   N23040158   4.499   4.646   6.204 -0.1647  0.5113  0.4616
  125MOL   C23140159   4.370   4.571   6.196  0.1394  0.6482 -0.3660
  125MOL   C23240160   4.599   4.612   6.099 -0.6984  0.1305  0.2520
  125MOL   H23340161   4.676   5.027   6.367 -0.0161 -1.3532  3.6285
  125MOL   H23440162   4.527   4.973   6.440 -1.3031 -0.5430 -0.8459
  125MOL   H23540163   4.683   4.834   6.225 -1.0496 -1.1602 -1.1150
  125MOL   H23640164   4.359   4.501   6.280 -1.9120  0.4457 -0.7635
  125MOL   H23740165   4.280   4.632   6.198 -1.0389 -1.0979  1.5126
  125MOL   H23840166   4.363   4.515   6.103 -0.3087  2.7593 -1.6275
  125MOL   H23940167   4.622   4.699   6.039  0.9779 -2.2229 -2.6336
  125MOL   H24040168   4.556   4.542   6.027 -0.2358  0.0870  0.0136
  125MOL   H24140169   4.694   4.564   6.122 -1.1077 -0.0070  1.7558
  125MOL   C24240170   4.719   4.779   6.427 -0.0832  0.4744 -0.5186
  125MOL   C24340171   4.868   4.838   6.431  0.4925 -0.5254 -0.1691
  125MOL   C24440172   4.972   4.718   6.426 -0.5190 -0.5138  0.8586
  125MOL   O24540173   4.968   4.641   6.519  0.3578  0.5985  0.6843
  125MOL   N24640174   5.075   4.715   6.337 -0.0363  0.0660 -0.0524
  125MOL   C24740175   5.081   4.789   6.213  0.5520 -0.1351 -0.0311
  125MOL   C24840176   5.186   4.625   6.358 -0.1378 -0.2987 -0.5464
  125MOL   H24940177   4.682   4.794   6.528 -0.3685  0.9829 -0.7010
  125MOL   H25040178   4.739   4.671   6.422  0.7241  0.4940  1.7035
  125MOL   H25140179   4.874   4.896   6.340 -0.4057  1.0898  0.7730
  125MOL   H25240180   5.048   4.893   6.215 -2.5870 -1.0652 -0.6408
  125MOL   H25340181   5.172   4.774   6.155 -0.5111 -1.5885 -1.3533
  125MOL   H25440182   5.006   4.744   6.148 -1.9973  0.8547  2.1103
  125MOL   H25540183   5.144   4.528   6.333 -0.8201  0.3889 -2.1715
  125MOL   H25640184   5.209   4.628   6.464 -2.1331 -0.9600 -0.0700
  125MOL   H25740185   5.266   4.654   6.290 -1.3679  1.7973 -1.1559
  125MOL   C25840186   4.886   4.924   6.563  0.4288  0.3482  0.1431
  125MOL   C25940187   5.006   5.019   6.578  0.2273 -0.1145  0.0194
  125MOL   C26040188   5.032   5.120   6.464 -0.5033 -0.1426  0.3066
  125MOL   O26140189   5.105   5.091   6.369  0.3718  0.5085  0.1991
  125MOL   N26240190   4.963   5.235   6.466  0.3575  0.5411 -0.5601
  125MOL   C26340191   4.976   5.330   6.355  0.0975 -0.6061 -0.5587
  125MOL   C26440192   4.862   5.273   6.571  0.0482 -0.0970 -0.2725
  125MOL   H26540193   4.801   4.993   6.560 -0.7716 -1.1887 -2.3790
  125MOL   H26640194   4.866   4.872   6.657  0.9113  0.4016  0.2743
  125MOL   H26740195   4.978   5.069   6.671  0.4390  0.9096 -0.4566
  125MOL   H26840196   5.047   5.297   6.279  0.0928 -1.8552 -0.0402
  125MOL   H26940197   4.876   5.346   6.313 -0.3050  0.5352  0.8147
  125MOL   H27040198   5.005   5.433   6.375  0.0705 -1.0755  2.0555
  125MOL   H27140199   4.922   5.292   6.660  0.1434 -2.2823  0.1742
  125MOL   H27240200   4.780   5.201   6.573 -0.1876  0.2002  2.2201
  125MOL   H27340201   4.819   5.369   6.543  3.1231  1.6379  0.7303
  125MOL   C27440202   5.130   4.939   6.622  0.4681 -0.8757  0.2059
  125MOL   C27540203   5.263   5.020   6.648  0.2960 -0.3279  0.7169
  125MOL   C27640204   5.393   4.925   6.643 -0.1468 -0.4550 -0.4848
  125MOL   O27740205   5.428   4.853   6.734 -0.7895  0.2161 -0.1552
  125MOL   N27840206   5.479   4.952   6.540  0.0991  0.2754  0.0085
  125MOL   C27940207   5.611   4.891   6.519  0.2318 -0.3134 -0.2739
  125MOL   C28040208   5.431   5.026   6.421  0.0124  0.0191  0.3001
  125MOL   H28140209   5.105   4.878   6.709 -0.7761 -0.0926  0.4112
  125MOL   H28240210   5.159   4.870   6.543 -0.0710  1.1219 -1.7790
  125MOL   H28340211   5.266   5.096   6.569 -1.9945  0.2525  1.1553
  125MOL   H28440212   5.690   4.938   6.577  0.8548  0.5246 -1.7802
  125MOL   H28540213   5.598   4.786   6.545 -1.7660  0.2055  1.0232
  125MOL   H28640214   5.645   4.897   6.416  0.7741  0.0043 -0.0763
  125MOL   H28740215   5.493   5.008   6.333 -1.4664  0.3203 -0.8121
  125MOL   H28840216   5.429   5.131   6.448  0.3478  0.0872  0.0721
  125MOL   H28940217   5.334   4.993   6.386  0.7709  0.0181 -1.8676
  125MOL   C29040218   5.261   5.111   6.776  0.3369 -0.3716  0.3979
  125MOL   C29140219   5.374   5.210   6.792  0.2747 -0.5646  0.6503
  125MOL   C29240220   5.401   5.256   6.935 -0.5488 -0.0187  0.7260
  125MOL   O29340221   5.315   5.336   6.980  0.2318  0.1005 -0.3858
  125MOL   N29440222   5.501   5.202   7.012 -0.6272 -0.3538 -0.2647
  125MOL   C29540223   5.584   5.089   6.967  0.8886  0.0939  0.2062
  125MOL   C29640224   5.527   5.264   7.139  0.8271  1.1893 -0.2176
  125MOL   H29740225   5.164   5.162   6.777  2.1489  3.2049 -0.0178
  125MOL   H29840226   5.253   5.045   6.863  0.5826 -3.7574 -2.0467
  125MOL   H29940227   5.467   5.170   6.754  0.7423 -1.0315  2.2244
  125MOL   H30040228   5.636   5.044   7.052 -0.9136  1.7563  2.2492
  125MOL   H30140229   5.521   5.019   6.910 -0.5422  1.3293  0.2290
  125MOL   H30240230   5.654   5.121   6.890 -1.2225  0.8523 -1.4665
  125MOL   H30340231   5.444   5.272   7.210  0.8205  2.1033 -0.3193
  125MOL   H30440232   5.558   5.367   7.119  0.6950  1.3211  0.2515
  125MOL   H30540233   5.608   5.214   7.193 -0.6750  0.9295  1.8781
  125MOL   C30640234   5.335   5.329   6.697 -0.5416  0.2202 -0.3840
  125MOL   C30740235   5.413   5.465   6.687  0.1136 -0.7715  0.5202
  125MOL   C30840236   5.355   5.563   6.586  0.1578 -0.0683 -0.0257
  125MOL   O30940237   5.264   5.528   6.512  0.0656  0.3964 -0.0503
  125MOL   N31040238   5.410   5.686   6.585 -0.6338 -0.5633  0.4197
  125MOL   C31140239   5.516   5.721   6.683 -0.4565 -0.0721 -0.7055
  125MOL   C31240240   5.391   5.784   6.472 -0.2906  0.2105 -0.6700
  125MOL   H31340241   5.337   5.288   6.596  0.3071  0.9744 -0.6830
  125MOL   H31440242   5.232   5.363   6.708 -0.3031  0.5434  0.8861
  125MOL   H31540243   5.404   5.507   6.787 -0.1599 -0.5503  0.4038
  125MOL   H31640244   5.531   5.829   6.677  0.3540 -0.1344  0.0937
  125MOL   H31740245   5.491   5.705   6.787  2.7780 -1.2101 -0.0320
  125MOL   H31840246   5.610   5.672   6.658 -0.3579  0.8523 -2.2286
  125MOL   H31940247   5.496   5.789   6.441  0.6746 -0.7707  2.2073
  125MOL   H32040248   5.372   5.883   6.513  4.8131  1.0209  0.0658
  125MOL   H32140249   5.339   5.737   6.389  0.7283 -2.4750  0.1565
  125MOL   H32240250   5.519   5.449   6.666  0.2505 -0.9074  1.2903
  126MOL     C140251   6.830   5.293   0.383 -0.9394 -0.0766 -0.8637
  126MOL     C240252   6.834   5.450   0.395  0.6350  0.0828  0.2370
  126MOL     C340253   6.938   5.502   0.295 -0.2365  0.4160  0.1813
  126MOL     O440254   7.057   5.516   0.331 -0.5442 -0.0997 -0.5457
  126MOL     N540255   6.903   5.525   0.166  0.1272 -0.1228 -0.0917
  126MOL     C640256   6.787   5.455   0.104  0.0613  0.2169  0.5743
  126MOL     C740257   6.990   5.607   0.084 -0.6098 -0.0231 -0.5565
  126MOL     H840258   6.907   5.250   0.447 -1.9272  0.3073  0.5814
  126MOL     H940259   6.843   5.252   0.283  0.9058  1.6390 -1.3812
  126MOL    H1040260   6.733   5.483   0.373  1.0426  2.0950  1.2472
  126MOL    H1140261   6.823   5.362   0.061 -1.1848  0.2703 -0.6307
  126MOL    H1240262   6.710   5.427   0.176  0.4609  0.2308  1.0006
  126MOL    H1340263   6.750   5.510   0.017  0.8311 -0.8154 -0.4215
  126MOL    H1440264   7.022   5.702   0.129  1.4711 -0.3839 -1.2317
  126MOL    H1540265   6.930   5.658   0.009  0.7893 -0.5917 -2.0823
  126MOL    H1640266   7.071   5.551   0.038 -0.6445 -0.3065 -0.2752
  126MOL    H1740267   6.741   5.256   0.432 -1.0412  0.9845 -0.2315
  126MOL    C1840268   6.847   5.494   0.540 -0.7985  0.6401 -0.7785
  126MOL    C1940269   6.802   5.644   0.571  0.4056  0.1322  0.0722
  126MOL    C2040270   6.843   5.682   0.717  0.4582  0.1887 -0.2983
  126MOL    O2140271   6.850   5.593   0.803 -1.1142 -0.1294 -0.3276
  126MOL    N2240272   6.882   5.807   0.750 -0.0791 -0.6134 -0.0211
  126MOL    C2340273   6.852   5.927   0.672 -0.5231  0.2974  0.0835
  126MOL    C2440274   6.930   5.833   0.885  0.5609 -0.1571 -0.5456
  126MOL    H2540275   6.783   5.423   0.592  1.0812 -0.6689 -0.2201
  126MOL    H2640276   6.950   5.475   0.570 -1.2156  0.5061  0.6131
  126MOL    H2740277   6.867   5.713   0.517  1.4765 -2.2602 -1.8259
  126MOL    H2840278   6.924   6.006   0.692  0.8016 -0.6553 -0.8298
  126MOL    H2940279   6.868   5.914   0.565  0.0080  1.3966  0.0227
  126MOL    H3040280   6.751   5.964   0.690 -1.0604 -1.6564  1.2711
  126MOL    H3140281   7.002   5.756   0.915  2.3846  1.2536 -1.1787
  126MOL    H3240282   6.844   5.821   0.951 -0.4966  2.4532 -1.3931
  126MOL    H3340283   6.986   5.926   0.899  0.2677 -0.1399  0.6230
  126MOL    C3440284   6.656   5.678   0.536  0.5248  0.2878 -0.3414
  126MOL    C3540285   6.539   5.595   0.610 -0.0283  0.7822  0.0757
  126MOL    C3640286   6.487   5.477   0.527 -0.2499 -0.3029  0.2726
  126MOL    O3740287   6.461   5.501   0.410  0.4218  0.0001  0.4934
  126MOL    N3840288   6.452   5.360   0.580  0.1816  0.4258  0.0621
  126MOL    C3940289   6.471   5.319   0.719 -0.6800 -0.5024 -0.5456
  126MOL    C4040290   6.413   5.249   0.486  0.3357  0.1445 -0.4126
  126MOL    H4140291   6.642   5.786   0.538 -0.2454  0.1967 -0.4636
  126MOL    H4240292   6.643   5.666   0.429 -0.3517 -1.5403 -0.0519
  126MOL    H4340293   6.580   5.558   0.704 -2.7572 -0.9644  0.6201
  126MOL    H4440294   6.575   5.297   0.743 -0.4428  1.2453  0.0495
  126MOL    H4540295   6.427   5.401   0.774  0.5739 -0.1838 -0.0065
  126MOL    H4640296   6.412   5.231   0.747  1.3396 -0.8551  2.8316
  126MOL    H4740297   6.340   5.179   0.527 -1.3498  0.7583 -2.2863
  126MOL    H4840298   6.496   5.195   0.440  0.7875  0.8214 -0.3902
  126MOL    H4940299   6.356   5.289   0.402  2.4215  0.9882 -1.4679
  126MOL    C5040300   6.417   5.683   0.642 -0.0917 -0.4915 -1.0051
  126MOL    C5140301   6.421   5.792   0.755  0.1102 -0.0058  0.0530
  126MOL    C5240302   6.447   5.724   0.894 -0.0877  0.2339 -0.8772
  126MOL    O5340303   6.435   5.601   0.902 -0.3881  0.4124  0.1229
  126MOL    N5440304   6.502   5.786   0.999  0.0207 -0.1919  0.0409
  126MOL    C5540305   6.525   5.930   1.008  0.0725  0.1808  0.3434
  126MOL    C5640306   6.538   5.723   1.127 -0.1691  0.6150 -0.4377
  126MOL    H5740307   6.399   5.734   0.547 -0.8647 -1.4980 -1.4029
  126MOL    H5840308   6.326   5.624   0.651  0.3130 -1.1663 -1.2674
  126MOL    H5940309   6.492   5.872   0.734  0.2897  0.4067  2.1442
  126MOL    H6040310   6.592   5.955   0.926 -0.3551 -1.2808 -0.4783
  126MOL    H6140311   6.437   5.993   0.997  1.8749  2.4428 -1.8113
  126MOL    H6240312   6.582   5.962   1.096  1.8423 -2.2225  0.1256
  126MOL    H6340313   6.641   5.747   1.154 -0.7705 -1.2283  3.8174
  126MOL    H6440314   6.535   5.614   1.119  2.2299  0.4355  0.6363
  126MOL    H6540315   6.483   5.759   1.214 -0.8598 -2.5153  0.4819
  126MOL    C6640316   6.280   5.862   0.767 -0.4151 -0.8835 -0.3508
  126MOL    C6740317   6.234   5.931   0.640 -0.2218 -0.0813 -0.3728
  126MOL    C6840318   6.335   6.034   0.588  0.2668 -0.2565 -0.3558
  126MOL    O6940319   6.406   6.100   0.664  0.0986  0.2727  0.2516
  126MOL    N7040320   6.338   6.055   0.454  0.0190 -0.0560  0.1067
  126MOL    C7140321   6.246   5.997   0.356 -0.8766 -0.5944  0.4678
  126MOL    C7240322   6.418   6.165   0.397  0.1685  0.0097  0.9914
  126MOL    H7340323   6.212   5.784   0.801  0.3893 -1.0822  0.8369
  126MOL    H7440324   6.297   5.939   0.843  3.6949 -0.7852 -1.2389
  126MOL    H7540325   6.225   5.849   0.569 -1.6036 -1.1338  0.9851
  126MOL    H7640326   6.263   6.034   0.255  1.4605 -0.1461  1.0151
  126MOL    H7740327   6.242   5.888   0.358 -2.1392 -0.5710 -0.2702
  126MOL    H7840328   6.142   6.026   0.372 -0.1944  2.5679 -0.6455
  126MOL    H7940329   6.488   6.212   0.467 -2.4965 -0.5169  4.1596
  126MOL    H8040330   6.349   6.246   0.377  1.5996  0.4050 -2.5555
  126MOL    H8140331   6.477   6.137   0.310  0.3029  1.5029  0.5971
  126MOL    C8240332   6.089   5.988   0.651 -0.1962 -0.2283 -0.1558
  126MOL    C8340333   6.064   6.133   0.694 -0.3674  0.7934  0.2295
  126MOL    C8440334   6.126   6.153   0.843  0.2778 -0.1497  0.3065
  126MOL    O8540335   6.092   6.061   0.923  0.0661 -0.1176 -0.3445
  126MOL    N8640336   6.202   6.263   0.871  0.4656  0.4223 -0.0277
  126MOL    C8740337   6.247   6.293   1.011  0.4190 -0.3988 -0.3032
  126MOL    C8840338   6.229   6.375   0.781 -0.3358  0.4605  0.1000
  126MOL    H8940339   6.039   5.973   0.555 -1.1045  0.3142  0.2330
  126MOL    H9040340   6.032   5.919   0.712  0.7943 -1.2631 -0.3766
  126MOL    H9140341   6.115   6.204   0.628 -1.7068 -0.1739 -1.9071
  126MOL    H9240342   6.225   6.398   1.027 -1.4689 -0.2646 -3.4383
  126MOL    H9340343   6.204   6.228   1.087 -0.4854 -0.0799 -0.5447
  126MOL    H9440344   6.355   6.276   1.012  0.5659  0.3449 -1.5691
  126MOL    H9540345   6.260   6.469   0.827 -1.3609 -0.2386  2.2582
  126MOL    H9640346   6.145   6.399   0.716  0.1868  2.4329  0.1041
  126MOL    H9740347   6.317   6.357   0.718  0.5433 -0.4468  1.5613
  126MOL    C9840348   5.914   6.159   0.712  0.9265 -0.3523 -0.8121
  126MOL    C9940349   5.839   6.185   0.580  0.7073  0.5308  0.6745
  126MOL   C10040350   5.838   6.336   0.542  0.0564 -0.4734  0.5609
  126MOL   O10140351   5.783   6.420   0.621  0.1393 -0.3375  0.6157
  126MOL   N10240352   5.891   6.369   0.423 -0.2902 -0.6011 -0.1598
  126MOL   C10340353   5.819   6.479   0.349 -0.3663  0.1271  0.3288
  126MOL   C10440354   5.987   6.290   0.345 -0.0554  0.0400 -0.3286
  126MOL   H10540355   5.871   6.072   0.762 -0.1586 -0.4183 -1.8673
  126MOL   H10640356   5.886   6.238   0.782 -0.7244 -2.4819  1.0048
  126MOL   H10740357   5.875   6.125   0.496  1.3122  0.2979  1.0924
  126MOL   H10840358   5.866   6.500   0.252 -0.5947 -1.4574 -0.1448
  126MOL   H10940359   5.715   6.454   0.328 -1.0390  1.1516  2.2929
  126MOL   H11040360   5.812   6.569   0.411 -1.7727  0.3218 -0.0928
  126MOL   H11140361   5.950   6.193   0.312 -0.7740 -0.3514  1.5399
  126MOL   H11240362   6.080   6.279   0.401 -0.5509  2.0474  0.9544
  126MOL   H11340363   6.023   6.347   0.259 -1.1484  0.2506 -0.6664
  126MOL   C11440364   5.693   6.134   0.596  0.1232 -0.2450 -0.3600
  126MOL   C11540365   5.626   6.083   0.469 -0.3990  0.0488 -0.5097
  126MOL   C11640366   5.592   6.193   0.366  0.7564 -0.5013 -1.0005
  126MOL   O11740367   5.551   6.298   0.408  0.6384  0.5862 -0.6301
  126MOL   N11840368   5.612   6.177   0.233  0.2216 -0.3427  0.1928
  126MOL   C11940369   5.694   6.072   0.166 -0.6197 -0.0870  0.2433
  126MOL   C12040370   5.538   6.257   0.139 -0.1571 -0.0631  0.4085
  126MOL   H12140371   5.684   6.044   0.656 -0.5831  0.1078  0.0776
  126MOL   H12240372   5.640   6.207   0.658  1.6321  1.4120 -0.9833
  126MOL   H12340373   5.698   6.014   0.427  1.9818  2.9335 -1.3327
  126MOL   H12440374   5.651   5.973   0.156 -1.1062  0.2296 -0.8880
  126MOL   H12540375   5.739   6.109   0.074 -1.1467 -2.6250 -1.0902
  126MOL   H12640376   5.784   6.046   0.222 -0.3914 -2.2259 -1.0822
  126MOL   H12740377   5.539   6.365   0.152 -0.4802 -0.2621  2.1700
  126MOL   H12840378   5.435   6.223   0.153 -0.6420  0.2415 -2.0717
  126MOL   H12940379   5.570   6.245   0.035  0.1583 -2.6014  0.7618
  126MOL   C13040380   5.496   5.993   0.491  0.2750 -0.2443 -0.2084
  126MOL   C13140381   5.360   6.065   0.516  0.1380 -0.1689 -0.2099
  126MOL   C13240382   5.368   6.144   0.652 -0.2885 -0.0651 -0.0170
  126MOL   O13340383   5.403   6.077   0.750 -0.7313  0.6105 -0.3053
  126MOL   N13440384   5.317   6.270   0.660 -0.5042 -0.5223  0.1328
  126MOL   C13540385   5.253   6.348   0.554 -0.6960  0.4143 -0.5521
  126MOL   C13640386   5.329   6.336   0.791 -1.1823  0.3214 -0.0878
  126MOL   H13740387   5.500   5.937   0.397  0.7711  1.4591 -1.2308
  126MOL   H13840388   5.509   5.927   0.576 -0.1800 -0.5848 -0.3995
  126MOL   H13940389   5.343   6.128   0.428 -2.9468 -1.5730 -0.6966
  126MOL   H14040390   5.209   6.444   0.580 -1.0168  0.1181  0.0151
  126MOL   H14140391   5.327   6.388   0.485  0.7179  0.3232  0.8816
  126MOL   H14240392   5.181   6.295   0.492 -2.2897  1.2441  0.5538
  126MOL   H14340393   5.233   6.343   0.842  0.2627 -1.1165  2.9117
  126MOL   H14440394   5.369   6.438   0.788  1.3910 -0.6111  1.0492
  126MOL   H14540395   5.397   6.280   0.854 -0.6004  0.0204 -0.9716
  126MOL   C14640396   5.250   5.959   0.517  0.1604  0.2786 -0.2142
  126MOL   C14740397   5.198   5.903   0.382  0.0683  0.4083 -0.2230
  126MOL   C14840398   5.166   6.009   0.275  1.0377 -0.1519 -0.0583
  126MOL   O14940399   5.119   6.117   0.323  0.4852  0.3557 -0.1016
  126MOL   N15040400   5.195   5.996   0.148  0.3165  1.1947 -0.4910
  126MOL   C15140401   5.188   5.858   0.096  0.4362 -0.6316  0.2465
  126MOL   C15240402   5.189   6.110   0.059  0.1490  0.1381 -0.0057
  126MOL   H15340403   5.280   5.878   0.584  1.0237  1.1562  0.4826
  126MOL   H15440404   5.162   6.007   0.561  0.0440  0.7533 -0.9657
  126MOL   H15540405   5.261   5.825   0.339 -0.8359  1.1511 -2.9861
  126MOL   H15640406   5.088   5.814   0.108 -0.6177  0.8378 -2.7812
  126MOL   H15740407   5.212   5.859   7.843 -0.8756 -2.2711 -0.0864
  126MOL   H15840408   5.262   5.791   0.140  0.8619 -0.7624 -0.6772
  126MOL   H15940409   5.087   6.125   0.023  0.5764 -0.3864 -1.4284
  126MOL   H16040410   5.245   6.108   7.820 -1.8181 -0.0698 -1.2157
  126MOL   H16140411   5.219   6.199   0.115  3.4296  0.0639 -1.5159
  126MOL   C16240412   5.066   5.830   0.403 -0.0395  1.0489 -1.0401
  126MOL   C16340413   5.064   5.687   0.481  0.2913 -0.8402 -0.3130
  126MOL   C16440414   5.123   5.574   0.390 -0.5973  0.3684  0.5212
  126MOL   O16540415   5.101   5.584   0.269  0.4292  0.0762 -0.3508
  126MOL   N16640416   5.172   5.461   0.446  0.0046 -0.5020 -0.6298
  126MOL   C16740417   5.190   5.346   0.361  0.0386 -0.6110  0.4768
  126MOL   C16840418   5.183   5.439   0.590  0.0139 -0.0379  0.3051
  126MOL   H16940419   4.993   5.892   0.455 -1.8247 -0.8573 -1.2002
  126MOL   H17040420   5.018   5.810   0.307  0.0894  0.8930 -1.0721
  126MOL   H17140421   5.128   5.700   0.568  1.1386 -3.7954 -0.4311
  126MOL   H17240422   5.280   5.354   0.300 -1.3855  1.8685 -1.3801
  126MOL   H17340423   5.199   5.254   0.419  0.9025 -0.3656  0.7397
  126MOL   H17440424   5.103   5.333   0.297  0.4440  1.6391 -0.5800
  126MOL   H17540425   5.120   5.354   0.615 -2.1206  0.9217 -1.6397
  126MOL   H17640426   5.159   5.515   0.663 -0.9849  0.5609 -0.6391
  126MOL   H17740427   5.281   5.397   0.616  0.7279  0.1222 -2.0103
  126MOL   C17840428   4.924   5.651   0.526  0.6443  0.2731  0.1962
  126MOL   C17940429   4.882   5.700   0.663  0.2168  0.0757 -0.5487
  126MOL   C18040430   4.956   5.631   0.784 -0.5407  0.1953 -0.0875
  126MOL   O18140431   4.929   5.517   0.814 -0.1161  0.4231 -0.0661
  126MOL   N18240432   5.048   5.700   0.858 -0.2121 -0.0797 -0.3762
  126MOL   C18340433   5.130   5.633   0.956  0.1591  0.0334  0.7639
  126MOL   C18440434   5.063   5.846   0.852 -0.4089  0.0650 -0.1605
  126MOL   H18540435   4.858   5.689   0.448 -0.2459 -1.8913 -0.1231
  126MOL   H18640436   4.919   5.542   0.526  0.1357  0.2307 -3.1767
  126MOL   H18740437   4.906   5.806   0.660  1.1954 -0.1309 -0.1658
  126MOL   H18840438   5.215   5.698   0.979 -0.0377  0.4475  0.3297
  126MOL   H18940439   5.082   5.595   1.046 -2.2189  1.2374  0.0280
  126MOL   H19040440   5.185   5.552   0.908 -1.2114  0.7460 -2.0997
  126MOL   H19140441   5.146   5.884   0.912  0.5495  1.2393 -2.1782
  126MOL   H19240442   4.966   5.881   0.887 -1.6639 -0.7072 -2.8209
  126MOL   H19340443   5.077   5.892   0.754 -0.2620  0.7268  0.1686
  126MOL   C19440444   4.728   5.674   0.671  0.2992  0.2902 -0.7111
  126MOL   C19540445   4.654   5.746   0.784 -0.3229 -0.0384  0.3461
  126MOL   C19640446   4.560   5.642   0.846  0.8269 -0.0637  0.1325
  126MOL   O19740447   4.463   5.608   0.781  0.1387  0.1229 -0.7861
  126MOL   N19840448   4.585   5.590   0.970 -0.6140 -0.2231  0.1934
  126MOL   C19940449   4.690   5.633   1.056  0.1003 -0.4028  0.1515
  126MOL   C20040450   4.500   5.484   1.031 -0.0886  0.1338  0.5867
  126MOL   H20140451   4.691   5.705   0.573  1.0712  1.4673 -0.6318
  126MOL   H20240452   4.715   5.566   0.683  2.6819  0.3919  3.9602
  126MOL   H20340453   4.724   5.782   0.859 -0.5279 -0.0679  0.5509
  126MOL   H20440454   4.788   5.644   1.009  0.6979 -1.8480  1.0046
  126MOL   H20540455   4.655   5.725   1.103  1.4997 -0.8100  2.0913
  126MOL   H20640456   4.701   5.560   1.136  0.4333 -0.2787  0.2229
  126MOL   H20740457   4.451   5.508   1.125 -2.1039  1.4503 -0.7607
  126MOL   H20840458   4.570   5.401   1.045  0.7011  0.9839  1.7461
  126MOL   H20940459   4.419   5.442   0.971 -0.9146  2.6238 -0.0778
  126MOL   C21040460   4.575   5.869   0.737 -0.3185 -0.1544 -0.9232
  126MOL   C21140461   4.655   5.991   0.701 -0.1665  0.0902  0.3019
  126MOL   C21240462   4.737   6.052   0.821 -0.1236 -0.0122  0.1343
  126MOL   O21340463   4.696   6.038   0.935 -0.2005 -0.0652  0.0485
  126MOL   N21440464   4.861   6.109   0.800 -0.1730 -0.4674 -0.1203
  126MOL   C21540465   4.942   6.176   0.911 -0.5973  0.1923  0.4902
  126MOL   C21640466   4.918   6.134   0.668  0.0316  0.0514 -0.3952
  126MOL   H21740467   4.510   5.836   0.657 -1.3518 -0.5281  0.0562
  126MOL   H21840468   4.518   5.894   0.827  1.3984  3.5529 -0.7668
  126MOL   H21940469   4.713   5.964   0.613 -2.0091 -0.1663 -0.8482
  126MOL   H22040470   4.907   6.158   1.013  2.6203  1.3140  1.8380
  126MOL   H22140471   5.045   6.141   0.907 -1.3616 -2.7251  3.5700
  126MOL   H22240472   4.954   6.284   0.906 -0.2600  0.2690  2.4594
  126MOL   H22340473   5.025   6.146   0.684  0.0851 -0.5290 -0.2980
  126MOL   H22440474   4.885   6.234   0.641  1.8664 -0.1044 -3.4609
  126MOL   H22540475   4.902   6.069   0.583 -1.7787 -0.3507  0.2280
  126MOL   C22640476   4.561   6.095   0.636 -0.0575 -0.1510 -0.0985
  126MOL   C22740477   4.428   6.143   0.702  0.6578 -0.0773 -0.3356
  126MOL   C22840478   4.309   6.057   0.661 -0.2031  0.6161 -0.5022
  126MOL   O22940479   4.295   6.037   0.545  0.4136 -0.4124  0.4498
  126MOL   N23040480   4.231   6.007   0.762  0.0917 -0.1023  0.0723
  126MOL   C23140481   4.228   6.033   0.909 -0.8329 -0.3182  0.2587
  126MOL   C23240482   4.164   5.880   0.723 -0.1983  0.2250 -0.4537
  126MOL   H23340483   4.626   6.181   0.625  0.8681 -0.8918 -0.5639
  126MOL   H23440484   4.532   6.061   0.536 -1.1641 -2.0587  0.8309
  126MOL   H23540485   4.434   6.130   0.810 -0.4325  0.1792 -0.2435
  126MOL   H23640486   4.314   5.995   0.965 -0.9643 -0.5886  0.2791
  126MOL   H23740487   4.218   6.141   0.917 -0.3584 -0.2908  0.5063
  126MOL   H23840488   4.142   5.990   0.959  0.2791 -3.2843 -0.2533
  126MOL   H23940489   4.131   5.877   0.620 -3.0870  1.6951  0.3908
  126MOL   H24040490   4.084   5.852   0.792 -0.0920 -1.2574 -0.9112
  126MOL   H24140491   4.232   5.794   0.724  0.5112  0.7601  1.5680
  126MOL   C24240492   4.400   6.295   0.668 -1.0868  0.0890 -0.1056
  126MOL   C24340493   4.493   6.389   0.745 -0.3304 -0.4544  0.1743
  126MOL   C24440494   4.424   6.439   0.868 -0.3816 -0.8647 -0.2655
  126MOL   O24540495   4.319   6.496   0.853  0.0154  0.0616 -0.0674
  126MOL   N24640496   4.481   6.433   0.986 -0.2040  0.0769  0.0372
  126MOL   C24740497   4.419   6.504   1.101  0.1134  0.2864 -0.7213
  126MOL   C24840498   4.595   6.345   1.021 -0.3893  0.2747 -0.1138
  126MOL   H24940499   4.421   6.304   0.561 -0.7064  0.2668 -0.0177
  126MOL   H25040500   4.293   6.310   0.676 -1.0374 -0.9888  3.8455
  126MOL   H25140501   4.584   6.336   0.771 -0.4222 -0.3863  0.6363
  126MOL   H25240502   4.459   6.467   1.195  0.3643  0.9948 -0.5419
  126MOL   H25340503   4.447   6.609   1.105  0.0475  0.2367  1.8503
  126MOL   H25440504   4.311   6.504   1.112  0.1475  2.3461 -0.1022
  126MOL   H25540505   4.634   6.344   1.123  0.8482  0.1071 -0.5741
  126MOL   H25640506   4.681   6.379   0.964 -0.8967 -1.1183 -1.7275
  126MOL   H25740507   4.570   6.245   0.986 -1.9191  1.2308 -1.8175
  126MOL   C25840508   4.528   6.510   0.656 -0.0419  0.5825 -0.1595
  126MOL   C25940509   4.618   6.621   0.717 -0.0713 -0.0116 -0.3344
  126MOL   C26040510   4.604   6.751   0.641  0.7348 -0.0695  0.3367
  126MOL   O26140511   4.698   6.790   0.567 -0.3209 -0.2453 -0.1714
  126MOL   N26240512   4.500   6.832   0.673  0.3399 -0.1459 -0.4271
  126MOL   C26340513   4.379   6.801   0.751 -0.7513 -0.3686  0.3219
  126MOL   C26440514   4.496   6.968   0.619 -0.5928  0.6747  0.4926
  126MOL   H26540515   4.586   6.470   0.572 -1.8002 -2.9553  0.1972
  126MOL   H26640516   4.431   6.540   0.616 -0.9005 -1.3214  0.4160
  126MOL   H26740517   4.575   6.645   0.814 -0.4879  2.8069 -1.1575
  126MOL   H26840518   4.387   6.757   0.851 -0.7588 -1.5258 -0.1723
  126MOL   H26940519   4.330   6.895   0.772  1.6639  1.0015  0.0281
  126MOL   H27040520   4.316   6.733   0.694 -1.1143  0.3422 -0.1208
  126MOL   H27140521   4.457   6.976   0.518  3.2787 -0.8593 -1.2258
  126MOL   H27240522   4.596   7.010   0.610 -1.5631  2.4697 -2.2222
  126MOL   H27340523   4.446   7.030   0.693 -1.6034 -0.9773  1.2346
  126MOL   C27440524   4.768   6.579   0.720  0.0909  0.8423 -0.0814
  126MOL   C27540525   4.863   6.657   0.812  0.0792  0.5429 -0.3225
  126MOL   C27640526   5.015   6.631   0.782 -0.7471 -0.2079  0.3879
  126MOL   O27740527   5.049   6.516   0.758  0.2355 -0.4498 -0.1979
  126MOL   N27840528   5.104   6.731   0.767 -0.3171 -0.0041 -0.2385
  126MOL   C27940529   5.247   6.710   0.784  0.4631 -0.3301  0.0270
  126MOL   C28040530   5.070   6.876   0.753  0.0718 -0.0672 -0.2189
  126MOL   H28140531   4.768   6.477   0.756  0.1624  0.8354 -0.1023
  126MOL   H28240532   4.806   6.569   0.618 -0.1711  2.7294 -0.3944
  126MOL   H28340533   4.840   6.762   0.795 -0.7968  0.4693  0.3726
  126MOL   H28440534   5.262   6.619   0.843  0.1997  0.1337  0.8095
  126MOL   H28540535   5.291   6.695   0.685  1.3447  1.5602  0.1048
  126MOL   H28640536   5.295   6.794   0.835 -2.3403 -0.5919  3.2983
  126MOL   H28740537   5.072   6.918   0.853 -1.7301 -1.4696  0.4200
  126MOL   H28840538   4.969   6.908   0.727  0.2955 -0.0754 -1.1314
  126MOL   H28940539   5.136   6.915   0.675  2.4936 -1.8815  0.8345
  126MOL   C29040540   4.831   6.624   0.965 -0.0804  0.4382  0.0419
  126MOL   C29140541   4.823   6.750   1.057 -0.0216 -0.2920 -0.0956
  126MOL   C29240542   4.801   6.696   1.204 -0.0817  0.2688 -0.0574
  126MOL   O29340543   4.734   6.595   1.219  0.4082  0.5740  0.1825
  126MOL   N29440544   4.845   6.766   1.314 -0.7763 -0.9383  0.2011
  126MOL   C29540545   4.774   6.757   1.438 -0.3085  0.3714 -0.2609
  126MOL   C29640546   4.953   6.865   1.320 -0.4171 -0.3592 -0.3151
  126MOL   H29740547   4.733   6.580   0.983  1.3882 -1.9877  2.6412
  126MOL   H29840548   4.902   6.555   1.011  0.2344  0.1039 -0.9486
  126MOL   H29940549   4.910   6.814   1.041 -1.1517  1.0860 -0.8743
  126MOL   H30040550   4.846   6.772   1.519 -1.0804  0.6032  0.3917
  126MOL   H30140551   4.710   6.845   1.448 -2.1040 -0.7571 -1.6288
  126MOL   H30240552   4.721   6.663   1.444  1.7995 -0.8831 -0.8047
  126MOL   H30340553   5.002   6.882   1.416 -2.9820 -0.1676  0.9869
  126MOL   H30440554   4.916   6.955   1.270 -1.5551 -0.8061 -0.2951
  126MOL   H30540555   5.036   6.842   1.253  0.0527 -0.1480  0.1962
  126MOL   C30640556   4.701   6.838   1.021 -0.1513  0.3635 -0.1421
  126MOL   C30740557   4.692   6.981   1.074  0.0480 -0.8848 -0.7453
  126MOL   C30840558   4.792   7.082   1.016  0.3841  0.6726 -0.2384
  126MOL   O30940559   4.908   7.073   1.051 -0.2708 -0.5740 -0.1968
  126MOL   N31040560   4.743   7.180   0.927 -0.2636  1.0977 -0.4303
  126MOL   C31140561   4.607   7.200   0.871  0.1193  0.3751  0.3034
  126MOL   C31240562   4.841   7.285   0.890 -0.7594 -0.5057 -1.1275
  126MOL   H31340563   4.665   6.839   0.918 -0.9521 -1.0132  0.1166
  126MOL   H31440564   4.620   6.782   1.068 -0.0109  1.1637  1.0755
  126MOL   H31540565   4.594   7.027   1.057  0.8781  1.7370  1.2595
  126MOL   H31640566   4.539   7.117   0.887  0.7899 -0.3214 -0.3979
  126MOL   H31740567   4.545   7.270   0.926  0.3290  0.2366  0.7123
  126MOL   H31840568   4.621   7.221   0.764  0.7281  3.6545  0.9598
  126MOL   H31940569   4.798   7.371   0.839 -0.1311  0.5705  0.1412
  126MOL   H32040570   4.917   7.254   0.818  1.2241 -1.3586  1.2522
  126MOL   H32140571   4.901   7.323   0.972 -2.2703  1.5089 -0.9172
  126MOL   H32240572   4.698   6.970   1.182 -1.4999 -0.2084 -0.5723
  127MOL     C140573   3.580   4.254   1.482 -0.4230  0.2340 -0.5133
  127MOL     C240574   3.439   4.201   1.482 -0.4674 -0.0584  0.9275
  127MOL     C340575   3.379   4.181   1.628 -0.6815 -0.2917  1.0774
  127MOL     O440576   3.423   4.090   1.691 -0.0137  0.2411 -0.4286
  127MOL     N540577   3.284   4.260   1.684  0.0215 -0.7211 -0.1091
  127MOL     C640578   3.212   4.217   1.805 -0.8146 -0.5680  0.5812
  127MOL     C740579   3.230   4.381   1.615 -0.3134  0.7670  0.3578
  127MOL     H840580   3.616   4.235   1.381  1.8790  1.8987 -0.0332
  127MOL     H940581   3.635   4.198   1.558 -0.8027 -0.7006 -0.9087
  127MOL    H1040582   3.386   4.283   1.434 -1.2149 -1.2757 -0.3676
  127MOL    H1140583   3.208   4.298   1.877  2.7722 -0.2795  0.5411
  127MOL    H1240584   3.114   4.181   1.771 -0.1399 -0.4769 -1.4950
  127MOL    H1340585   3.256   4.130   1.853 -2.0421 -1.9685 -0.7442
  127MOL    H1440586   3.292   4.469   1.633  3.2924 -0.7761 -3.5855
  127MOL    H1540587   3.126   4.401   1.640 -0.2657 -0.1593  1.2987
  127MOL    H1640588   3.214   4.369   1.507  0.6576  0.3693  0.2533
  127MOL    H1740589   3.583   4.361   1.502  1.2420  0.0734  0.1411
  127MOL    C1840590   3.420   4.075   1.392  0.9538 -0.1494 -0.1732
  127MOL    C1940591   3.278   4.004   1.385 -0.6620 -0.1879 -0.0065
  127MOL    C2040592   3.312   3.859   1.347  0.0949  0.3868 -0.0635
  127MOL    O2140593   3.364   3.831   1.237  0.5105  0.1326 -0.0573
  127MOL    N2240594   3.265   3.762   1.428 -0.7200 -0.1695  0.3608
  127MOL    C2340595   3.225   3.771   1.570 -1.0008 -0.0859  0.4259
  127MOL    C2440596   3.272   3.622   1.379 -0.6617  0.9356  0.3616
  127MOL    H2540597   3.470   4.080   1.296 -0.5049 -1.5787 -1.0423
  127MOL    H2640598   3.488   4.002   1.436 -0.9188 -1.9846 -0.2404
  127MOL    H2740599   3.245   4.009   1.489 -2.4184 -0.6448 -0.5251
  127MOL    H2840600   3.230   3.680   1.630 -1.4484 -0.2044  0.2836
  127MOL    H2940601   3.282   3.850   1.619 -1.4251  0.0009  0.7827
  127MOL    H3040602   3.125   3.813   1.581 -0.8787  0.0571  1.0197
  127MOL    H3140603   3.231   3.543   1.442  4.0867 -0.7536  1.4982
  127MOL    H3240604   3.374   3.597   1.350 -0.4139  1.3105  0.8944
  127MOL    H3340605   3.220   3.609   1.284 -0.0719 -3.9236  0.5787
  127MOL    C3440606   3.178   4.075   1.288  0.1924 -0.1955 -0.3619
  127MOL    C3540607   3.024   4.038   1.315 -0.0682 -0.0728 -0.0173
  127MOL    C3640608   2.945   4.072   1.186  0.0083  0.5721 -0.0825
  127MOL    O3740609   2.890   4.180   1.179  0.3079  0.4990  0.5924
  127MOL    N3840610   2.933   3.984   1.088 -0.3598  0.9130  0.2883
  127MOL    C3940611   2.862   4.007   0.964 -0.5702 -0.4323  0.0735
  127MOL    C4040612   2.978   3.843   1.101 -0.4051 -0.2854  0.3080
  127MOL    H4140613   3.185   4.183   1.296  0.5436 -0.2967  0.8250
  127MOL    H4240614   3.209   4.060   1.185 -1.5560  1.3121 -1.1292
  127MOL    H4340615   3.019   3.929   1.317 -0.4548 -0.0474  0.5665
  127MOL    H4440616   2.804   3.922   0.928  0.4221 -1.3531  0.5929
  127MOL    H4540617   2.789   4.088   0.966  1.0391  1.0661 -0.5216
  127MOL    H4640618   2.930   4.029   0.882  0.7273 -2.8717  0.4599
  127MOL    H4740619   3.083   3.859   1.129 -0.3373  0.3016 -0.2770
  127MOL    H4840620   2.968   3.784   1.010  3.6637 -0.2945 -0.2714
  127MOL    H4940621   2.924   3.801   1.185  1.3658 -0.7830  1.2334
  127MOL    C5040622   2.971   4.119   1.442 -0.6490 -0.0119 -0.0721
  127MOL    C5140623   2.828   4.070   1.483  0.2108  0.4578  0.4142
  127MOL    C5240624   2.733   4.188   1.508  0.1797  0.1827  0.5021
  127MOL    O5340625   2.777   4.275   1.586 -0.0909  0.0593 -0.4894
  127MOL    N5440626   2.609   4.184   1.458  1.0825  0.0128  0.8866
  127MOL    C5540627   2.498   4.259   1.515 -0.1318 -0.2821 -0.7062
  127MOL    C5640628   2.568   4.118   1.334 -0.0489  0.1038 -0.2100
  127MOL    H5740629   3.043   4.102   1.522 -0.6279  0.6470  0.0540
  127MOL    H5840630   2.968   4.224   1.412 -1.7170  0.5777  1.9657
  127MOL    H5940631   2.790   4.015   1.397 -1.1080 -0.0054  1.2775
  127MOL    H6040632   2.514   4.282   1.620 -3.1153 -2.6270  0.3197
  127MOL    H6140633   2.480   4.357   1.471 -1.9670  0.3716  1.4719
  127MOL    H6240634   2.409   4.197   1.511 -0.4651  0.1070  0.4660
  127MOL    H6340635   2.494   4.177   1.279 -0.9586  0.5324  1.4281
  127MOL    H6440636   2.511   4.029   1.359  1.4700 -0.7005  0.4158
  127MOL    H6540637   2.646   4.085   1.266 -0.6342  0.5776 -1.1265
  127MOL    C6640638   2.835   3.976   1.612 -0.6017 -1.0545 -0.4478
  127MOL    C6740639   2.746   3.853   1.588 -0.7616 -0.0205 -0.0797
  127MOL    C6840640   2.703   3.793   1.730 -0.1438 -0.9098  0.2787
  127MOL    O6940641   2.780   3.715   1.791 -0.5676  0.2826  0.3738
  127MOL    N7040642   2.576   3.826   1.768  0.7345  0.2439 -0.8146
  127MOL    C7140643   2.506   3.943   1.728 -0.4473 -0.1283  0.9530
  127MOL    C7240644   2.512   3.741   1.863 -0.0347 -0.6099 -0.4626
  127MOL    H7340645   2.939   3.943   1.614 -1.6615 -4.7607 -1.5195
  127MOL    H7440646   2.820   4.029   1.705 -1.5891  0.1560 -1.2798
  127MOL    H7540647   2.659   3.880   1.529  0.3229 -0.4324 -1.8901
  127MOL    H7640648   2.469   3.933   1.626 -1.8106  0.2592  1.4089
  127MOL    H7740649   2.425   3.968   1.796  0.6303  3.4661  1.0275
  127MOL    H7840650   2.575   4.028   1.723 -1.1690  0.4673  1.0959
  127MOL    H7940651   2.470   3.798   1.946  0.6544 -3.1072  1.6554
  127MOL    H8040652   2.575   3.661   1.901  0.0143 -0.3727 -0.0475
  127MOL    H8140653   2.426   3.692   1.817 -0.2420 -0.3455 -0.3656
  127MOL    C8240654   2.830   3.750   1.505 -0.2604  0.9979 -0.1523
  127MOL    C8340655   2.751   3.628   1.442  0.3625  0.6077 -0.8704
  127MOL    C8440656   2.847   3.505   1.449 -0.3916 -0.0234  0.7155
  127MOL    O8540657   2.938   3.496   1.369  0.3489  0.3219 -0.4239
  127MOL    N8640658   2.828   3.404   1.537 -0.0795 -0.1262 -0.1750
  127MOL    C8740659   2.724   3.402   1.640  0.6182  0.2043  0.4598
  127MOL    C8840660   2.910   3.278   1.531  0.2545 -0.9923  0.5065
  127MOL    H8940661   2.894   3.790   1.426  1.4933 -1.5432 -0.0769
  127MOL    H9040662   2.913   3.718   1.569  0.2084  3.2876  0.4435
  127MOL    H9140663   2.671   3.606   1.512  1.7955  0.4545  0.7708
  127MOL    H9240664   2.623   3.404   1.599  0.7188 -2.1273  0.0096
  127MOL    H9340665   2.732   3.317   1.707 -0.2278  0.9161  1.4969
  127MOL    H9440666   2.732   3.492   1.701 -0.6055 -0.1853  1.2239
  127MOL    H9540667   3.017   3.291   1.513 -0.0935  0.7728 -0.4454
  127MOL    H9640668   2.867   3.225   1.446  0.4498 -0.0973 -0.1556
  127MOL    H9740669   2.908   3.206   1.612 -0.0833  0.1247  1.4945
  127MOL    C9840670   2.699   3.665   1.302 -0.7206 -0.3051  0.2442
  127MOL    C9940671   2.562   3.617   1.266  0.7737  0.3277 -0.0350
  127MOL   C10040672   2.453   3.700   1.344  0.1847 -0.6596 -0.1376
  127MOL   O10140673   2.433   3.693   1.473 -0.2277 -0.0818  0.9944
  127MOL   N10240674   2.371   3.789   1.271 -0.2077 -0.5500  0.3010
  127MOL   C10340675   2.278   3.877   1.337  0.5802  0.1129  0.5558
  127MOL   C10440676   2.367   3.793   1.122 -0.3409  0.1678  0.1342
  127MOL   H10540677   2.691   3.774   1.294  1.2493 -0.1496 -0.0508
  127MOL   H10640678   2.775   3.645   1.226  0.1962  2.3474  0.4078
  127MOL   H10740679   2.553   3.623   1.158 -0.5876 -3.9663 -0.2522
  127MOL   H10840680   2.312   3.899   1.439  1.6793 -0.7856  0.3824
  127MOL   H10940681   2.254   3.972   1.289 -0.6892  0.5090  1.9389
  127MOL   H11040682   2.184   3.823   1.349 -0.2821  1.9656  2.6117
  127MOL   H11140683   2.290   3.857   1.079  0.2529  1.6238  1.1821
  127MOL   H11240684   2.365   3.700   1.067  2.0579  0.0379  0.2274
  127MOL   H11340685   2.452   3.849   1.083  0.1151 -0.6861 -0.0887
  127MOL   C11440686   2.527   3.474   1.284 -0.3816  0.3440  0.0931
  127MOL   C11540687   2.412   3.416   1.199 -0.0989 -0.7015 -0.2314
  127MOL   C11640688   2.267   3.450   1.249 -0.1824 -0.0466 -0.5855
  127MOL   O11740689   2.252   3.445   1.372 -0.0148  0.5016 -0.1481
  127MOL   N11840690   2.164   3.490   1.169  0.4535 -0.3074  0.2487
  127MOL   C11940691   2.168   3.468   1.021  0.1291  0.7767  0.1610
  127MOL   C12040692   2.033   3.545   1.211  0.9884 -0.0987 -0.6043
  127MOL   H12140693   2.619   3.418   1.271 -0.1578  1.0745 -1.6031
  127MOL   H12240694   2.513   3.437   1.386  1.8285  0.5083  0.4779
  127MOL   H12340695   2.435   3.457   1.101  3.0582  1.8483  1.4896
  127MOL   H12440696   2.258   3.414   0.993 -0.1147  1.3796 -1.8866
  127MOL   H12540697   2.083   3.411   0.981  1.5439 -0.7059 -0.7974
  127MOL   H12640698   2.168   3.567   0.976 -0.1288  0.8062  0.2242
  127MOL   H12740699   2.033   3.653   1.196 -0.5187  0.1890  1.2142
  127MOL   H12840700   2.030   3.528   1.319  1.1305 -1.0256 -0.7482
  127MOL   H12940701   1.950   3.493   1.163  1.1660  0.2703 -1.3127
  127MOL   C13040702   2.425   3.268   1.158  0.1851  0.9446  0.5927
  127MOL   C13140703   2.367   3.150   1.248  0.0910 -0.5539 -0.3122
  127MOL   C13240704   2.444   3.142   1.380  0.3148 -0.3892 -0.3623
  127MOL   O13340705   2.563   3.164   1.378  0.5030  0.4661  0.4006
  127MOL   N13440706   2.384   3.118   1.496  0.2210  0.2113 -0.4396
  127MOL   C13540707   2.246   3.080   1.501  0.0189  0.0845 -0.3120
  127MOL   C13640708   2.452   3.132   1.624  0.2335  0.1800 -0.1032
  127MOL   H13740709   2.368   3.249   1.067  0.5834 -1.0168  0.7503
  127MOL   H13840710   2.527   3.245   1.127 -0.0178  0.4819  0.2656
  127MOL   H13940711   2.265   3.172   1.279 -0.3810 -1.5646 -1.0967
  127MOL   H14040712   2.184   3.167   1.480 -2.2347 -1.2900  0.5054
  127MOL   H14140713   2.215   2.999   1.435 -1.7228 -0.1594  0.7816
  127MOL   H14240714   2.223   3.037   1.598  2.3706 -1.1454 -0.2581
  127MOL   H14340715   2.559   3.148   1.607  0.1813  1.1975  0.4919
  127MOL   H14440716   2.438   3.054   1.699  1.1973  2.0002  2.0373
  127MOL   H14540717   2.414   3.219   1.677 -0.8711 -0.5271  0.2819
  127MOL   C14640718   2.376   3.010   1.173  0.9114  0.2603 -0.2700
  127MOL   C14740719   2.301   2.990   1.034 -0.2616  0.4803  0.4130
  127MOL   C14840720   2.151   3.024   1.048 -0.4825  0.5468  1.0763
  127MOL   O14940721   2.101   2.993   1.161  0.3221  0.0266 -0.3828
  127MOL   N15040722   2.080   3.094   0.958  0.3612  0.1489 -0.1097
  127MOL   C15140723   1.946   3.151   0.995  0.0049  0.3008 -0.3453
  127MOL   C15240724   2.128   3.148   0.830  0.1865  0.2675 -0.0734
  127MOL   H15340725   2.478   2.974   1.167  0.5164 -0.7676 -1.0043
  127MOL   H15440726   2.338   2.940   1.247  3.1588  0.4388  1.1123
  127MOL   H15540727   2.350   3.063   0.970 -0.6906  1.3633  1.0920
  127MOL   H15640728   1.937   3.259   1.009  3.7575  0.7328 -0.6677
  127MOL   H15740729   1.882   3.134   0.908 -0.4832  1.4944 -0.2210
  127MOL   H15840730   1.894   3.097   1.074  1.7202  0.1850  0.7277
  127MOL   H15940731   2.236   3.136   0.821  0.4777  1.6929  1.1653
  127MOL   H16040732   2.098   3.252   0.839 -2.3969 -0.5153  0.9094
  127MOL   H16140733   2.084   3.105   0.740 -1.2814 -0.5869  1.0285
  127MOL   C16240734   2.321   2.846   0.987 -0.5917 -0.4627  0.4321
  127MOL   C16340735   2.398   2.827   0.853 -0.0979  0.4073 -0.0337
  127MOL   C16440736   2.540   2.882   0.862 -0.6207 -0.4245  0.3630
  127MOL   O16540737   2.556   3.000   0.826 -0.2839  0.6476 -0.1831
  127MOL   N16640738   2.643   2.799   0.896  0.0470  0.5770 -0.3782
  127MOL   C16740739   2.621   2.659   0.925 -0.3853 -0.3691  0.5804
  127MOL   C16840740   2.778   2.846   0.900 -0.3758  0.0633 -0.7882
  127MOL   H16940741   2.361   2.783   1.066  1.0400 -0.3632 -0.2907
  127MOL   H17040742   2.223   2.801   0.969 -0.6531 -0.2755  0.2980
  127MOL   H17140743   2.395   2.720   0.836  1.0593  0.3962 -0.2413
  127MOL   H17240744   2.584   2.610   0.835  0.9220 -0.0291 -0.1513
  127MOL   H17340745   2.712   2.607   0.952  1.8664  2.6731 -0.8708
  127MOL   H17440746   2.554   2.643   1.010  0.4008 -3.0114  0.7300
  127MOL   H17540747   2.785   2.909   0.989 -3.0651  0.3593 -0.7494
  127MOL   H17640748   2.821   2.901   0.817  0.2991  2.6813  1.2259
  127MOL   H17740749   2.853   2.773   0.930  0.2805  1.4065  0.9817
  127MOL   C17840750   2.313   2.873   0.732  0.5329 -0.4367  0.1526
  127MOL   C17940751   2.353   2.800   0.602  0.0719  0.2566  0.3762
  127MOL   C18040752   2.379   2.907   0.488 -0.0511  0.6589 -0.2230
  127MOL   O18140753   2.300   3.004   0.477  0.8559 -0.0846 -0.0014
  127MOL   N18240754   2.486   2.895   0.408 -0.6172 -0.1358 -0.2274
  127MOL   C18340755   2.534   3.009   0.339  0.3758 -0.5009  0.3935
  127MOL   C18440756   2.576   2.784   0.404  0.3378  0.1108  0.7401
  127MOL   H18540757   2.205   2.869   0.748  0.5002  0.2367  0.1001
  127MOL   H18640758   2.342   2.975   0.711 -1.7448  0.2254  0.0780
  127MOL   H18740759   2.447   2.753   0.632  0.5784  0.3118 -1.0874
  127MOL   H18840760   2.603   2.981   0.260 -0.3446  1.2643 -0.9090
  127MOL   H18940761   2.451   3.066   0.296  0.7355 -1.0083 -0.9810
  127MOL   H19040762   2.593   3.076   0.402  1.1900 -1.2393  0.4250
  127MOL   H19140763   2.527   2.690   0.429 -0.9569  0.2805 -1.0583
  127MOL   H19240764   2.657   2.802   0.475  0.6418 -0.0414  0.4348
  127MOL   H19340765   2.615   2.773   0.303  0.1974  2.2641  0.4449
  127MOL   C19440766   2.267   2.681   0.555 -0.0212  0.2781  0.5540
  127MOL   C19540767   2.127   2.701   0.498  0.0373 -0.3503  0.1379
  127MOL   C19640768   2.018   2.766   0.589  0.5262  0.1191  0.2525
  127MOL   O19740769   2.010   2.715   0.699  0.4958  0.5603  0.6841
  127MOL   N19840770   1.941   2.867   0.546  0.5266 -0.0446 -0.0058
  127MOL   C19940771   1.833   2.921   0.629  0.5324  0.1532 -0.3991
  127MOL   C20040772   1.930   2.913   0.406 -0.7287 -0.2473 -0.7974
  127MOL   H20140773   2.322   2.629   0.476 -0.5454 -1.8028  1.5183
  127MOL   H20240774   2.257   2.611   0.637 -1.0268  1.0763  1.1221
  127MOL   H20340775   2.145   2.756   0.406 -1.4431 -3.0462 -1.8279
  127MOL   H20440776   1.868   2.947   0.729 -1.4784  0.5494  0.2131
  127MOL   H20540777   1.773   2.996   0.577  0.2771 -0.6633 -1.2911
  127MOL   H20640778   1.766   2.837   0.641  0.4438  0.4996  1.7972
  127MOL   H20740779   2.014   2.981   0.390  1.4022 -2.6663 -0.3185
  127MOL   H20840780   1.838   2.965   0.381  0.5262  3.2467  1.4063
  127MOL   H20940781   1.943   2.822   0.347  0.5004 -0.2746 -0.5020
  127MOL   C21040782   2.069   2.575   0.421  0.2614  0.0692 -0.6879
  127MOL   C21140783   2.011   2.451   0.492  0.2735 -0.4535  0.2035
  127MOL   C21240784   2.121   2.339   0.503 -0.0131 -0.3738  0.5134
  127MOL   O21340785   2.162   2.282   0.402  0.1622  0.1230 -0.9188
  127MOL   N21440786   2.151   2.301   0.630 -0.4473  0.1641 -0.1607
  127MOL   C21540787   2.275   2.227   0.665  0.1913 -0.4189 -0.2050
  127MOL   C21640788   2.089   2.347   0.752  1.0617  0.2669 -0.0180
  127MOL   H21740789   1.990   2.624   0.364 -0.1387 -0.6425 -0.7485
  127MOL   H21840790   2.144   2.546   0.348 -0.2642  0.2881 -1.3204
  127MOL   H21940791   1.968   2.484   0.586 -2.0744  0.3204 -1.0838
  127MOL   H22040792   2.291   2.149   0.591 -0.0073  1.7813 -2.6502
  127MOL   H22140793   2.350   2.305   0.648 -2.5602  1.9589 -1.8896
  127MOL   H22240794   2.285   2.193   0.768  0.1482  0.9405  0.2714
  127MOL   H22340795   1.981   2.331   0.747  1.0714 -0.1825  1.0299
  127MOL   H22440796   2.104   2.453   0.769  0.5739 -0.0278  2.4880
  127MOL   H22540797   2.115   2.293   0.843 -2.8410 -1.9260 -0.0837
  127MOL   C22640798   1.888   2.406   0.410 -0.2417 -0.4680 -0.4888
  127MOL   C22740799   1.831   2.257   0.421  0.6243 -0.2791  0.4739
  127MOL   C22840800   1.710   2.257   0.320 -1.0070  0.1906 -0.4611
  127MOL   O22940801   1.630   2.347   0.332 -0.3698  0.1065 -0.1441
  127MOL   N23040802   1.702   2.160   0.223 -0.4173 -0.4763  0.2132
  127MOL   C23140803   1.578   2.141   0.147  0.2073 -0.1615  0.3307
  127MOL   C23240804   1.819   2.078   0.171  0.9076  0.5836  0.3934
  127MOL   H23340805   1.807   2.476   0.430  0.5654  0.6848 -1.2491
  127MOL   H23440806   1.920   2.419   0.306 -2.4974  1.5397 -0.9606
  127MOL   H23540807   1.918   2.199   0.391  0.0380 -0.4375 -0.9358
  127MOL   H23640808   1.552   2.236   0.101  0.9507  0.8460  1.9683
  127MOL   H23740809   1.585   2.069   0.065  0.2055  1.4413 -1.1039
  127MOL   H23840810   1.494   2.108   0.209  0.6821  0.7284  1.4706
  127MOL   H23940811   1.823   2.058   0.064  2.9896 -1.6615  0.8323
  127MOL   H24040812   1.822   1.975   0.208 -0.9934  0.4401  0.1833
  127MOL   H24140813   1.915   2.129   0.181  0.6820  0.9111  0.8992
  127MOL   C24240814   1.775   2.228   0.563 -1.0259  0.0597 -0.0439
  127MOL   C24340815   1.807   2.087   0.628  0.4195  0.3870  0.6598
  127MOL   C24440816   1.800   1.968   0.528  0.4792 -0.2026  0.0175
  127MOL   O24540817   1.690   1.941   0.480  0.7315  0.2992  0.2443
  127MOL   N24640818   1.908   1.888   0.493 -0.1152  0.0529  0.1431
  127MOL   C24740819   2.045   1.938   0.499  0.5475  0.1703  0.0584
  127MOL   C24840820   1.893   1.754   0.425  0.1045 -0.1905  0.9848
  127MOL   H24940821   1.805   2.303   0.636 -1.1799  1.1506 -1.0956
  127MOL   H25040822   1.667   2.239   0.569 -1.0649  0.0423 -0.7123
  127MOL   H25140823   1.913   2.085   0.653  0.6837  1.0421 -0.3473
  127MOL   H25240824   2.056   2.039   0.460  0.3523 -0.1730 -0.8952
  127MOL   H25340825   2.077   1.953   0.602  1.6231  1.5520 -0.4544
  127MOL   H25440826   2.117   1.883   0.438  0.9101  1.4686 -0.7085
  127MOL   H25540827   1.984   1.695   0.414 -0.3392 -0.4802 -1.1997
  127MOL   H25640828   1.854   1.758   0.324  0.9451 -5.2652  0.3061
  127MOL   H25740829   1.833   1.693   0.493 -0.2386  0.1382  0.9772
  127MOL   C25840830   1.701   2.060   0.741 -0.6430 -0.7254 -0.5488
  127MOL   C25940831   1.735   1.953   0.848 -0.0318 -0.0693  0.9532
  127MOL   C26040832   1.606   1.918   0.916 -0.2180 -0.1944  0.0252
  127MOL   O26140833   1.559   2.009   0.990 -0.2863 -0.2269  0.3306
  127MOL   N26240834   1.552   1.789   0.913  0.0640  0.4012  0.3304
  127MOL   C26340835   1.602   1.681   0.825  0.4295  0.4240  0.1432
  127MOL   C26440836   1.441   1.747   1.008 -0.3087  0.2313  0.2121
  127MOL   H26540837   1.699   2.162   0.781  1.5915 -0.3836 -1.2302
  127MOL   H26640838   1.601   2.047   0.701 -0.8576 -1.3950  0.1833
  127MOL   H26740839   1.778   1.869   0.793  0.7027 -0.5204  2.2049
  127MOL   H26840840   1.611   1.705   0.719  0.9457  1.8763  0.5051
  127MOL   H26940841   1.706   1.668   0.851 -0.0966 -0.6724  1.7435
  127MOL   H27040842   1.548   1.587   0.839  3.0654 -1.4204 -1.6554
  127MOL   H27140843   1.470   1.646   1.039 -2.7011 -0.9684 -1.3057
  127MOL   H27240844   1.341   1.751   0.965  0.4114  3.1327 -1.3025
  127MOL   H27340845   1.443   1.803   1.102 -1.8186  0.4898  0.0945
  127MOL   C27440846   1.840   2.007   0.947  0.5945  0.1562  0.0510
  127MOL   C27540847   1.939   1.904   1.019 -0.4457  0.3877 -0.1274
  127MOL   C27640848   2.029   1.842   0.912 -0.7645 -0.2370 -0.3382
  127MOL   O27740849   1.984   1.745   0.847 -0.3597  0.3641  0.0824
  127MOL   N27840850   2.156   1.878   0.914 -1.1084 -1.2642  0.3128
  127MOL   C27940851   2.267   1.806   0.857 -0.0881  0.7933  0.3583
  127MOL   C28040852   2.210   1.997   0.982 -0.1678  0.8852 -0.1023
  127MOL   H28140853   1.903   2.081   0.896 -0.0886 -0.6209 -1.9827
  127MOL   H28240854   1.789   2.055   1.031  0.1848 -1.7869  0.9217
  127MOL   H28340855   1.991   1.976   1.083 -0.2938 -0.5310  0.8053
  127MOL   H28440856   2.244   1.705   0.822  0.4399  0.3975  1.1259
  127MOL   H28540857   2.304   1.862   0.772 -0.5292  2.5213  1.2758
  127MOL   H28640858   2.347   1.787   0.929  0.5312  1.2178 -0.2186
  127MOL   H28740859   2.309   2.027   0.950 -0.2364 -0.6321 -1.7938
  127MOL   H28840860   2.224   1.991   1.091  0.3131  0.8189 -0.1649
  127MOL   H28940861   2.137   2.076   0.963 -0.5096  0.8725  1.0756
  127MOL   C29040862   1.858   1.799   1.110 -0.2062  0.1535  0.2562
  127MOL   C29140863   1.928   1.708   1.210 -0.8139 -0.1966  0.1815
  127MOL   C29240864   2.001   1.789   1.322  0.5676  0.4027  0.4822
  127MOL   O29340865   2.094   1.857   1.293 -0.2810 -0.2641  0.1622
  127MOL   N29440866   1.963   1.781   1.452 -0.5552 -0.3698 -0.3416
  127MOL   C29540867   1.860   1.696   1.507  0.6204  0.6591  0.1827
  127MOL   C29640868   2.024   1.862   1.556 -0.1505  0.6099 -0.9368
  127MOL   H29740869   1.807   1.873   1.171 -0.8080  0.3569 -0.4853
  127MOL   H29840870   1.783   1.742   1.054 -0.1052 -0.5613  0.8408
  127MOL   H29940871   1.841   1.663   1.259 -1.0490 -1.1082 -1.0413
  127MOL   H30040872   1.770   1.701   1.446  1.2708 -1.0483 -0.9748
  127MOL   H30140873   1.899   1.594   1.516  0.4922  0.4048 -1.7562
  127MOL   H30240874   1.825   1.722   1.607 -0.5216 -1.4228  0.3596
  127MOL   H30340875   1.975   1.955   1.585 -2.2060 -0.0005 -2.3710
  127MOL   H30440876   2.126   1.895   1.537 -0.1109 -0.7036 -3.1037
  127MOL   H30540877   2.040   1.802   1.646  2.6796  0.4415 -1.4930
  127MOL   C30640878   2.017   1.607   1.138 -0.3321  0.1538  0.5065
  127MOL   C30740879   2.073   1.500   1.229 -0.8990  0.4555  0.3871
  127MOL   C30840880   1.982   1.377   1.256  0.7010 -0.2639 -0.3777
  127MOL   O30940881   1.862   1.371   1.220 -0.1078 -0.4271  0.6599
  127MOL   N31040882   2.035   1.276   1.327  0.3201  0.3271 -0.6884
  127MOL   C31140883   2.182   1.262   1.354 -0.5530 -0.1584 -0.7199
  127MOL   C31240884   1.952   1.171   1.387 -0.2764  0.1578  0.5546
  127MOL   H31340885   1.958   1.561   1.059  0.3783 -2.8814  1.6639
  127MOL   H31440886   2.099   1.653   1.082  0.7156 -0.5582  1.4418
  127MOL   H31540887   2.159   1.458   1.177 -0.7815 -1.4873  2.0763
  127MOL   H31640888   2.236   1.357   1.349 -1.9394  0.8865  2.4113
  127MOL   H31740889   2.206   1.221   1.452 -0.8384  0.1803 -0.5091
  127MOL   H31840890   2.219   1.202   1.271  0.6309 -0.9412  0.3371
  127MOL   H31940891   1.848   1.200   1.406  0.0910  1.7216  0.2470
  127MOL   H32040892   1.986   1.129   1.482 -0.0388  1.1189  0.8997
  127MOL   H32140893   1.943   1.096   1.309 -2.0986 -1.3601  2.1603
  127MOL   H32240894   2.114   1.541   1.321  0.5249 -3.5149  1.6212
  128MOL     C140895   2.397   1.133   4.783  0.5523  0.5051  0.7778
  128MOL     C240896   2.364   1.121   4.638  1.1078  0.6711  0.1280
  128MOL     C340897   2.218   1.074   4.620 -0.0320  0.3146  1.0218
  128MOL     O440898   2.154   1.034   4.719  0.1937 -0.4509  0.4575
  128MOL     N540899   2.146   1.090   4.501  0.2034  0.7871  0.1309
  128MOL     C640900   2.011   1.044   4.492  0.4843 -0.4769  0.4256
  128MOL     C740901   2.203   1.157   4.387 -0.0303 -0.2457  0.0605
  128MOL     H840902   2.494   1.183   4.787  0.7176  0.2245  0.3849
  128MOL     H940903   2.400   1.033   4.826  0.6141 -0.5152 -1.5437
  128MOL    H1040904   2.376   1.221   4.598  3.2023  0.8994  1.3001
  128MOL    H1140905   1.952   1.109   4.556 -1.0416 -1.7487  0.3457
  128MOL    H1240906   1.982   1.050   4.387  0.1426  1.6428  0.6168
  128MOL    H1340907   2.006   0.940   4.525  0.0868 -0.9441 -1.0775
  128MOL    H1440908   2.304   1.196   4.398 -0.3512  0.5402  0.2053
  128MOL    H1540909   2.154   1.250   4.357  1.6602  1.1525  1.5467
  128MOL    H1640910   2.214   1.093   4.299 -0.7560 -0.3407  0.0294
  128MOL    H1740911   2.328   1.199   4.835  1.5801  3.1657 -1.1415
  128MOL    C1840912   2.462   1.035   4.561  0.2233 -0.1543 -0.3888
  128MOL    C1940913   2.603   1.092   4.538 -0.6299 -0.3376 -0.1803
  128MOL    C2040914   2.588   1.223   4.450 -0.6690  0.1743  0.0128
  128MOL    O2140915   2.558   1.210   4.333 -0.1477 -0.2991  0.1239
  128MOL    N2240916   2.608   1.340   4.504  0.7578 -0.0045 -0.0211
  128MOL    C2340917   2.572   1.461   4.433  0.2756 -0.7762  0.4384
  128MOL    C2440918   2.680   1.367   4.624 -0.6686  0.5942  0.7452
  128MOL    H2540919   2.474   0.945   4.621 -0.0655 -0.7825 -1.2626
  128MOL    H2640920   2.411   1.004   4.470 -0.3377  0.0950 -0.1564
  128MOL    H2740921   2.641   1.121   4.636  0.7021 -0.0825 -0.7599
  128MOL    H2840922   2.567   1.545   4.502  2.0635 -0.2722 -0.0222
  128MOL    H2940923   2.663   1.474   4.375  1.3968 -0.7439  2.1615
  128MOL    H3040924   2.496   1.454   4.355 -1.3203 -0.9154  1.9762
  128MOL    H3140925   2.631   1.325   4.712 -1.7321 -1.3704 -0.7532
  128MOL    H3240926   2.698   1.473   4.641  3.3095 -0.0607  1.0380
  128MOL    H3340927   2.780   1.324   4.629 -1.2833 -1.0042 -0.1899
  128MOL    C3440928   2.708   0.995   4.478  0.5448 -0.2428 -0.2236
  128MOL    C3540929   2.852   1.040   4.451  0.6859 -0.1065 -0.0602
  128MOL    C3640930   2.906   0.940   4.340  0.4400  0.2111  0.5964
  128MOL    O3740931   2.971   0.846   4.370  0.3128 -0.3002  0.6404
  128MOL    N3840932   2.905   0.980   4.210  0.0633  0.5857 -0.0125
  128MOL    C3940933   2.991   0.920   4.106  0.3537 -0.2618 -0.0711
  128MOL    C4040934   2.822   1.088   4.164  0.2941 -0.7688  0.2486
  128MOL    H4140935   2.705   0.910   4.547 -0.8085 -0.0656 -0.0527
  128MOL    H4240936   2.665   0.947   4.390  1.4882  1.4606 -1.6287
  128MOL    H4340937   2.853   1.141   4.409 -0.2908  0.7916  2.0181
  128MOL    H4440938   3.056   0.842   4.146 -1.3454 -2.0377 -0.7048
  128MOL    H4540939   2.927   0.873   4.031  0.7733 -0.3068 -0.3980
  128MOL    H4640940   3.057   0.994   4.060 -0.1914 -0.5443 -1.3210
  128MOL    H4740941   2.821   1.087   4.055  3.1533  3.6228  0.0498
  128MOL    H4840942   2.865   1.182   4.198  0.5313 -0.9787  0.5347
  128MOL    H4940943   2.720   1.093   4.202  0.0418  1.3924 -0.6489
  128MOL    C5040944   2.924   1.043   4.589 -0.4746 -0.4992  0.1650
  128MOL    C5140945   3.063   1.115   4.597 -0.3828 -0.1843 -0.1310
  128MOL    C5240946   3.179   1.019   4.555 -0.6303  0.2464 -1.1797
  128MOL    O5340947   3.215   0.932   4.637 -0.4549  0.3685  0.0840
  128MOL    N5440948   3.260   1.042   4.453 -0.0745 -0.7435 -0.2420
  128MOL    C5540949   3.229   1.119   4.334 -0.1730 -0.1275  0.0917
  128MOL    C5640950   3.395   0.978   4.437  0.6114 -0.2809 -0.5458
  128MOL    H5740951   2.872   1.097   4.668  0.3824  2.1056 -0.9912
  128MOL    H5840952   2.929   0.940   4.625 -1.6602 -0.5543  0.2013
  128MOL    H5940953   3.053   1.196   4.525  1.1975  0.0916 -0.0609
  128MOL    H6040954   3.221   1.061   4.242 -0.9175  0.6838 -0.3624
  128MOL    H6140955   3.147   1.190   4.334  0.3868  0.5330  0.0826
  128MOL    H6240956   3.318   1.177   4.308 -0.4011  0.1330 -0.1189
  128MOL    H6340957   3.404   0.878   4.394 -2.2897 -1.6973  1.9905
  128MOL    H6440958   3.451   0.965   4.529  1.2766  0.0134 -0.9032
  128MOL    H6540959   3.463   1.055   4.398 -0.2981  0.5270 -0.5624
  128MOL    C6640960   3.092   1.177   4.742  0.2435  0.4041  0.1616
  128MOL    C6740961   3.223   1.261   4.745 -0.3109  0.0890  0.5030
  128MOL    C6840962   3.254   1.291   4.889 -0.4934  0.2667  0.5304
  128MOL    O6940963   3.193   1.387   4.941 -0.1892 -0.1987  0.6608
  128MOL    N7040964   3.336   1.206   4.952  0.3794 -0.3989  0.2269
  128MOL    C7140965   3.399   1.083   4.900  0.6598 -0.5627 -0.0329
  128MOL    C7240966   3.380   1.244   5.088 -0.1602 -0.1319  0.4041
  128MOL    H7340967   3.010   1.238   4.778  0.4253  0.0249  1.2291
  128MOL    H7440968   3.088   1.102   4.821 -1.3147 -0.1943 -0.4815
  128MOL    H7540969   3.309   1.209   4.705 -0.1113  0.8661 -0.0836
  128MOL    H7640970   3.451   1.019   4.971  3.0537  0.8502 -0.4635
  128MOL    H7740971   3.328   1.013   4.855  1.0980 -0.1499 -1.3967
  128MOL    H7840972   3.473   1.108   4.824  0.6466  0.5116  0.3103
  128MOL    H7940973   3.303   1.285   5.154 -0.6463  0.6247 -0.6168
  128MOL    H8040974   3.456   1.321   5.076 -0.6934  0.5849  1.5969
  128MOL    H8140975   3.438   1.166   5.137  2.0356  0.7813 -0.6950
  128MOL    C8240976   3.222   1.390   4.669 -0.0194  0.1455  0.0807
  128MOL    C8340977   3.361   1.458   4.650 -0.6735 -0.4290  0.7506
  128MOL    C8440978   3.345   1.605   4.615 -0.4401  0.2018 -0.3806
  128MOL    O8540979   3.286   1.630   4.508  0.3757 -0.0614  0.0515
  128MOL    N8640980   3.401   1.707   4.690  0.1785 -0.0103  0.3135
  128MOL    C8740981   3.397   1.845   4.642  0.2607  0.7074 -0.3660
  128MOL    C8840982   3.445   1.690   4.826 -0.6757  0.0454 -0.0058
  128MOL    H8940983   3.179   1.383   4.569 -0.2124  0.3609  0.1465
  128MOL    H9040984   3.150   1.464   4.705 -1.1531 -0.3569 -1.0950
  128MOL    H9140985   3.415   1.449   4.745  2.4486 -0.8831 -0.9992
  128MOL    H9240986   3.417   1.859   4.536  1.9754 -0.5455 -0.2161
  128MOL    H9340987   3.292   1.875   4.649  0.0858  0.0505 -0.1095
  128MOL    H9440988   3.455   1.919   4.697 -1.1425  2.8673 -1.7261
  128MOL    H9540989   3.451   1.779   4.889 -2.2104 -0.7284  1.2946
  128MOL    H9640990   3.535   1.629   4.826  1.1062  2.5917 -1.9454
  128MOL    H9740991   3.371   1.624   4.872  0.0987 -2.0275 -1.6432
  128MOL    C9840992   3.446   1.392   4.533 -0.3682 -0.1222  0.0165
  128MOL    C9940993   3.584   1.450   4.490  0.1143  0.2178 -0.4150
  128MOL   C10040994   3.631   1.366   4.360 -0.1584  0.3416  0.6827
  128MOL   O10140995   3.684   1.252   4.378  0.0720  0.0020 -0.5630
  128MOL   N10240996   3.615   1.411   4.234  0.2917 -0.1034  0.4793
  128MOL   C10340997   3.618   1.558   4.206  0.3945 -0.3259  0.2024
  128MOL   C10440998   3.636   1.318   4.127 -0.4754  0.3731  0.3862
  128MOL   H10540999   3.450   1.285   4.554 -1.2063 -0.4461 -1.3960
  128MOL   H10641000   3.380   1.403   4.447  0.1027  0.6565 -0.2469
  128MOL   H10741001   3.568   1.554   4.463  1.1098  0.1422 -1.3499
  128MOL   H10841002   3.619   1.630   4.289 -0.5595 -1.6334  1.3536
  128MOL   H10941003   3.703   1.596   4.149 -0.0347 -1.7926 -1.4337
  128MOL   H11041004   3.525   1.579   4.153  0.8477  0.0822 -0.4445
  128MOL   H11141005   3.580   1.338   4.035 -2.4448 -3.0557  0.7561
  128MOL   H11241006   3.620   1.212   4.143 -0.8800  0.4336  0.3930
  128MOL   H11341007   3.741   1.294   4.115 -0.9678 -2.1422  0.8749
  128MOL   C11441008   3.696   1.429   4.600 -0.0118  0.3482 -0.4517
  128MOL   C11541009   3.821   1.515   4.588 -0.8160 -0.3538 -0.2872
  128MOL   C11641010   3.945   1.436   4.644 -0.3079 -0.3942  0.6628
  128MOL   O11741011   3.957   1.432   4.766  0.3745  0.4521 -0.3192
  128MOL   N11841012   4.032   1.378   4.557 -0.7003  0.6692 -0.1097
  128MOL   C11941013   4.002   1.340   4.419  0.5869 -0.3663  0.6409
  128MOL   C12041014   4.162   1.341   4.606  0.3799  0.0423 -0.4447
  128MOL   H12141015   3.653   1.431   4.701  1.1168  1.4373  0.0148
  128MOL   H12241016   3.720   1.323   4.595 -1.2046  0.1167 -1.4985
  128MOL   H12341017   3.835   1.516   4.480  0.1941  1.2446 -0.1519
  128MOL   H12441018   3.924   1.264   4.419  1.2926 -1.1263  2.1170
  128MOL   H12541019   3.979   1.428   4.360 -0.2886 -2.4440 -2.2041
  128MOL   H12641020   4.089   1.297   4.369  0.4771  1.2734 -1.0067
  128MOL   H12741021   4.212   1.256   4.559  1.5633 -0.6579  2.0055
  128MOL   H12841022   4.147   1.294   4.703 -1.8730 -0.3754 -0.9619
  128MOL   H12941023   4.229   1.426   4.602  1.2873 -0.5943  0.8527
  128MOL   C13041024   3.806   1.668   4.653 -0.3430  0.3115  0.3547
  128MOL   C13141025   3.898   1.781   4.601 -0.1446 -0.3233 -0.3672
  128MOL   C13241026   3.882   1.805   4.450  0.0174 -0.0852  1.0283
  128MOL   O13341027   3.947   1.736   4.367 -0.9232 -0.8627 -0.4505
  128MOL   N13441028   3.808   1.908   4.405 -0.0805 -0.0620  0.3001
  128MOL   C13541029   3.792   1.926   4.262 -0.2595 -0.2477  0.5168
  128MOL   C13641030   3.723   1.993   4.494 -0.1406  0.2211 -0.4530
  128MOL   H13741031   3.702   1.700   4.655 -1.1492 -2.2710  1.8828
  128MOL   H13841032   3.821   1.652   4.760  2.9899 -2.0403 -0.3615
  128MOL   H13941033   3.868   1.865   4.663 -0.5141 -0.8519  0.1752
  128MOL   H14041034   3.741   1.844   4.212 -0.3276  0.1036  0.0104
  128MOL   H14141035   3.738   2.018   4.239  1.7556  1.1040  1.0489
  128MOL   H14241036   3.893   1.943   4.226  0.0227  1.3851  2.0153
  128MOL   H14341037   3.697   1.950   4.591  0.8714  0.5152 -0.0411
  128MOL   H14441038   3.625   2.009   4.448 -0.9050 -0.1493  1.0042
  128MOL   H14541039   3.769   2.088   4.520  0.5418 -0.3880  0.6173
  128MOL   C14641040   4.053   1.769   4.637  0.3102  0.5704  0.4483
  128MOL   C14741041   4.138   1.903   4.635 -0.0067 -0.3345  0.5623
  128MOL   C14841042   4.089   1.991   4.755  0.0575 -0.5916  0.5505
  128MOL   O14941043   3.994   2.067   4.730 -0.0196 -0.0018  0.0483
  128MOL   N15041044   4.158   1.979   4.871  0.3162  0.1585  0.2248
  128MOL   C15141045   4.122   2.072   4.985 -1.0831  0.3138 -0.5111
  128MOL   C15241046   4.261   1.883   4.905  0.0256 -0.4741  1.0012
  128MOL   H15341047   4.053   1.722   4.736  1.5113 -1.0537 -0.3024
  128MOL   H15441048   4.088   1.698   4.562 -1.9938 -0.5334  0.3583
  128MOL   H15541049   4.240   1.866   4.647  0.2465 -1.2082 -3.5072
  128MOL   H15641050   4.028   2.050   5.035 -0.6510 -1.1563 -0.2995
  128MOL   H15741051   4.207   2.090   5.051 -0.8187  1.6580 -1.1968
  128MOL   H15841052   4.107   2.171   4.941  1.1587 -0.3477 -2.9000
  128MOL   H15941053   4.247   1.831   5.000  0.4647 -2.3528  0.0659
  128MOL   H16041054   4.356   1.933   4.888 -0.1310 -1.2037 -2.3158
  128MOL   H16141055   4.257   1.797   4.838 -1.3993  1.2281 -1.1637
  128MOL   C16241056   4.140   1.985   4.501 -0.5938  0.1228 -0.4610
  128MOL   C16341057   4.213   1.921   4.377  0.0849 -0.0813 -0.7354
  128MOL   C16441058   4.349   1.866   4.409  0.7968  0.7351 -0.5957
  128MOL   O16541059   4.441   1.948   4.425 -0.1357 -0.6315 -0.0184
  128MOL   N16641060   4.362   1.735   4.411  0.3574  0.9162 -0.2894
  128MOL   C16741061   4.289   1.653   4.317  0.4104  0.2811 -0.7069
  128MOL   C16841062   4.474   1.666   4.465 -0.2249 -0.2111  0.0610
  128MOL   H16941063   4.048   2.039   4.477 -0.3550  0.6957 -0.1018
  128MOL   H17041064   4.193   2.079   4.512 -0.6655  0.0556  0.4189
  128MOL   H17141065   4.143   1.841   4.354 -1.2960  0.6339  0.8473
  128MOL   H17241066   4.186   1.621   4.338  0.4748  1.1223  1.0262
  128MOL   H17341067   4.274   1.698   4.219 -0.2785 -0.1826 -0.8207
  128MOL   H17441068   4.350   1.565   4.298 -1.0880 -0.9714  0.1319
  128MOL   H17541069   4.559   1.698   4.405  0.0558 -1.7231 -0.3699
  128MOL   H17641070   4.466   1.558   4.483 -0.2448 -0.0166  1.3197
  128MOL   H17741071   4.507   1.698   4.564 -0.3421 -1.1654  0.4145
  128MOL   C17841072   4.213   2.029   4.266 -0.8506 -0.6403 -1.0524
  128MOL   C17941073   4.244   1.979   4.128  0.2774  1.1295  0.2496
  128MOL   C18041074   4.280   2.100   4.038 -0.3105  0.8740 -0.1857
  128MOL   O18141075   4.196   2.190   4.024  0.0381 -0.6480  0.6543
  128MOL   N18241076   4.395   2.107   3.969  0.1237 -0.6301  0.2899
  128MOL   C18341077   4.520   2.033   3.983 -0.6183  0.0741 -0.5476
  128MOL   C18441078   4.415   2.214   3.867 -0.5376  0.5269  0.4343
  128MOL   H18541079   4.111   2.069   4.263 -0.8018 -0.5417 -1.4528
  128MOL   H18641080   4.263   2.122   4.292 -0.3892 -1.4215  0.9714
  128MOL   H18741081   4.328   1.912   4.147 -1.7451 -0.6097  3.4149
  128MOL   H18841082   4.603   2.101   3.964  0.3025 -0.7887  0.3490
  128MOL   H18941083   4.526   2.004   4.087 -2.2536 -0.3846 -0.5537
  128MOL   H19041084   4.521   1.951   3.911  0.8699 -1.0535  0.7305
  128MOL   H19141085   4.339   2.193   3.793 -1.1904  0.6979  1.0492
  128MOL   H19241086   4.514   2.217   3.822  0.0824  1.0975  1.7935
  128MOL   H19341087   4.403   2.317   3.901  0.9938  1.3025 -1.2964
  128MOL   C19441088   4.128   1.897   4.059 -0.5985 -0.1938  0.8115
  128MOL   C19541089   4.141   1.821   3.926  0.2839 -0.3249  0.2391
  128MOL   C19641090   4.252   1.710   3.926 -0.4183 -0.0533 -0.7083
  128MOL   O19741091   4.371   1.747   3.932  0.1602  0.2485 -0.1322
  128MOL   N19841092   4.215   1.579   3.910 -0.0249 -0.0632  0.2935
  128MOL   C19941093   4.088   1.523   3.959  0.3617  0.4683 -0.2421
  128MOL   C20041094   4.323   1.481   3.887 -0.7980  0.5369 -0.0803
  128MOL   H20141095   4.097   1.825   4.135 -0.8698 -0.0550  0.8339
  128MOL   H20241096   4.039   1.959   4.049  0.7829  1.7287  0.0935
  128MOL   H20341097   4.048   1.764   3.930 -0.3982  0.8927  2.9447
  128MOL   H20441098   4.064   1.575   4.051  0.6280 -0.2842  0.2553
  128MOL   H20541099   4.008   1.529   3.885 -1.2003 -1.5593  1.2097
  128MOL   H20641100   4.098   1.417   3.981  0.0664  0.7664  1.3801
  128MOL   H20741101   4.394   1.519   3.813 -0.7116 -1.3655 -1.0150
  128MOL   H20841102   4.280   1.387   3.853 -2.2368  1.2415 -0.2419
  128MOL   H20941103   4.389   1.460   3.971 -1.6134 -1.3493  0.1036
  128MOL   C21041104   4.143   1.897   3.792 -0.0975 -0.5486 -0.7335
  128MOL   C21141105   4.010   1.907   3.712 -0.4495  0.7971 -0.9032
  128MOL   C21241106   3.908   1.998   3.786 -0.1568 -0.3074  0.2359
  128MOL   O21341107   3.838   1.949   3.875 -0.3667 -0.1654 -0.1281
  128MOL   N21441108   3.899   2.125   3.748  0.4348 -1.2563 -0.7585
  128MOL   C21541109   3.960   2.196   3.631 -0.3649  0.7151  0.1344
  128MOL   C21641110   3.809   2.221   3.813  0.1873  0.0074 -0.3313
  128MOL   H21741111   4.166   2.002   3.810 -1.1482 -0.5607  0.7423
  128MOL   H21841112   4.216   1.853   3.723 -0.0546  0.8858 -1.6161
  128MOL   H21941113   4.033   1.949   3.615  0.7863 -0.8057 -1.3276
  128MOL   H22041114   3.948   2.305   3.629 -2.3632  0.5049  0.4498
  128MOL   H22141115   4.067   2.176   3.629 -0.9251 -2.4691 -0.4914
  128MOL   H22241116   3.915   2.154   3.541  0.7998 -0.7082  0.2042
  128MOL   H22341117   3.858   2.272   3.896 -1.3821  1.2121 -0.1191
  128MOL   H22441118   3.723   2.164   3.847  1.2902  0.2370  3.0409
  128MOL   H22541119   3.762   2.300   3.754 -0.6374 -0.6199 -0.5264
  128MOL   C22641120   3.947   1.764   3.691 -0.2219 -0.1605  0.2875
  128MOL   C22741121   3.891   1.746   3.543 -0.2324 -0.3500 -0.0953
  128MOL   C22841122   3.757   1.830   3.531  0.1979 -0.0902  0.6490
  128MOL   O22941123   3.676   1.823   3.627  0.0975 -0.1579 -0.0034
  128MOL   N23041124   3.730   1.917   3.434  0.0708  0.5929  0.0549
  128MOL   C23141125   3.824   1.945   3.320 -0.1723 -0.6678  0.1354
  128MOL   C23241126   3.610   1.998   3.431  0.2107  0.0900 -0.1932
  128MOL   H23341127   4.022   1.685   3.690 -0.0663 -0.0525  1.8082
  128MOL   H23441128   3.881   1.733   3.772 -0.7039 -0.9502 -0.4084
  128MOL   H23541129   3.965   1.779   3.470  1.1820 -1.1243  0.9647
  128MOL   H23641130   3.778   2.014   3.249 -1.4601 -2.0356 -0.3954
  128MOL   H23741131   3.920   1.981   3.355  0.5280  0.6868 -3.0213
  128MOL   H23841132   3.835   1.858   3.254  0.2119 -0.0843 -0.5756
  128MOL   H23941133   3.571   2.020   3.530 -0.5922 -1.0348 -0.2407
  128MOL   H24041134   3.536   1.952   3.364  1.4150 -2.7252  0.3327
  128MOL   H24141135   3.631   2.096   3.389  2.0589 -0.4213 -0.5062
  128MOL   C24241136   3.866   1.596   3.513  0.5001  0.1884  0.8953
  128MOL   C24341137   3.985   1.489   3.502  0.3661 -0.1187  0.5917
  128MOL   C24441138   4.074   1.524   3.379  0.3585 -0.8002 -0.0110
  128MOL   O24541139   4.018   1.518   3.271 -1.0436  0.0130  0.8129
  128MOL   N24641140   4.203   1.555   3.392  0.1337  0.2354  0.8143
  128MOL   C24741141   4.281   1.591   3.274 -0.1495 -0.3643 -0.0021
  128MOL   C24841142   4.279   1.537   3.519  1.0791  0.2693  0.2532
  128MOL   H24941143   3.797   1.550   3.583 -0.0527 -2.3828 -1.2438
  128MOL   H25041144   3.814   1.600   3.417 -0.1743 -1.0980  1.1880
  128MOL   H25141145   4.036   1.488   3.599 -0.8476  0.9991  1.2535
  128MOL   H25241146   4.323   1.691   3.271  0.2469 -0.4774  1.2382
  128MOL   H25341147   4.358   1.515   3.267 -0.2310 -0.7683  2.7389
  128MOL   H25441148   4.223   1.593   3.182  0.2179 -1.9050 -0.2790
  128MOL   H25541149   4.387   1.546   3.513  1.1371  0.0400  0.8750
  128MOL   H25641150   4.253   1.445   3.571  1.0620  0.7687  1.1423
  128MOL   H25741151   4.249   1.624   3.578  0.2286  0.3963 -0.3574
  128MOL   C25841152   3.928   1.356   3.486  0.3311 -0.4171  0.0310
  128MOL   C25941153   4.026   1.242   3.471  0.2261 -0.6751  0.2802
  128MOL   C26041154   3.947   1.118   3.416 -0.4798 -0.0309 -0.0156
  128MOL   O26141155   3.852   1.079   3.480 -0.0629  0.0183 -0.0696
  128MOL   N26241156   3.974   1.056   3.294 -0.5933  0.4316  0.2591
  128MOL   C26341157   4.070   1.105   3.192 -0.0478  0.6470  0.0163
  128MOL   C26441158   3.896   0.936   3.252  0.2172  1.2411 -0.4599
  128MOL   H26541159   3.860   1.330   3.567 -0.7142  0.5781 -0.5185
  128MOL   H26641160   3.866   1.364   3.396 -0.0889  2.7273  0.5550
  128MOL   H26741161   4.100   1.266   3.395 -0.5394  0.2249 -0.1967
  128MOL   H26841162   4.078   1.214   3.199  1.9423  0.5476 -0.5265
  128MOL   H26941163   4.165   1.068   3.231  0.6242  1.5774 -0.7174
  128MOL   H27041164   4.050   1.071   3.091  3.5265  0.4117 -0.6686
  128MOL   H27141165   3.966   0.853   3.243  0.7755  1.3665  2.0959
  128MOL   H27241166   3.854   0.944   3.152 -2.7655 -0.7526  0.5689
  128MOL   H27341167   3.823   0.897   3.322 -0.7857  2.0863 -1.0317
  128MOL   C27441168   4.098   1.214   3.611  0.4789 -0.3139  0.1701
  128MOL   C27541169   4.208   1.098   3.600  0.0175 -0.2323  0.0150
  128MOL   C27641170   4.207   1.011   3.729  0.3187  0.7419  0.2101
  128MOL   O27741171   4.230   1.066   3.839 -0.5353  0.3886  0.5993
  128MOL   N27841172   4.157   0.882   3.723 -0.6155  0.3167 -0.5635
  128MOL   C27941173   4.140   0.802   3.603  0.8025 -0.2336 -0.4648
  128MOL   C28041174   4.143   0.801   3.848  0.4474  0.0380  0.1477
  128MOL   H28141175   4.138   1.305   3.656  2.1909 -1.4788  1.0988
  128MOL   H28241176   4.026   1.171   3.681 -2.5938  1.8597 -1.5557
  128MOL   H28341177   4.184   1.030   3.519 -0.8435 -0.8492  0.7843
  128MOL   H28441178   4.056   0.844   3.546  1.0309  1.7112  0.5811
  128MOL   H28541179   4.230   0.808   3.541 -0.2503 -1.2397 -2.1361
  128MOL   H28641180   4.122   0.697   3.624  0.1767  0.3973  2.3439
  128MOL   H28741181   4.238   0.753   3.869  1.6648  2.2701 -0.0684
  128MOL   H28841182   4.077   0.717   3.827  0.8691 -0.0585 -0.8329
  128MOL   H28941183   4.109   0.852   3.939 -3.3156 -2.2379  0.1215
  128MOL   C29041184   4.354   1.151   3.556  0.1589  0.4236  0.7039
  128MOL   C29141185   4.428   1.083   3.434  1.0211 -0.3914  0.7000
  128MOL   C29241186   4.472   0.941   3.467  0.3120 -0.1786  0.0153
  128MOL   O29341187   4.521   0.922   3.576  0.0788  0.0561 -1.0314
  128MOL   N29441188   4.458   0.844   3.373  0.1235 -0.0925 -0.3418
  128MOL   C29541189   4.387   0.863   3.248 -0.4135  0.4252 -0.2254
  128MOL   C29641190   4.491   0.707   3.413 -0.2542 -0.0767  0.2533
  128MOL   H29741191   4.330   1.254   3.531  1.8994  0.9736  1.2586
  128MOL   H29841192   4.421   1.158   3.642 -0.9541  1.2745  1.5223
  128MOL   H29941193   4.359   1.090   3.349  0.6293  2.1920  1.1643
  128MOL   H30041194   4.279   0.875   3.253 -0.5880 -1.5290  1.4039
  128MOL   H30141195   4.428   0.947   3.192  0.4389 -0.9987 -1.8066
  128MOL   H30241196   4.407   0.791   3.169 -0.7359  0.1582 -0.0648
  128MOL   H30341197   4.530   0.666   3.319  0.1553  2.7542 -0.8517
  128MOL   H30441198   4.427   0.646   3.477  0.1220 -0.2597  0.4576
  128MOL   H30541199   4.572   0.715   3.486  0.1928  1.9261 -0.4347
  128MOL   C30641200   4.547   1.176   3.394 -0.9202  0.0653 -0.4965
  128MOL   C30741201   4.525   1.297   3.303 -0.5675  0.7703  0.8865
  128MOL   C30841202   4.498   1.270   3.153  0.5920 -0.1754  1.0078
  128MOL   O30941203   4.381   1.247   3.114 -0.0751  0.1332  0.9319
  128MOL   N31041204   4.600   1.272   3.064 -0.2803  0.1161 -0.0025
  128MOL   C31141205   4.742   1.290   3.109 -0.7576  0.6307  0.1147
  128MOL   C31241206   4.592   1.197   2.939  0.1326 -0.1456 -0.4698
  128MOL   H31341207   4.591   1.207   3.489  0.4668 -0.0853 -1.0773
  128MOL   H31441208   4.625   1.113   3.351 -0.6181  0.9314 -1.2132
  128MOL   H31541209   4.440   1.348   3.350 -1.7375 -0.8405  0.5439
  128MOL   H31641210   4.803   1.228   3.043  0.1476  0.2564  1.2989
  128MOL   H31741211   4.780   1.393   3.110  3.0651 -0.6655 -1.3163
  128MOL   H31841212   4.764   1.254   3.209  0.7206  0.0361 -0.4122
  128MOL   H31941213   4.671   1.247   2.883 -0.3770  0.0873 -0.9877
  128MOL   H32041214   4.494   1.215   2.896  0.5991  0.9867 -1.0791
  128MOL   H32141215   4.611   1.090   2.939  0.2240 -0.1294 -0.3695
  128MOL   H32241216   4.603   1.372   3.312 -1.8041  2.2761 -0.6330
  129MOL     C141217   0.720   0.268   5.326  0.0534  0.0467  0.4963
  129MOL     C241218   0.727   0.324   5.467 -0.1297  0.4194  0.4699
  129MOL     C341219   0.582   0.326   5.530  0.0061  0.0768 -0.3954
  129MOL     O441220   0.500   0.399   5.476  0.2418  0.4394  0.0163
  129MOL     N541221   0.549   0.259   5.645  0.2827  0.6115  0.5354
  129MOL     C641222   0.642   0.167   5.719 -0.4599  0.5784  0.2795
  129MOL     C741223   0.414   0.263   5.700 -0.3832  0.4109 -0.7354
  129MOL     H841224   0.681   0.166   5.324  2.1034 -0.7331 -1.6572
  129MOL     H941225   0.822   0.262   5.289 -1.0665 -0.0111 -2.7428
  129MOL    H1041226   0.799   0.263   5.522  1.7636  1.4054 -0.8948
  129MOL    H1141227   0.601   0.125   5.811 -3.1719  1.3635 -0.5143
  129MOL    H1241228   0.669   0.077   5.662 -0.0520  0.3463  0.8405
  129MOL    H1341229   0.734   0.217   5.748  0.8137 -0.7497 -1.3386
  129MOL    H1441230   0.350   0.176   5.687 -1.8771  0.9831  2.2729
  129MOL    H1541231   0.346   0.337   5.657  0.0220  0.6643 -0.9513
  129MOL    H1641232   0.402   0.287   5.805 -0.0290  0.1391 -0.6331
  129MOL    H1741233   0.663   0.338   5.265 -1.4003 -1.5507 -0.0117
  129MOL    C1841234   0.795   0.463   5.465 -0.0831  0.5298 -0.1392
  129MOL    C1941235   0.894   0.497   5.584  0.3065  0.1512  0.8396
  129MOL    C2041236   0.816   0.492   5.713  0.4530  0.3544  0.2225
  129MOL    O2141237   0.712   0.555   5.728  0.2020  0.2500  0.5362
  129MOL    N2241238   0.864   0.425   5.823  0.5601  0.2205  0.2047
  129MOL    C2341239   0.975   0.331   5.812 -0.1736 -0.0450  0.6371
  129MOL    C2441240   0.814   0.453   5.954  0.1026 -0.2547 -0.2615
  129MOL    H2541241   0.863   0.470   5.380 -0.4675 -0.3568 -0.5360
  129MOL    H2641242   0.721   0.539   5.445 -1.0211 -0.0758  0.9804
  129MOL    H2741243   0.979   0.429   5.579  0.1421  0.0901 -1.5559
  129MOL    H2841244   0.956   0.242   5.751  0.9465  0.9801 -1.2697
  129MOL    H2941245   1.061   0.384   5.773 -2.3937  2.2671 -1.2550
  129MOL    H3041246   1.006   0.284   5.905  3.5877 -0.3317 -0.6523
  129MOL    H3141247   0.900   0.459   6.021 -0.8471 -1.4650  1.0852
  129MOL    H3241248   0.747   0.370   5.978 -1.4522  1.0842  0.1369
  129MOL    H3341249   0.750   0.540   5.967 -0.7144 -1.0801  1.4175
  129MOL    C3441250   0.948   0.641   5.577  0.1310  0.1670 -0.1214
  129MOL    C3541251   1.086   0.654   5.497  0.3245 -0.4201  0.3212
  129MOL    C3641252   1.199   0.603   5.586 -0.3536 -0.1718 -0.1491
  129MOL    O3741253   1.212   0.653   5.700  0.0974  0.1644 -0.2413
  129MOL    N3841254   1.280   0.507   5.540 -0.1574 -0.3333  0.1316
  129MOL    C3941255   1.246   0.418   5.423  0.1818 -0.8689 -0.0346
  129MOL    C4041256   1.410   0.485   5.604 -0.0395  0.0802  0.3613
  129MOL    H4141257   0.877   0.697   5.515  1.9875  1.8801 -0.7567
  129MOL    H4241258   0.948   0.700   5.669 -0.7002  0.7171 -0.4614
  129MOL    H4341259   1.076   0.594   5.407  0.1185 -0.9355  0.6858
  129MOL    H4441260   1.149   0.369   5.427  0.1715 -0.9699 -1.5133
  129MOL    H4541261   1.259   0.479   5.334  1.5026  0.8450  1.2777
  129MOL    H4641262   1.313   0.332   5.430 -1.4939 -2.2769 -1.0897
  129MOL    H4741263   1.476   0.429   5.537  0.7334  2.0090 -0.5401
  129MOL    H4841264   1.396   0.444   5.704  2.0520  1.6046  1.3100
  129MOL    H4941265   1.457   0.583   5.600  1.7772 -0.7525  1.1810
  129MOL    C5041266   1.110   0.796   5.447 -0.4362  0.6910 -0.5571
  129MOL    C5141267   1.209   0.812   5.330  0.5584  0.3591 -0.4676
  129MOL    C5241268   1.157   0.756   5.192  0.1136  0.2796  0.3256
  129MOL    O5341269   1.177   0.634   5.170 -0.0015  0.1735  0.5871
  129MOL    N5441270   1.096   0.830   5.101 -0.3550  0.4268 -0.4236
  129MOL    C5541271   1.083   0.771   4.968 -0.1015  0.2927  0.7250
  129MOL    C5641272   1.054   0.968   5.137  0.2214  0.4851  0.2314
  129MOL    H5741273   1.016   0.844   5.420  0.8320  2.3820 -2.1130
  129MOL    H5841274   1.127   0.858   5.535  1.6207 -1.9875  1.0004
  129MOL    H5941275   1.214   0.920   5.322 -1.3174  0.6842  2.1457
  129MOL    H6041276   1.055   0.832   4.882 -1.6568 -0.7537  0.4705
  129MOL    H6141277   1.181   0.741   4.932  1.0849  3.4616  1.0944
  129MOL    H6241278   1.011   0.689   4.971  0.0795  0.0040 -1.9083
  129MOL    H6341279   0.984   0.970   5.221  1.0788 -1.6303  1.0199
  129MOL    H6441280   1.002   1.006   5.048  0.5240 -2.6186 -1.3198
  129MOL    H6541281   1.137   1.037   5.153  1.4759 -1.0262  0.2285
  129MOL    C6641282   1.358   0.774   5.367  0.0602  0.1977  0.1019
  129MOL    C6741283   1.476   0.834   5.294  0.4476  0.4569 -0.4677
  129MOL    C6841284   1.607   0.764   5.340 -0.3283  0.6013  0.1864
  129MOL    O6941285   1.611   0.722   5.457 -1.0169  0.2156  0.0167
  129MOL    N7041286   1.712   0.762   5.255  0.0657 -0.1355 -0.9234
  129MOL    C7141287   1.698   0.782   5.109 -0.8421  0.1047 -0.3837
  129MOL    C7241288   1.828   0.685   5.298  0.3182 -0.7673  0.9742
  129MOL    H7341289   1.354   0.811   5.469 -2.9190  0.7912 -0.1878
  129MOL    H7441290   1.360   0.665   5.372 -1.0102  0.0898 -1.2562
  129MOL    H7541291   1.466   0.788   5.196 -1.1277 -0.3738  0.0707
  129MOL    H7641292   1.671   0.886   5.091 -1.7162 -0.0927 -0.2260
  129MOL    H7741293   1.796   0.759   5.068 -1.1297 -3.1139  0.5640
  129MOL    H7841294   1.629   0.720   5.051  0.2979  0.1982 -1.8847
  129MOL    H7941295   1.903   0.749   5.343  0.4300 -2.2549  2.9572
  129MOL    H8041296   1.885   0.634   5.220 -0.6997  0.2808 -0.4899
  129MOL    H8141297   1.803   0.614   5.377 -0.2527 -1.0510  0.5462
  129MOL    C8241298   1.489   0.985   5.292 -0.2442  0.6043 -0.0227
  129MOL    C8341299   1.522   1.041   5.437 -0.2209 -0.5558 -0.1364
  129MOL    C8441300   1.384   1.103   5.491 -0.1073  1.1369 -0.6948
  129MOL    O8541301   1.311   1.178   5.425 -0.2344 -0.1275 -0.9066
  129MOL    N8641302   1.341   1.075   5.615  0.5403 -0.5947 -0.6314
  129MOL    C8741303   1.415   1.009   5.725 -1.0010 -0.3008 -0.0363
  129MOL    C8841304   1.223   1.138   5.670  0.5740  0.3157 -0.2855
  129MOL    H8941305   1.574   1.012   5.228  0.3060  0.4787  0.6439
  129MOL    H9041306   1.404   1.029   5.241 -0.5237  0.0051 -0.0669
  129MOL    H9141307   1.565   0.966   5.503  1.1818  0.0888 -0.2993
  129MOL    H9241308   1.351   0.928   5.762  0.3617 -1.0883  0.6062
  129MOL    H9341309   1.512   0.968   5.701  0.4616  2.4653  0.9199
  129MOL    H9441310   1.431   1.079   5.807  1.1155  1.5934 -2.0160
  129MOL    H9541311   1.221   1.131   5.778 -0.4294  1.5018 -0.2128
  129MOL    H9641312   1.137   1.087   5.626  1.1905 -0.7280 -0.2946
  129MOL    H9741313   1.215   1.245   5.652  0.0811  0.0896 -1.4564
  129MOL    C9841314   1.637   1.137   5.435  0.9564 -0.3416  0.3740
  129MOL    C9941315   1.696   1.196   5.572  0.1134 -0.6763 -0.1512
  129MOL   C10041316   1.739   1.344   5.561 -0.4968 -0.3284  0.0431
  129MOL   O10141317   1.852   1.363   5.527 -0.4962  0.3422 -0.2898
  129MOL   N10241318   1.652   1.446   5.584  0.1290 -0.2227 -0.0294
  129MOL   C10341319   1.515   1.428   5.623  0.3362 -0.6209 -0.8545
  129MOL   C10441320   1.692   1.588   5.580 -0.4382 -0.0082  0.1341
  129MOL   H10541321   1.719   1.105   5.370 -0.8651 -1.5436 -1.3567
  129MOL   H10641322   1.602   1.228   5.387 -1.3622 -1.5054 -0.1808
  129MOL   H10741323   1.615   1.190   5.644 -0.7218 -1.7310 -1.1562
  129MOL   H10841324   1.457   1.519   5.637  1.2307 -0.1997  0.2444
  129MOL   H10941325   1.468   1.389   5.533 -2.8196 -2.5906  1.5666
  129MOL   H11041326   1.499   1.379   5.719 -0.6632 -1.6222 -1.5223
  129MOL   H11141327   1.800   1.597   5.577 -0.1048 -3.4842 -2.0848
  129MOL   H11241328   1.644   1.643   5.661 -2.4392 -1.6313  0.0718
  129MOL   H11341329   1.657   1.632   5.486  0.2827  0.1951 -0.0443
  129MOL   C11441330   1.804   1.108   5.630  0.4821  0.1091 -0.7137
  129MOL   C11541331   1.842   1.124   5.784  0.5610 -0.3821  0.2697
  129MOL   C11641332   1.726   1.093   5.877 -0.8246 -0.5472  0.3465
  129MOL   O11741333   1.663   1.187   5.932 -0.5189 -0.2042 -0.5617
  129MOL   N11841334   1.693   0.966   5.910  0.3736 -0.2870  0.1469
  129MOL   C11941335   1.583   0.929   6.006 -0.3339  0.1899 -0.0688
  129MOL   C12041336   1.750   0.852   5.849  0.3350 -0.2342 -1.1273
  129MOL   H12141337   1.773   1.005   5.610 -0.1375 -0.0818  1.1449
  129MOL   H12241338   1.896   1.111   5.571  1.9097 -0.3532  1.4137
  129MOL   H12341339   1.915   1.043   5.795  0.2247 -0.5458  1.3849
  129MOL   H12441340   1.523   0.848   5.966  1.0079 -0.0081 -1.6947
  129MOL   H12541341   1.631   0.876   6.089  2.5180  1.4549 -0.8465
  129MOL   H12641342   1.522   1.012   6.042  0.5142  0.4855  0.7368
  129MOL   H12741343   1.858   0.844   5.856  0.3148 -0.4636 -1.0607
  129MOL   H12841344   1.720   0.861   5.745  2.7603 -0.5009 -1.8829
  129MOL   H12941345   1.713   0.760   5.894 -1.5088  0.7027 -0.6654
  129MOL   C13041346   1.920   1.252   5.823 -0.0635  0.1259  0.8851
  129MOL   C13141347   1.967   1.260   5.967  0.4641  0.2429 -0.5530
  129MOL   C13241348   2.034   1.401   5.994 -0.2981 -0.6035 -0.3483
  129MOL   O13341349   2.142   1.433   5.943  0.3085 -0.0073  0.5253
  129MOL   N13441350   1.971   1.486   6.082 -0.4943  0.2272  0.0102
  129MOL   C13541351   1.831   1.474   6.123  0.3221  0.2233 -0.1325
  129MOL   C13641352   2.037   1.609   6.128  0.9112 -0.0448  0.7050
  129MOL   H13741353   1.998   1.283   5.752  0.0520 -0.2727  0.8396
  129MOL   H13841354   1.856   1.340   5.811  0.4648  0.2113 -1.7090
  129MOL   H13941355   1.880   1.252   6.032 -0.0972 -3.4940 -1.6945
  129MOL   H14041356   1.769   1.447   6.037  0.3725 -0.5432  0.0682
  129MOL   H14141357   1.822   1.386   6.187  3.5833 -0.1455 -0.1206
  129MOL   H14241358   1.787   1.557   6.179 -3.5269 -2.6387  1.2848
  129MOL   H14341359   2.145   1.619   6.119  0.7778  1.3420  0.5564
  129MOL   H14441360   2.032   1.610   6.237  0.7724 -1.2153  0.7172
  129MOL   H14541361   1.990   1.698   6.087  1.7873  0.9287  1.7969
  129MOL   C14641362   2.070   1.139   6.004 -0.0469  1.4687  0.1342
  129MOL   C14741363   2.032   1.053   6.119 -0.4482 -0.0809  0.6752
  129MOL   C14841364   2.039   1.129   6.250  0.3892 -0.1726  0.4247
  129MOL   O14941365   2.146   1.183   6.273 -0.0487 -0.4823 -0.3849
  129MOL   N15041366   1.932   1.138   6.332 -0.2350 -0.1058 -0.4712
  129MOL   C15141367   1.793   1.087   6.303  0.2083 -0.3434  0.6678
  129MOL   C15241368   1.937   1.236   6.442  0.1851 -0.3207 -0.5499
  129MOL   H15341369   2.091   1.080   5.914 -2.3983 -1.8846  1.7230
  129MOL   H15441370   2.168   1.181   6.029  0.1263  0.3762  1.3347
  129MOL   H15541371   1.930   1.020   6.101 -0.6499  1.6451 -1.5508
  129MOL   H15641372   1.742   1.158   6.238  1.4112  0.9290  1.0690
  129MOL   H15741373   1.803   0.994   6.248 -0.2552 -0.4280  0.7257
  129MOL   H15841374   1.748   1.053   6.396 -1.2020 -1.3652 -0.3825
  129MOL   H15941375   2.016   1.221   6.516 -0.5894  1.4433  0.6845
  129MOL   H16041376   1.838   1.223   6.487 -0.1989 -0.9197 -1.5499
  129MOL   H16141377   1.954   1.331   6.392 -1.0497 -0.4454 -1.2287
  129MOL   C16241378   2.129   0.927   6.135  0.1753 -0.2101 -0.7312
  129MOL   C16341379   2.052   0.787   6.117  0.4674 -0.4259 -0.4942
  129MOL   C16441380   1.961   0.758   6.231  0.4483  0.3260 -0.4996
  129MOL   O16541381   1.983   0.818   6.335 -0.3920  0.3205  0.2923
  129MOL   N16641382   1.842   0.694   6.214 -0.5118  0.5523 -0.9388
  129MOL   C16741383   1.729   0.694   6.310 -0.7583 -0.1205  0.0568
  129MOL   C16841384   1.820   0.592   6.111  0.0415  0.3093  0.5668
  129MOL   H16941385   2.220   0.930   6.075  0.0585  0.0570 -0.8961
  129MOL   H17041386   2.173   0.920   6.234 -3.8655 -1.1395  1.1105
  129MOL   H17141387   1.994   0.805   6.026 -1.5348 -1.0279  0.6325
  129MOL   H17241388   1.733   0.792   6.357 -2.1538 -0.7134  1.4661
  129MOL   H17341389   1.628   0.685   6.269 -0.4332 -1.8365 -0.4100
  129MOL   H17441390   1.737   0.624   6.393  0.1648  0.4755  0.4700
  129MOL   H17541391   1.731   0.613   6.052  0.5563  1.8347  0.3023
  129MOL   H17641392   1.807   0.497   6.163  0.3729  0.0436  0.1578
  129MOL   H17741393   1.905   0.577   6.046 -1.9008  0.7981 -2.1615
  129MOL   C17841394   2.164   0.684   6.102 -0.7139 -0.3825 -0.5042
  129MOL   C17941395   2.236   0.675   5.968  0.1542 -0.0054  0.2918
  129MOL   C18041396   2.136   0.664   5.845  0.3598 -0.0249  0.2692
  129MOL   O18141397   2.063   0.567   5.843  0.1912  0.5189 -0.3583
  129MOL   N18241398   2.143   0.751   5.739  0.2862 -0.1446 -0.1631
  129MOL   C18341399   2.236   0.860   5.718 -0.0932  0.2508  0.0497
  129MOL   C18441400   2.065   0.720   5.617  0.4703  0.4727  0.2980
  129MOL   H18541401   2.233   0.698   6.185 -0.1776 -0.5908 -0.9191
  129MOL   H18641402   2.126   0.582   6.114  1.1141 -1.1412 -0.9788
  129MOL   H18741403   2.289   0.769   5.959  1.1527 -0.3868  2.0021
  129MOL   H18841404   2.338   0.823   5.709 -0.2786 -1.2879  3.6229
  129MOL   H18941405   2.225   0.917   5.625  2.2255  2.5612  1.1380
  129MOL   H19041406   2.236   0.932   5.799 -0.1031  0.8592 -0.4830
  129MOL   H19141407   2.121   0.703   5.525 -3.2330  1.4239 -2.2505
  129MOL   H19241408   2.004   0.809   5.601 -0.9212  0.3120  4.2661
  129MOL   H19341409   1.999   0.633   5.629 -0.7501  1.4634  0.8667
  129MOL   C19441410   2.346   0.570   5.974 -0.8698 -0.4954  0.2762
  129MOL   C19541411   2.487   0.621   5.935  0.1851  0.0542  0.1273
  129MOL   C19641412   2.577   0.494   5.926 -0.4678 -0.3092  0.3558
  129MOL   O19741413   2.643   0.459   6.024 -0.2962 -0.5108  0.0849
  129MOL   N19841414   2.600   0.431   5.811  0.6018 -0.4847  0.0056
  129MOL   C19941415   2.714   0.348   5.789 -0.0596 -0.2579  0.2350
  129MOL   C20041416   2.524   0.463   5.694 -0.3032 -0.0253 -0.2950
  129MOL   H20141417   2.356   0.535   6.077  0.4615 -0.2084  0.2426
  129MOL   H20241418   2.317   0.483   5.915  0.8481  0.0772 -1.4353
  129MOL   H20341419   2.476   0.670   5.839  0.2911  0.4879  0.3345
  129MOL   H20441420   2.799   0.416   5.789  0.0768 -0.4264  0.7485
  129MOL   H20541421   2.735   0.269   5.861  0.8615  0.9172  1.2724
  129MOL   H20641422   2.723   0.306   5.688  1.7325 -0.3720  0.4279
  129MOL   H20741423   2.548   0.562   5.656  1.4657 -0.8411 -1.3674
  129MOL   H20841424   2.417   0.447   5.710  0.2329 -2.9154  0.8234
  129MOL   H20941425   2.535   0.386   5.617  0.1397 -0.7430  0.4625
  129MOL   C21041426   2.537   0.729   6.034 -0.1044 -0.5299 -0.1101
  129MOL   C21141427   2.642   0.834   5.984 -0.8723  1.1763 -0.6006
  129MOL   C21241428   2.576   0.928   5.876 -0.0026  0.1361  0.8135
  129MOL   O21341429   2.589   0.899   5.756  0.0305 -0.4322 -0.0221
  129MOL   N21441430   2.503   1.035   5.910 -0.3563  0.2935  0.3699
  129MOL   C21541431   2.508   1.089   6.042  0.0935  0.2380 -0.2329
  129MOL   C21641432   2.444   1.120   5.803  0.4718  0.3149  0.5285
  129MOL   H21741433   2.455   0.786   6.078  0.3439  0.0712 -0.0498
  129MOL   H21841434   2.587   0.683   6.119 -0.0227 -0.1816  0.0255
  129MOL   H21941435   2.667   0.888   6.076  0.3083 -2.4567  1.2768
  129MOL   H22041436   2.476   1.193   6.035  1.4349  0.8036  1.7805
  129MOL   H22141437   2.436   1.054   6.115 -2.1456  3.4488 -0.8071
  129MOL   H22241438   2.605   1.085   6.091 -0.2285 -1.4785  0.3110
  129MOL   H22341439   2.472   1.225   5.806  1.3040  0.0883  0.9952
  129MOL   H22441440   2.337   1.128   5.823  0.4954 -1.6262  1.5229
  129MOL   H22541441   2.455   1.088   5.700  1.2239 -1.1833  1.0450
  129MOL   C22641442   2.772   0.766   5.931 -0.2416  0.4564  0.1236
  129MOL   C22741443   2.891   0.856   5.873  0.7211  0.1465  0.0802
  129MOL   C22841444   3.014   0.769   5.841 -0.0642 -1.4280  0.1802
  129MOL   O22941445   3.081   0.722   5.934 -0.9193 -0.5879 -0.1718
  129MOL   N23041446   3.053   0.767   5.712 -0.5093 -0.0212 -0.3663
  129MOL   C23141447   3.174   0.690   5.681 -0.4043 -0.5422 -0.1302
  129MOL   C23241448   2.973   0.822   5.594  0.3219  0.3471 -0.4808
  129MOL   H23341449   2.809   0.713   6.018  1.6975 -0.0280 -0.9784
  129MOL   H23441450   2.763   0.683   5.860  1.4818  0.8089 -0.5229
  129MOL   H23541451   2.839   0.902   5.789  0.8556 -0.5561 -0.3876
  129MOL   H23641452   3.193   0.692   5.574 -2.2460 -2.1424 -0.5060
  129MOL   H23741453   3.265   0.739   5.717 -1.1935 -0.1761  1.4188
  129MOL   H23841454   3.176   0.590   5.723  0.9159  0.6368  2.7589
  129MOL   H23941455   3.019   0.797   5.499 -0.9738 -0.3334 -0.9370
  129MOL   H24041456   2.948   0.928   5.596 -2.7550 -0.3100 -1.6429
  129MOL   H24141457   2.883   0.761   5.583 -0.1964  1.3091 -1.7057
  129MOL   C24241458   2.929   0.968   5.969 -0.4552 -0.3068 -0.1459
  129MOL   C24341459   3.033   1.066   5.923 -0.2563  0.0548  0.2069
  129MOL   C24441460   3.169   1.075   6.011 -0.2059 -0.2383  0.1215
  129MOL   O24541461   3.151   1.092   6.133  0.1832 -0.1931  0.6335
  129MOL   N24641462   3.289   1.053   5.956 -0.3390  0.4196  0.0784
  129MOL   C24741463   3.307   1.055   5.810 -0.5832 -0.3226 -0.4499
  129MOL   C24841464   3.406   1.048   6.040  0.5388  0.5480  0.0901
  129MOL   H24941465   2.839   1.025   5.993  0.0167  0.4316 -0.1012
  129MOL   H25041466   2.946   0.921   6.066  1.9964  0.2861 -0.2356
  129MOL   H25141467   3.058   1.050   5.818  0.5502 -4.4860  0.9893
  129MOL   H25241468   3.279   1.144   5.754 -4.2172 -2.2025 -1.7777
  129MOL   H25341469   3.409   1.044   5.774  0.4833  0.7504  2.0768
  129MOL   H25441470   3.258   0.964   5.774 -1.0102 -1.2560  2.3208
  129MOL   H25541471   3.437   1.149   6.069 -1.1967  0.0023  4.0819
  129MOL   H25641472   3.501   1.017   5.996  1.5481 -0.2916  2.7744
  129MOL   H25741473   3.386   0.989   6.129  3.2827 -0.0296  0.3827
  129MOL   C25841474   2.966   1.204   5.916 -0.5067  0.2060 -0.7097
  129MOL   C25941475   2.886   1.226   5.787  0.5441  1.0266  0.3005
  129MOL   C26041476   2.974   1.265   5.665 -0.8119  0.6552  0.1687
  129MOL   O26141477   3.064   1.343   5.694  0.3550 -0.0788  0.2611
  129MOL   N26241478   2.966   1.201   5.546  0.0580  0.4678  0.4140
  129MOL   C26341479   3.071   1.218   5.446  0.4017  0.8758 -0.8120
  129MOL   C26441480   2.828   1.177   5.494  0.5847  0.2568 -0.0234
  129MOL   H26541481   2.908   1.226   6.005  0.8014  1.4873 -0.1648
  129MOL   H26641482   3.042   1.282   5.912 -1.4928  1.3640  2.1629
  129MOL   H26741483   2.836   1.130   5.772  0.5993  0.9562  0.5631
  129MOL   H26841484   3.168   1.236   5.490 -0.0831 -0.8086  1.0434
  129MOL   H26941485   3.081   1.125   5.390  0.7274 -0.5278  1.5090
  129MOL   H27041486   3.029   1.299   5.387 -1.3308  1.8100  1.6470
  129MOL   H27141487   2.824   1.081   5.443  0.6081 -0.3663  1.1314
  129MOL   H27241488   2.797   1.256   5.427 -1.5890 -0.7260 -0.2461
  129MOL   H27341489   2.754   1.166   5.574 -0.3861 -0.2939 -0.9754
  129MOL   C27441490   2.762   1.315   5.810 -0.6834 -0.5681 -0.0010
  129MOL   C27541491   2.783   1.464   5.846 -0.5942 -0.0894  0.4959
  129MOL   C27641492   2.806   1.474   6.003  0.3915  0.0924 -0.1438
  129MOL   O27741493   2.704   1.446   6.074  0.1471 -0.4727  0.0845
  129MOL   N27841494   2.917   1.520   6.062  0.2671  0.6799 -0.5921
  129MOL   C27941495   3.041   1.550   5.997 -0.6934  0.4656 -0.6520
  129MOL   C28041496   2.918   1.544   6.205  0.2413 -0.1801  0.1904
  129MOL   H28141497   2.691   1.305   5.727  0.3324  2.2470 -1.2883
  129MOL   H28241498   2.704   1.284   5.896  1.3933 -0.2377  1.5453
  129MOL   H28341499   2.870   1.498   5.790 -0.3091  0.3247  1.1723
  129MOL   H28441500   3.121   1.498   6.049 -0.3570 -1.5180 -3.0907
  129MOL   H28541501   3.046   1.536   5.889  0.5516 -2.0061 -0.3153
  129MOL   H28641502   3.063   1.654   6.020 -1.1752  0.1231  1.4923
  129MOL   H28741503   3.015   1.541   6.254  1.1737 -0.9842 -1.6865
  129MOL   H28841504   2.864   1.469   6.263 -1.3461 -0.9534 -2.2115
  129MOL   H28941505   2.871   1.642   6.220 -0.7327 -0.3736 -1.4709
  129MOL   C29041506   2.658   1.550   5.795  0.2361  0.4079  0.7826
  129MOL   C29141507   2.668   1.705   5.823  0.3784 -0.8569  0.2211
  129MOL   C29241508   2.525   1.760   5.824  0.4622  0.9519 -0.3539
  129MOL   O29341509   2.480   1.814   5.724 -0.0118 -0.1303  0.5433
  129MOL   N29441510   2.440   1.750   5.931  0.3312 -0.4740 -0.3947
  129MOL   C29541511   2.486   1.694   6.054 -0.8041 -0.0956  0.1070
  129MOL   C29641512   2.302   1.806   5.929  0.3262  0.6299  0.2278
  129MOL   H29741513   2.636   1.541   5.689 -1.9193 -0.2591  1.2459
  129MOL   H29841514   2.577   1.500   5.849  1.8068 -3.1304 -0.0252
  129MOL   H29941515   2.709   1.716   5.924  2.4116  1.4051 -0.7941
  129MOL   H30041516   2.519   1.592   6.035 -0.3216  0.6811 -3.4804
  129MOL   H30141517   2.567   1.756   6.093  1.8232 -1.1351 -3.4607
  129MOL   H30241518   2.399   1.704   6.119 -0.2109 -2.8130  1.3962
  129MOL   H30341519   2.280   1.880   5.853  1.3005 -1.2700 -1.9614
  129MOL   H30441520   2.270   1.854   6.022 -0.8591 -1.3205  0.8619
  129MOL   H30541521   2.232   1.724   5.908  0.1850  0.4050  1.5374
  129MOL   C30641522   2.761   1.770   5.716  1.4170 -0.2069 -0.1556
  129MOL   C30741523   2.786   1.925   5.741 -0.5970 -0.2201  0.9308
  129MOL   C30841524   2.856   1.989   5.626 -0.6607 -0.7225  0.1539
  129MOL   O30941525   2.885   1.915   5.531 -0.0076 -0.7508  0.4637
  129MOL   N31041526   2.884   2.115   5.627 -0.2866 -0.1417 -0.4147
  129MOL   C31141527   2.861   2.203   5.745 -0.0015  0.0754 -0.4293
  129MOL   C31241528   2.932   2.196   5.516  0.0921  0.4066 -0.5157
  129MOL   H31341529   2.856   1.717   5.711  0.9902 -1.3375  2.5782
  129MOL   H31441530   2.707   1.756   5.622  1.2552 -0.3032 -0.0494
  129MOL   H31541531   2.687   1.970   5.748 -1.3711 -1.3858 -1.6865
  129MOL   H31641532   2.931   2.286   5.751 -0.3011  0.1853  2.8518
  129MOL   H31741533   2.761   2.249   5.746  0.0297  0.2416  3.1605
  129MOL   H31841534   2.881   2.145   5.835  1.3467  0.2161 -0.6307
  129MOL   H31941535   2.868   2.282   5.493 -1.0955  0.0049  1.1962
  129MOL   H32041536   2.927   2.142   5.422  0.0111 -1.3118  0.4615
  129MOL   H32141537   3.033   2.230   5.537 -0.2005 -0.1508  1.9606
  129MOL   H32241538   2.833   1.935   5.838 -1.4107  0.0361  1.2993
  130MOL     C141539   5.162   3.354   1.201 -1.0816 -0.0576 -0.3283
  130MOL     C241540   5.208   3.356   1.053  0.0654  0.1604  0.1158
  130MOL     C341541   5.298   3.236   1.017  0.4167  0.1707 -1.3334
  130MOL     O441542   5.417   3.240   1.047 -0.1173 -0.4541 -0.1637
  130MOL     N541543   5.244   3.131   0.951 -0.3259  0.5132 -0.4347
  130MOL     C641544   5.102   3.112   0.936 -0.2370  0.4948  0.5510
  130MOL     C741545   5.317   3.001   0.946 -0.0777  0.2371  0.1492
  130MOL     H841546   5.160   3.256   1.249  0.4791  0.7026  1.3249
  130MOL     H941547   5.063   3.400   1.205 -0.5809  0.9049  1.3812
  130MOL    H1041548   5.127   3.363   0.980 -1.7362 -0.0047  2.0413
  130MOL    H1141549   5.043   3.194   0.896 -1.3237 -1.6794 -2.5436
  130MOL    H1241550   5.083   3.052   0.847 -0.3302  0.2247  0.7495
  130MOL    H1341551   5.046   3.073   1.021  1.7489 -1.4025  1.0559
  130MOL    H1441552   5.299   2.940   0.857 -0.3090  0.0661  0.3118
  130MOL    H1541553   5.278   2.938   1.025  0.2971 -0.0584  0.0998
  130MOL    H1641554   5.425   2.992   0.959 -0.0354  0.4412 -0.0519
  130MOL    H1741555   5.216   3.412   1.276 -2.1929  1.2691 -0.5304
  130MOL    C1841556   5.292   3.482   1.022  0.3124 -0.4667  0.0873
  130MOL    C1941557   5.205   3.604   1.003  0.3465  0.1959  0.1721
  130MOL    C2041558   5.162   3.634   0.854  0.2418  0.2570 -0.8159
  130MOL    O2141559   5.230   3.603   0.761 -0.2882 -0.1755 -0.2263
  130MOL    N2241560   5.040   3.694   0.825 -0.3374 -0.7489 -0.7354
  130MOL    C2341561   4.944   3.738   0.924 -0.0687  0.0766  0.0626
  130MOL    C2441562   4.995   3.712   0.690  0.9474  0.3247  0.3761
  130MOL    H2541563   5.367   3.497   1.101  1.0950 -0.5231 -0.6416
  130MOL    H2641564   5.356   3.477   0.934 -0.3580 -1.7481 -0.3334
  130MOL    H2741565   5.114   3.580   1.059 -0.4066  1.9019 -0.2997
  130MOL    H2841566   4.857   3.673   0.910  1.5754 -2.2413  0.2451
  130MOL    H2941567   4.977   3.729   1.028  0.6283  0.6774 -0.1099
  130MOL    H3041568   4.908   3.838   0.904 -1.0839 -0.2673  0.1265
  130MOL    H3141569   4.898   3.761   0.680  1.0702  0.6955  0.9916
  130MOL    H3241570   4.980   3.618   0.637  0.3377  1.1728 -0.9826
  130MOL    H3341571   5.072   3.766   0.635  0.5924  1.4718  1.0068
  130MOL    C3441572   5.258   3.734   1.064 -0.2199 -0.7079 -0.5367
  130MOL    C3541573   5.392   3.795   1.006  0.4711  0.7615  0.0302
  130MOL    C3641574   5.515   3.706   1.041  0.1393  0.1081  0.1524
  130MOL    O3741575   5.537   3.677   1.162  0.5876 -0.1351  0.3854
  130MOL    N3841576   5.602   3.662   0.948  0.1250 -0.6014  0.0151
  130MOL    C3941577   5.588   3.687   0.804  0.1116 -0.5306  0.0581
  130MOL    C4041578   5.727   3.591   0.975 -0.5672 -0.5154  0.3433
  130MOL    H4141579   5.193   3.821   1.069  0.4349 -0.2502  0.1381
  130MOL    H4241580   5.256   3.726   1.173 -0.5706  2.0129 -0.2991
  130MOL    H4341581   5.381   3.809   0.898 -0.3857  1.3177  0.1813
  130MOL    H4441582   5.667   3.672   0.730  1.2492  2.0032  0.6756
  130MOL    H4541583   5.495   3.644   0.768 -1.2870  1.2078  1.4744
  130MOL    H4641584   5.565   3.793   0.791 -0.9660 -1.0683 -2.8633
  130MOL    H4741585   5.803   3.596   0.898  0.6114 -2.1558  1.3789
  130MOL    H4841586   5.696   3.488   0.991 -2.1532 -0.1266 -0.0312
  130MOL    H4941587   5.769   3.631   1.067  0.8877 -1.9065  0.2893
  130MOL    C5041588   5.410   3.934   1.074  0.4072  0.2295  0.7689
  130MOL    C5141589   5.327   4.060   1.031  0.7415  0.0902  0.2151
  130MOL    C5241590   5.352   4.086   0.883  0.6437 -0.2818  0.4243
  130MOL    O5341591   5.465   4.104   0.844 -1.1047  0.0082 -0.2578
  130MOL    N5441592   5.250   4.082   0.793 -0.4405 -0.6499  0.1519
  130MOL    C5541593   5.279   4.101   0.650  0.0245  0.2493 -0.4898
  130MOL    C5641594   5.110   4.070   0.820 -0.8938  0.6773 -0.4072
  130MOL    H5741595   5.400   3.912   1.180  1.2234 -2.2776  0.3540
  130MOL    H5841596   5.517   3.953   1.075  1.0965 -3.2619  0.5404
  130MOL    H5941597   5.224   4.032   1.053  1.2730 -2.1683 -0.0268
  130MOL    H6041598   5.362   4.039   0.614  0.9883  0.1005  1.9241
  130MOL    H6141599   5.200   4.069   0.582  0.5594 -0.5988 -0.7262
  130MOL    H6241600   5.296   4.206   0.630  0.9787 -0.1595 -1.9216
  130MOL    H6341601   5.081   3.966   0.805  0.2477  0.5349 -1.8104
  130MOL    H6441602   5.052   4.150   0.774  0.1724 -0.7777 -4.5232
  130MOL    H6541603   5.080   4.086   0.924 -1.0460  0.8096 -0.4712
  130MOL    C6641604   5.384   4.179   1.109  0.6907 -0.1296 -0.0433
  130MOL    C6741605   5.299   4.313   1.102  0.0341 -0.3281 -0.0296
  130MOL    C6841606   5.343   4.399   0.983  0.7332 -0.8047  0.6567
  130MOL    O6941607   5.463   4.431   0.987  0.0462 -0.0110  0.4143
  130MOL    N7041608   5.260   4.444   0.885 -0.2555  0.5326  0.2035
  130MOL    C7141609   5.311   4.543   0.793  0.2683  0.0289  0.1791
  130MOL    C7241610   5.116   4.427   0.886  0.1460 -0.0728 -0.2142
  130MOL    H7341611   5.388   4.135   1.209  0.8887 -1.4913 -0.6398
  130MOL    H7441612   5.485   4.190   1.071  0.7176  0.1696  0.1094
  130MOL    H7541613   5.195   4.287   1.085  0.4100 -1.1973 -1.0833
  130MOL    H7641614   5.388   4.499   0.729 -0.0866  1.1619 -1.0598
  130MOL    H7741615   5.234   4.601   0.743 -1.4141 -1.5926  0.8203
  130MOL    H7841616   5.376   4.615   0.842 -1.0911  0.8005  0.8491
  130MOL    H7941617   5.077   4.505   0.951 -0.5933  1.1557 -2.1133
  130MOL    H8041618   5.078   4.330   0.919 -1.0259  0.7831  1.0346
  130MOL    H8141619   5.067   4.456   0.794  2.2073 -1.5256 -1.8189
  130MOL    C8241620   5.317   4.384   1.240 -0.6960 -0.9465  0.0298
  130MOL    C8341621   5.231   4.515   1.270  1.0107 -0.6087  0.3857
  130MOL    C8441622   5.321   4.642   1.276 -0.7251 -0.2131 -0.5643
  130MOL    O8541623   5.409   4.640   1.361 -0.7159  0.4268  0.0773
  130MOL    N8641624   5.297   4.754   1.197 -1.0852 -0.2710 -0.2716
  130MOL    C8741625   5.372   4.872   1.228  0.0821 -0.4534 -0.2228
  130MOL    C8841626   5.210   4.762   1.083 -0.5474  0.8460 -0.6950
  130MOL    H8941627   5.285   4.318   1.319  0.1005 -1.6353 -0.2165
  130MOL    H9041628   5.420   4.393   1.276  0.4129  0.4451 -3.2792
  130MOL    H9141629   5.156   4.520   1.191  1.1545  0.5211  0.3085
  130MOL    H9241630   5.341   4.904   1.327 -1.8543  1.1377 -1.2966
  130MOL    H9341631   5.476   4.840   1.227  0.7824  1.6407  1.1128
  130MOL    H9441632   5.347   4.956   1.163 -0.6951  0.8315  1.6719
  130MOL    H9541633   5.105   4.778   1.108 -0.5222  0.2419 -0.1770
  130MOL    H9641634   5.224   4.674   1.021  2.1746  0.2423  0.6968
  130MOL    H9741635   5.247   4.843   1.020 -1.0447  0.8492 -0.9791
  130MOL    C9841636   5.157   4.497   1.400 -0.5222 -0.0986 -1.1258
  130MOL    C9941637   5.083   4.618   1.464 -0.2586 -0.3720 -0.3278
  130MOL   C10041638   5.045   4.585   1.608  0.5062 -0.4364  0.2139
  130MOL   O10141639   4.966   4.496   1.630 -0.0628  0.0136 -0.2708
  130MOL   N10241640   5.101   4.660   1.706  1.0395  0.1242 -0.8351
  130MOL   C10341641   5.062   4.621   1.843 -0.2845 -0.6319 -0.5744
  130MOL   C10441642   5.195   4.772   1.690  0.5156 -0.1866  0.1093
  130MOL   H10541643   5.088   4.414   1.397 -0.1285 -0.3904 -2.5088
  130MOL   H10641644   5.231   4.465   1.474  0.0287  2.8048 -0.3138
  130MOL   H10741645   5.142   4.709   1.460 -1.5330  0.5231  0.6605
  130MOL   H10841646   4.953   4.616   1.849 -0.3867  2.0121  0.5130
  130MOL   H10941647   5.115   4.531   1.872 -0.2186 -0.5133 -0.3288
  130MOL   H11041648   5.090   4.700   1.912  0.5489  0.2368 -1.8851
  130MOL   H11141649   5.154   4.860   1.640 -0.6788 -0.4101  0.6508
  130MOL   H11241650   5.284   4.738   1.639  0.3428 -0.1972 -0.1859
  130MOL   H11341651   5.227   4.817   1.784  0.3221 -0.6495  0.3987
  130MOL   C11441652   4.946   4.648   1.397 -0.5974  0.2156  0.4494
  130MOL   C11541653   4.888   4.788   1.424  0.3724  0.4198 -0.3043
  130MOL   C11641654   4.737   4.788   1.368  0.4526  0.2132 -0.0449
  130MOL   O11741655   4.731   4.759   1.249  0.1685  0.1211  0.2772
  130MOL   N11841656   4.628   4.819   1.444 -0.3308  0.2021 -0.0860
  130MOL   C11941657   4.631   4.798   1.590 -0.3186  0.6538  0.6472
  130MOL   C12041658   4.496   4.834   1.375  0.4502  0.0756  0.1060
  130MOL   H12141659   4.958   4.631   1.290 -0.2845  2.1921  0.1607
  130MOL   H12241660   4.870   4.576   1.430  0.3420 -1.2289 -0.4522
  130MOL   H12341661   4.878   4.793   1.532  0.2662 -2.2464 -0.1578
  130MOL   H12441662   4.679   4.878   1.647 -1.2883  1.5066  0.2865
  130MOL   H12541663   4.530   4.787   1.629  0.3014 -0.9168  1.8725
  130MOL   H12641664   4.683   4.706   1.617 -0.3138  0.0102 -1.4274
  130MOL   H12741665   4.418   4.762   1.398  2.5484 -2.1285  0.4886
  130MOL   H12841666   4.492   4.834   1.266  1.1526 -0.0879  0.0788
  130MOL   H12941667   4.452   4.931   1.400 -0.8886  0.3666 -3.1236
  130MOL   C13041668   4.975   4.902   1.367  0.3673  0.0070 -0.5741
  130MOL   C13141669   4.927   5.046   1.386  0.1970 -0.6372  0.0743
  130MOL   C13241670   4.937   5.136   1.259 -0.0648 -0.3334 -0.4917
  130MOL   O13341671   5.048   5.166   1.228  0.1421  0.5500 -0.1294
  130MOL   N13441672   4.831   5.182   1.190  0.4193  0.4996 -0.4652
  130MOL   C13541673   4.689   5.162   1.217 -0.3898  0.3520 -0.1148
  130MOL   C13641674   4.848   5.278   1.076  0.5927 -0.0257  0.2212
  130MOL   H13741675   5.078   4.889   1.401  0.0728  1.5156  0.9608
  130MOL   H13841676   4.981   4.886   1.259 -0.8986 -1.2195 -0.4746
  130MOL   H13941677   4.820   5.048   1.405  0.0059 -4.1876 -0.4149
  130MOL   H14041678   4.621   5.222   1.157 -0.1282  0.2443 -0.5199
  130MOL   H14141679   4.662   5.058   1.197 -0.7529  0.5757 -0.7930
  130MOL   H14241680   4.660   5.181   1.321 -0.8741  0.5431 -0.2828
  130MOL   H14341681   4.772   5.356   1.078 -0.1809 -0.7482 -0.4660
  130MOL   H14441682   4.850   5.225   0.980  0.8987  0.4085 -0.0109
  130MOL   H14541683   4.943   5.331   1.078  0.4569  0.1671  2.6830
  130MOL   C14641684   4.997   5.107   1.512  0.7212  0.3169  0.2847
  130MOL   C14741685   4.970   5.260   1.544 -0.0336  0.1737  0.5900
  130MOL   C14841686   5.063   5.303   1.658 -0.8477  0.2693 -0.0831
  130MOL   O14941687   5.019   5.322   1.772  0.2328  0.0123  0.4567
  130MOL   N15041688   5.200   5.324   1.628 -0.1051 -0.6695  0.3471
  130MOL   C15141689   5.276   5.385   1.734 -0.1974 -0.2047  0.2665
  130MOL   C15241690   5.255   5.324   1.489 -0.1148 -0.2797 -0.3302
  130MOL   H15341691   4.977   5.051   1.604  0.8443 -1.6797 -0.8572
  130MOL   H15441692   5.104   5.098   1.493  0.4246  1.3161 -1.9438
  130MOL   H15541693   4.991   5.316   1.453 -4.0551 -2.8445 -2.3206
  130MOL   H15641694   5.243   5.347   1.831  0.0795 -0.1344  0.3886
  130MOL   H15741695   5.380   5.356   1.723 -0.1425 -0.5147  1.5808
  130MOL   H15841696   5.247   5.490   1.733 -1.2746 -0.4689 -2.8803
  130MOL   H15941697   5.272   5.218   1.468 -1.0898 -0.8559  1.6858
  130MOL   H16041698   5.351   5.375   1.482 -0.6168  0.7234  0.0673
  130MOL   H16141699   5.190   5.373   1.417 -1.9571 -1.6215  0.3829
  130MOL   C16241700   4.823   5.284   1.579  0.5084 -0.3192 -0.1299
  130MOL   C16341701   4.784   5.438   1.594  0.0164  0.0324 -0.1296
  130MOL   C16441702   4.640   5.438   1.642  0.0368  0.6116  0.8192
  130MOL   O16541703   4.551   5.389   1.572 -0.0779 -0.5452 -0.5079
  130MOL   N16641704   4.598   5.494   1.756 -0.3144 -0.4491  0.2808
  130MOL   C16741705   4.459   5.541   1.774  0.1509 -0.3162  0.0526
  130MOL   C16841706   4.690   5.511   1.868  0.6006  0.2675  0.3356
  130MOL   H16941707   4.759   5.245   1.499  0.9431 -2.7669  0.6598
  130MOL   H17041708   4.784   5.222   1.661  1.6493 -0.5655  0.2294
  130MOL   H17141709   4.850   5.484   1.667  0.4168  0.4616 -0.7636
  130MOL   H17241710   4.393   5.527   1.689 -0.0074  1.2263 -0.0924
  130MOL   H17341711   4.403   5.482   1.847 -0.8348 -2.4263 -2.3387
  130MOL   H17441712   4.438   5.646   1.795 -2.5421 -0.5686 -1.1544
  130MOL   H17541713   4.640   5.515   1.965 -0.8453  1.1799 -0.4261
  130MOL   H17641714   4.755   5.598   1.858  0.0050  0.8186  1.2230
  130MOL   H17741715   4.749   5.419   1.874 -1.5771 -1.2188 -0.4074
  130MOL   C17841716   4.783   5.513   1.458  0.4682  0.8148 -0.0055
  130MOL   C17941717   4.844   5.657   1.457  0.4423  0.3498  0.0959
  130MOL   C18041718   4.994   5.643   1.445  0.4319 -0.0874  0.3222
  130MOL   O18141719   5.052   5.580   1.533  0.0117 -0.2699 -0.0509
  130MOL   N18241720   5.064   5.696   1.342  0.5160  0.4241  0.7296
  130MOL   C18341721   5.212   5.674   1.339 -0.3069 -0.1877 -0.4052
  130MOL   C18441722   5.011   5.777   1.234  0.0378 -0.9023 -0.1213
  130MOL   H18541723   4.838   5.457   1.382 -0.8923 -3.2437  1.8898
  130MOL   H18641724   4.685   5.530   1.413 -0.0351  0.4437  0.9240
  130MOL   H18741725   4.797   5.705   1.372 -0.7607 -2.1216 -0.6904
  130MOL   H18841726   5.257   5.634   1.430 -3.2801 -0.3955  1.0440
  130MOL   H18941727   5.233   5.603   1.259  1.9921  0.6854 -0.5918
  130MOL   H19041728   5.263   5.767   1.314 -2.6174  1.0692 -0.6085
  130MOL   H19141729   4.993   5.874   1.281 -1.1973 -0.9594 -0.4471
  130MOL   H19241730   4.915   5.750   1.190 -0.6376  1.0348  0.1078
  130MOL   H19341731   5.080   5.790   1.151 -0.1525  0.7308 -0.0519
  130MOL   C19441732   4.820   5.747   1.577  0.3038  0.7267 -0.0764
  130MOL   C19541733   4.819   5.900   1.537  0.2411 -0.2146 -0.1282
  130MOL   C19641734   4.878   5.984   1.655  0.3425  1.3537 -0.3594
  130MOL   O19741735   4.804   6.019   1.744 -0.8097 -0.0401  0.6433
  130MOL   N19841736   5.005   6.024   1.657  0.4131 -0.4916  0.2939
  130MOL   C19941737   5.053   6.113   1.764 -0.3082 -0.6968  0.7152
  130MOL   C20041738   5.106   5.991   1.547 -0.4639 -0.3712 -0.1518
  130MOL   H20141739   4.721   5.730   1.621 -0.5092  2.2148 -1.2826
  130MOL   H20241740   4.890   5.731   1.658 -0.5754 -1.0774  0.3550
  130MOL   H20341741   4.878   5.919   1.447  2.6702 -1.9440  1.0589
  130MOL   H20441742   5.033   6.220   1.752 -0.2503 -1.0471 -2.8528
  130MOL   H20541743   5.001   6.086   1.856 -3.0027 -3.7040 -1.6001
  130MOL   H20641744   5.159   6.104   1.787 -0.1220 -0.0809  0.1300
  130MOL   H20741745   5.198   6.043   1.568 -0.6848 -0.9985  2.4758
  130MOL   H20841746   5.074   6.020   1.446  0.4802 -1.6847 -0.8488
  130MOL   H20941747   5.122   5.883   1.557  1.8999 -0.2897 -2.4115
  130MOL   C21041748   4.673   5.943   1.498  0.7814 -0.0047 -0.3444
  130MOL   C21141749   4.653   6.091   1.431  0.2960 -0.0199 -0.5959
  130MOL   C21241750   4.628   6.199   1.532  0.1118  0.2983  0.0502
  130MOL   O21341751   4.532   6.185   1.610 -0.2241  0.3144 -0.1971
  130MOL   N21441752   4.705   6.313   1.547  0.0473 -0.2475  0.5157
  130MOL   C21541753   4.810   6.359   1.452 -0.0613 -0.6456 -0.5332
  130MOL   C21641754   4.687   6.402   1.661 -0.1883  0.7120 -0.4511
  130MOL   H21741755   4.641   5.867   1.426  0.0007  0.0637 -0.0750
  130MOL   H21841756   4.617   5.927   1.590  0.4902 -3.8660 -1.1170
  130MOL   H21941757   4.753   6.107   1.391  1.0391  0.2014  1.2811
  130MOL   H22041758   4.821   6.467   1.443  0.7136 -0.7714 -1.1700
  130MOL   H22141759   4.909   6.316   1.468 -0.5678 -1.4404  0.4862
  130MOL   H22241760   4.796   6.325   1.350  0.5186  0.8080 -1.1149
  130MOL   H22341761   4.759   6.483   1.668 -0.0187  0.3075  3.8908
  130MOL   H22441762   4.689   6.341   1.751  0.5425 -3.8896 -3.3989
  130MOL   H22541763   4.587   6.443   1.648 -0.3422  0.7035  0.6447
  130MOL   C22641764   4.551   6.105   1.308  0.2772  0.2810 -0.8073
  130MOL   C22741765   4.404   6.058   1.342  0.8368 -0.4356 -0.2690
  130MOL   C22841766   4.401   5.906   1.320 -0.6692 -0.1501  0.2439
  130MOL   O22941767   4.431   5.861   1.208 -0.2034 -0.7503 -0.2024
  130MOL   N23041768   4.366   5.824   1.417 -0.8231  1.1335 -0.0221
  130MOL   C23141769   4.316   5.869   1.549 -1.1761  0.4528 -0.4095
  130MOL   C23241770   4.383   5.679   1.404  0.4301  0.7805 -0.4114
  130MOL   H23341771   4.555   6.211   1.282  3.2583  0.8220  1.5872
  130MOL   H23441772   4.588   6.051   1.221  0.0177 -0.3455 -0.5274
  130MOL   H23541773   4.384   6.086   1.445  0.5427  0.0701 -0.4608
  130MOL   H23641774   4.213   5.907   1.552 -0.1755  3.3375 -1.0914
  130MOL   H23741775   4.317   5.782   1.615 -2.6065  0.8285  0.1263
  130MOL   H23841776   4.376   5.950   1.590  0.4402 -0.9396 -0.0072
  130MOL   H23941777   4.482   5.652   1.441  0.5449 -0.1256 -1.3493
  130MOL   H24041778   4.373   5.642   1.302 -1.3477  1.3635 -0.4706
  130MOL   H24141779   4.299   5.635   1.458 -1.4348  0.6896 -3.2508
  130MOL   C24241780   4.298   6.138   1.248  0.3553 -0.0068 -0.8675
  130MOL   C24341781   4.182   6.205   1.331 -0.2390  0.1207  0.4935
  130MOL   C24441782   4.069   6.246   1.235 -0.1041  0.7476 -0.4648
  130MOL   O24541783   4.065   6.353   1.183  0.0509 -0.5998  0.2839
  130MOL   N24641784   3.971   6.153   1.203 -0.2770  0.0276 -0.3328
  130MOL   C24741785   3.843   6.206   1.150  0.2990  0.2079 -0.3747
  130MOL   C24841786   3.970   6.004   1.228  0.2694  0.1537  0.3631
  130MOL   H24941787   4.359   6.211   1.193  0.1701 -1.2297 -2.7406
  130MOL   H25041788   4.265   6.059   1.181 -1.0147 -0.3268  0.1746
  130MOL   H25141789   4.145   6.126   1.397 -0.1721  1.4275  2.1439
  130MOL   H25241790   3.807   6.280   1.222  0.6632  0.4526 -0.4422
  130MOL   H25341791   3.868   6.269   1.066  0.5531 -1.5108 -1.6078
  130MOL   H25441792   3.759   6.141   1.124 -1.3907  1.8390  0.8442
  130MOL   H25541793   3.941   5.958   1.134  1.8734  1.2044 -0.6641
  130MOL   H25641794   3.894   5.995   1.305  0.6269 -1.1683  0.5678
  130MOL   H25741795   4.062   5.962   1.268  0.5855  0.6324  0.1475
  130MOL   C25841796   4.239   6.319   1.417 -0.4504 -0.2105 -0.0131
  130MOL   C25941797   4.140   6.385   1.524 -0.2044 -0.6214 -0.1512
  130MOL   C26041798   4.041   6.279   1.580  0.5075  0.6140 -0.1680
  130MOL   O26141799   3.940   6.260   1.516 -0.0984 -1.3207  0.8710
  130MOL   N26241800   4.060   6.204   1.693 -0.0257  0.7582  0.5308
  130MOL   C26341801   3.961   6.107   1.739  0.1435 -0.0414 -0.8248
  130MOL   C26441802   4.169   6.227   1.784  0.9301  0.2621  0.7270
  130MOL   H26541803   4.325   6.283   1.474 -0.5276  0.3613  0.4776
  130MOL   H26641804   4.274   6.398   1.351  1.2817 -1.1858 -0.3001
  130MOL   H26741805   4.207   6.414   1.606 -1.0387 -1.7859  0.9540
  130MOL   H26841806   3.941   6.028   1.666  1.4657  0.8210 -2.1472
  130MOL   H26941807   3.979   6.057   1.834 -0.1214 -1.0797 -1.3134
  130MOL   H27041808   3.871   6.167   1.752 -1.1811 -2.1817  0.1103
  130MOL   H27141809   4.186   6.144   1.854  0.8994  1.1849  1.8539
  130MOL   H27241810   4.145   6.314   1.845 -0.9630  1.2982 -1.4212
  130MOL   H27341811   4.261   6.263   1.738  0.3621  1.4559  0.5221
  130MOL   C27441812   4.071   6.514   1.477 -0.0817 -0.2652 -0.2217
  130MOL   C27541813   3.970   6.579   1.573  0.5639  0.5822 -0.1670
  130MOL   C27641814   3.909   6.704   1.509  0.1833 -0.5024  0.2106
  130MOL   O27741815   3.953   6.816   1.536 -0.2805 -0.2776 -0.3527
  130MOL   N27841816   3.799   6.692   1.431 -0.0783  0.0588 -0.3571
  130MOL   C27941817   3.752   6.574   1.367 -0.0713 -0.4414 -0.0455
  130MOL   C28041818   3.730   6.815   1.390  0.7458 -0.2215 -0.0540
  130MOL   H28141819   4.147   6.586   1.446  1.1652 -0.4647  2.2667
  130MOL   H28241820   4.013   6.479   1.391 -0.7021 -2.9996  1.2375
  130MOL   H28341821   3.894   6.504   1.590  0.4110  0.1592 -2.5562
  130MOL   H28441822   3.802   6.573   1.270  2.4286 -0.7947  1.2037
  130MOL   H28541823   3.775   6.481   1.418 -2.8927 -0.2568  1.6673
  130MOL   H28641824   3.645   6.570   1.348 -0.3102  2.4180  0.4484
  130MOL   H28741825   3.633   6.794   1.346 -0.6349  0.4546  2.6078
  130MOL   H28841826   3.787   6.880   1.323  1.8623 -0.1471  0.9563
  130MOL   H28941827   3.708   6.874   1.479 -2.5438 -2.4277  0.6719
  130MOL   C29041828   4.028   6.602   1.722  0.3705 -0.1581 -0.3309
  130MOL   C29141829   3.917   6.621   1.826  0.4342  0.0084 -0.4893
  130MOL   C29241830   3.973   6.701   1.951  0.9522  0.6749 -0.1518
  130MOL   O29341831   4.005   6.628   2.049 -0.3088 -0.2124  0.0880
  130MOL   N29441832   3.985   6.834   1.948 -0.1133 -0.4111 -0.1947
  130MOL   C29541833   4.038   6.909   2.060  0.0590  0.4369 -0.0405
  130MOL   C29641834   3.953   6.918   1.841 -0.0705 -0.5989 -0.4550
  130MOL   H29741835   4.087   6.516   1.753 -1.8777 -2.0396 -1.1361
  130MOL   H29841836   4.085   6.695   1.719 -0.0624  0.0687 -1.7057
  130MOL   H29941837   3.839   6.679   1.777  0.6928 -0.5754 -1.5997
  130MOL   H30041838   4.145   6.929   2.053  0.3917 -0.1718  2.7372
  130MOL   H30141839   3.976   6.998   2.068 -1.2872 -0.4157 -0.7218
  130MOL   H30241840   4.017   6.863   2.157  0.8150 -0.4737 -0.2993
  130MOL   H30341841   3.950   7.027   1.853 -1.6638 -0.8634  1.8837
  130MOL   H30441842   3.857   6.897   1.794  0.5947  0.2377 -2.2703
  130MOL   H30541843   4.041   6.918   1.776 -1.6266  0.2447 -2.6556
  130MOL   C30641844   3.862   6.481   1.864  0.0933 -0.2771  0.2072
  130MOL   C30741845   3.712   6.491   1.910 -0.6821  0.2088 -0.1860
  130MOL   C30841846   3.621   6.536   1.793 -0.6003  0.3312  0.1969
  130MOL   O30941847   3.624   6.473   1.685 -0.2736 -0.2721 -0.4949
  130MOL   N31041848   3.536   6.637   1.820  0.5786 -0.2505  0.4760
  130MOL   C31141849   3.536   6.728   1.937  0.1366  0.7208 -0.2317
  130MOL   C31241850   3.441   6.669   1.710 -0.2418  0.2718  1.1510
  130MOL   H31341851   3.851   6.414   1.779  1.7468  0.9948 -1.0704
  130MOL   H31441852   3.923   6.430   1.938  0.3211 -2.0107 -1.1625
  130MOL   H31541853   3.680   6.391   1.938  0.8112 -0.3032 -0.2937
  130MOL   H31641854   3.622   6.794   1.928  0.2219  0.7377  0.6228
  130MOL   H31741855   3.450   6.793   1.951 -0.7416 -0.6610  0.8895
  130MOL   H31841856   3.538   6.659   2.021  0.8633 -0.6464 -1.3422
  130MOL   H31941857   3.370   6.593   1.678 -0.1553  1.0079 -0.8819
  130MOL   H32041858   3.488   6.687   1.613 -2.0308 -1.8863 -0.1709
  130MOL   H32141859   3.379   6.756   1.731 -0.5474 -0.3617  2.9877
  130MOL   H32241860   3.704   6.552   2.000 -1.1325  1.4434 -1.0550
  131MOL     C141861   6.616   6.560   1.188  0.4342 -0.7492  0.6057
  131MOL     C241862   6.676   6.481   1.302 -0.1139 -0.3094 -1.0550
  131MOL     C341863   6.814   6.554   1.340  0.1232  0.0599  0.0805
  131MOL     O441864   6.911   6.548   1.267  0.0487  0.2865 -0.4801
  131MOL     N541865   6.824   6.628   1.457  0.2988 -0.2979 -0.3145
  131MOL     C641866   6.710   6.645   1.548  0.3664  0.0957  0.3041
  131MOL     C741867   6.950   6.690   1.503 -0.5644  0.2391  0.5418
  131MOL     H841868   6.518   6.518   1.164  0.6075 -0.8275  0.0256
  131MOL     H941869   6.686   6.568   1.105 -0.0632  3.4290  0.4967
  131MOL    H1041870   6.602   6.490   1.382  1.6700  0.4609  0.5557
  131MOL    H1141871   6.643   6.724   1.513 -1.0430 -1.5127 -0.7194
  131MOL    H1241872   6.646   6.561   1.575 -1.3858  1.2541 -0.1093
  131MOL    H1341873   6.757   6.678   1.641  0.9492 -2.2316  0.8544
  131MOL    H1441874   6.996   6.650   1.593 -0.5232 -1.0804 -0.0430
  131MOL    H1541875   6.928   6.794   1.528  0.8591  0.8906 -0.8741
  131MOL    H1641876   7.026   6.692   1.425  1.4196 -0.2863  2.4224
  131MOL    H1741877   6.599   6.662   1.221  3.5604 -0.4504  1.4671
  131MOL    C1841878   6.682   6.323   1.272  0.2459 -0.2472  0.3703
  131MOL    C1941879   6.683   6.231   1.393  0.5418  0.3265  0.3969
  131MOL    C2041880   6.777   6.114   1.373  0.3706  0.3589  0.3821
  131MOL    O2141881   6.770   6.055   1.262 -0.0389 -0.1843  0.0040
  131MOL    N2241882   6.864   6.073   1.464  0.1466 -0.6835  0.2667
  131MOL    C2341883   6.876   6.145   1.592  0.8652  0.0540 -0.4044
  131MOL    C2441884   6.929   5.941   1.458 -0.5455 -0.6904 -0.5212
  131MOL    H2541885   6.607   6.291   1.200 -1.2712 -2.0329  2.6651
  131MOL    H2641886   6.775   6.309   1.217  0.5234 -2.3246  1.3190
  131MOL    H2741887   6.708   6.303   1.472 -0.4706  1.4936 -0.3188
  131MOL    H2841888   6.815   6.099   1.669  0.0451  1.3722 -0.2363
  131MOL    H2941889   6.977   6.137   1.631  1.0578 -1.6331 -1.2045
  131MOL    H3041890   6.866   6.254   1.586  0.2088  0.1969  2.3498
  131MOL    H3141891   6.986   5.913   1.545  0.2786  0.0115 -0.8280
  131MOL    H3241892   6.995   5.938   1.371  0.3934 -0.1420  0.1705
  131MOL    H3341893   6.857   5.861   1.441 -0.6805 -1.0375  1.6255
  131MOL    C3441894   6.543   6.175   1.419  0.3827  0.0780  0.1001
  131MOL    C3541895   6.442   6.274   1.482 -0.8332 -0.4851  0.7831
  131MOL    C3641896   6.383   6.220   1.613  0.4002 -0.7996  0.6450
  131MOL    O3741897   6.282   6.152   1.600  0.0918  0.1184  0.0666
  131MOL    N3841898   6.428   6.253   1.739  0.1741  0.6221  0.3636
  131MOL    C3941899   6.540   6.346   1.758 -0.1899 -0.4011  0.0250
  131MOL    C4041900   6.353   6.215   1.863 -0.2806  0.3286 -0.3645
  131MOL    H4141901   6.501   6.133   1.327  0.8517 -0.5145  0.1549
  131MOL    H4241902   6.555   6.085   1.479 -0.7782  0.8490  1.5099
  131MOL    H4341903   6.493   6.368   1.502 -0.8679 -0.3854  0.4037
  131MOL    H4441904   6.585   6.331   1.856 -1.2267  1.1013  0.7529
  131MOL    H4541905   6.621   6.340   1.686 -0.0509  1.3864  0.0180
  131MOL    H4641906   6.498   6.447   1.759 -1.4707 -0.9210  1.2275
  131MOL    H4741907   6.399   6.244   1.958  1.0912 -1.9566 -0.2860
  131MOL    H4841908   6.349   6.107   1.876 -0.8715  0.5068  1.0608
  131MOL    H4941909   6.251   6.251   1.850  0.0322  0.3262 -3.0360
  131MOL    C5041910   6.332   6.286   1.372  0.6410  0.6457 -0.4644
  131MOL    C5141911   6.222   6.402   1.380 -0.1041  0.4500 -0.0106
  131MOL    C5241912   6.285   6.539   1.411 -0.3293 -0.4894 -0.6994
  131MOL    O5341913   6.352   6.553   1.518  0.1257  0.0851 -0.1196
  131MOL    N5441914   6.275   6.643   1.325  0.5658  0.3313 -0.2665
  131MOL    C5541915   6.151   6.674   1.245 -0.3007 -0.2229  0.2711
  131MOL    C5641916   6.360   6.754   1.342  0.1087  0.9135  1.0940
  131MOL    H5741917   6.385   6.294   1.277  1.0078 -3.2229 -0.6703
  131MOL    H5841918   6.283   6.189   1.360 -1.8422  1.8766 -0.6382
  131MOL    H5941919   6.171   6.419   1.286 -2.4427  0.6312  1.2518
  131MOL    H6041920   6.180   6.647   1.143 -0.8304  0.4536 -0.0583
  131MOL    H6141921   6.068   6.612   1.277  0.2605  0.4916  3.2720
  131MOL    H6241922   6.131   6.781   1.245  1.5150  0.1782 -2.3273
  131MOL    H6341923   6.324   6.821   1.420 -2.4200 -1.0772  1.7054
  131MOL    H6441924   6.362   6.814   1.252  1.5039 -0.2082  0.3535
  131MOL    H6541925   6.464   6.739   1.373  0.2727 -2.8218 -0.9452
  131MOL    C6641926   6.102   6.369   1.469 -0.3648 -0.8294 -0.1554
  131MOL    C6741927   5.998   6.267   1.421  0.2439  0.0759  0.2031
  131MOL    C6841928   5.914   6.309   1.291  0.0401  0.5318  0.2271
  131MOL    O6941929   5.864   6.423   1.282  0.1106 -0.1768 -0.6165
  131MOL    N7041930   5.889   6.217   1.193  0.2084 -0.7467 -0.9616
  131MOL    C7141931   5.844   6.257   1.060 -0.1465  0.0385 -0.2867
  131MOL    C7241932   5.938   6.073   1.202  0.6505 -0.1608  0.1068
  131MOL    H7341933   6.144   6.345   1.567 -1.8998 -1.6840  0.3036
  131MOL    H7441934   6.052   6.465   1.477  0.9576 -0.1020 -0.4738
  131MOL    H7541935   6.062   6.182   1.396 -1.0952 -1.0183  0.4717
  131MOL    H7641936   5.918   6.329   1.023  1.6033 -0.4494  2.0819
  131MOL    H7741937   5.840   6.181   0.982 -0.9360  0.3595 -0.5560
  131MOL    H7841938   5.745   6.301   1.069 -0.1314 -0.0850  0.5781
  131MOL    H7941939   6.045   6.066   1.181  0.7894  0.9724  0.4199
  131MOL    H8041940   5.884   6.006   1.135  2.5708 -1.5185 -0.1084
  131MOL    H8141941   5.924   6.038   1.305  0.2463 -0.2617  0.0184
  131MOL    C8241942   5.899   6.240   1.542 -0.7126 -0.3378  0.9507
  131MOL    C8341943   5.853   6.105   1.592  0.5845 -0.0505 -0.3180
  131MOL    C8441944   5.729   6.122   1.683  0.3890  0.2288 -0.4969
  131MOL    O8541945   5.753   6.156   1.799  0.0104 -0.7189  0.5160
  131MOL    N8641946   5.608   6.105   1.635 -0.6741 -0.5401 -0.4552
  131MOL    C8741947   5.486   6.111   1.720  0.3968  0.5935 -0.1929
  131MOL    C8841948   5.580   6.038   1.506 -0.1218  0.3899  0.7291
  131MOL    H8941949   5.926   6.288   1.635  0.6815  2.0532 -0.6279
  131MOL    H9041950   5.808   6.294   1.520  0.1386  0.5791 -0.3824
  131MOL    H9141951   5.825   6.052   1.501  0.1060 -1.4093  0.6157
  131MOL    H9241952   5.392   6.126   1.668 -0.2716  0.1203  0.8556
  131MOL    H9341953   5.490   6.010   1.760 -0.5990 -0.0230 -1.6363
  131MOL    H9441954   5.498   6.178   1.806 -0.8431  2.3459 -1.3511
  131MOL    H9541955   5.475   6.025   1.482  0.1240 -2.3347  0.9274
  131MOL    H9641956   5.616   5.935   1.511  2.6827  1.2897 -0.1682
  131MOL    H9741957   5.622   6.094   1.422  0.7067 -0.7759  0.3515
  131MOL    C9841958   5.974   6.026   1.649  0.6017 -0.2492  0.1654
  131MOL    C9941959   5.974   5.869   1.630  0.2112 -1.5346 -0.3938
  131MOL   C10041960   6.002   5.821   1.484  0.1722  0.1891 -0.0026
  131MOL   O10141961   5.906   5.775   1.419 -0.2076 -0.1457 -0.1113
  131MOL   N10241962   6.123   5.831   1.435 -0.0174  0.2172  0.6871
  131MOL   C10341963   6.245   5.878   1.501 -0.0712 -0.0818  0.1623
  131MOL   C10441964   6.157   5.786   1.296 -0.2985  0.1287  0.3191
  131MOL   H10541965   6.064   6.073   1.609 -0.1464  3.1529  2.2818
  131MOL   H10641966   5.970   6.050   1.755  0.9633  4.8844 -0.8280
  131MOL   H10741967   6.057   5.832   1.690  2.1344  0.7822 -1.5323
  131MOL   H10841968   6.240   5.879   1.610  2.3634 -1.0433  0.2941
  131MOL   H10941969   6.312   5.794   1.486 -1.4603 -1.3450  0.9445
  131MOL   H11041970   6.304   5.955   1.452 -1.2791  1.5514  1.2146
  131MOL   H11141971   6.063   5.795   1.241 -0.3491  0.5933  0.4787
  131MOL   H11241972   6.196   5.684   1.287  3.9597  1.5860  1.1116
  131MOL   H11341973   6.235   5.846   1.249  1.8617 -2.4191  0.5500
  131MOL   C11441974   5.848   5.799   1.689  0.8294 -0.3342 -0.0375
  131MOL   C11541975   5.835   5.803   1.843  0.1692 -0.1947 -0.4471
  131MOL   C11641976   5.946   5.721   1.911 -0.2579  0.4508  0.3672
  131MOL   O11741977   5.979   5.617   1.848  0.4677  0.0562 -0.3603
  131MOL   N11841978   6.006   5.758   2.030 -0.3939 -0.0648 -0.2907
  131MOL   C11941979   6.002   5.900   2.070 -0.0723 -0.5906  0.1676
  131MOL   C12041980   6.124   5.687   2.091  0.2902 -0.4937 -0.1475
  131MOL   H12141981   5.765   5.852   1.641 -0.2718 -1.2040  0.8906
  131MOL   H12241982   5.843   5.695   1.658 -1.1438 -0.4277  0.5462
  131MOL   H12341983   5.846   5.908   1.872 -0.5906  0.3299 -1.9745
  131MOL   H12441984   6.071   5.918   2.153  1.5434  0.4188 -1.3500
  131MOL   H12541985   6.028   5.967   1.988 -1.4893 -0.0294  0.1682
  131MOL   H12641986   5.907   5.931   2.113  0.5063 -1.2093  1.9464
  131MOL   H12741987   6.136   5.692   2.199  1.6478 -0.1999 -0.3041
  131MOL   H12841988   6.210   5.740   2.051 -0.5222  0.6950 -0.3514
  131MOL   H12941989   6.129   5.583   2.057 -0.6087  0.3152 -2.9255
  131MOL   C13041990   5.693   5.762   1.886  0.1959 -0.7405 -0.0019
  131MOL   C13141991   5.638   5.627   1.827 -0.2509 -0.1665  0.0525
  131MOL   C13241992   5.555   5.651   1.695  0.3769 -0.0363 -0.3769
  131MOL   O13341993   5.452   5.718   1.713 -0.3038  0.2775 -0.0928
  131MOL   N13441994   5.594   5.608   1.569  0.3645 -0.2563 -0.1121
  131MOL   C13541995   5.655   5.474   1.552 -0.1756  0.0842  0.0255
  131MOL   C13641996   5.551   5.674   1.448  0.6446 -1.0302  0.6117
  131MOL   H13741997   5.687   5.761   1.995 -0.5291  0.4968 -0.0228
  131MOL   H13841998   5.626   5.845   1.863  0.9000  0.1565  1.1120
  131MOL   H13941999   5.730   5.576   1.796  0.4436  0.6165  0.8030
  131MOL   H14042000   5.764   5.479   1.554 -0.2256  1.6124 -0.2435
  131MOL   H14142001   5.629   5.401   1.629  0.1182  0.6613  0.6817
  131MOL   H14242002   5.624   5.434   1.456 -0.8517 -0.0942  0.3137
  131MOL   H14342003   5.629   5.692   1.375 -1.5780  0.5797 -1.4399
  131MOL   H14442004   5.489   5.760   1.474 -1.1527 -1.3296 -2.4723
  131MOL   H14542005   5.482   5.613   1.389 -3.0600  1.8404  1.7667
  131MOL   C14642006   5.555   5.557   1.945  0.3108  0.2530 -0.0238
  131MOL   C14742007   5.632   5.447   2.018 -0.4091 -0.0129 -0.7804
  131MOL   C14842008   5.629   5.313   1.940 -0.0159  0.1035 -0.1642
  131MOL   O14942009   5.524   5.261   1.915  0.5840 -0.2218 -0.7310
  131MOL   N15042010   5.743   5.256   1.906 -0.1985 -0.5849 -0.1240
  131MOL   C15142011   5.752   5.125   1.848  0.4613  0.2980 -0.0289
  131MOL   C15242012   5.872   5.315   1.925 -0.1929 -0.2798 -0.6330
  131MOL   H15342013   5.520   5.629   2.019 -1.3570 -1.7303  1.1934
  131MOL   H15442014   5.458   5.517   1.915  0.8944 -2.1295  1.1319
  131MOL   H15542015   5.732   5.484   2.041 -0.9088  0.3893  0.8323
  131MOL   H15642016   5.780   5.126   1.742 -1.9201 -0.4565 -0.7041
  131MOL   H15742017   5.837   5.075   1.893 -1.6383 -1.6957  1.8860
  131MOL   H15842018   5.664   5.061   1.860 -0.0090  0.9982  0.3041
  131MOL   H15942019   5.905   5.333   2.027  1.0698 -2.2016 -0.6772
  131MOL   H16042020   5.870   5.417   1.885  0.0833 -0.1718 -0.3777
  131MOL   H16142021   5.956   5.269   1.873  0.7231  0.5132  0.1196
  131MOL   C16242022   5.562   5.423   2.152 -0.4106 -0.4751  0.4525
  131MOL   C16342023   5.647   5.339   2.247  0.0514 -0.1665 -0.0255
  131MOL   C16442024   5.552   5.259   2.339  0.5541 -0.0224 -0.2726
  131MOL   O16542025   5.465   5.319   2.405 -0.4858 -0.6268  0.0716
  131MOL   N16642026   5.571   5.124   2.347 -0.0605  0.4648  0.1185
  131MOL   C16742027   5.645   5.051   2.244 -0.0420  0.0687 -0.3624
  131MOL   C16842028   5.476   5.046   2.422 -0.2311  0.3737 -0.0099
  131MOL   H16942029   5.532   5.512   2.208 -1.0266 -0.8258  0.6836
  131MOL   H17042030   5.466   5.377   2.129  0.1882 -0.5040 -2.1802
  131MOL   H17142031   5.711   5.268   2.195 -1.1842 -0.1497 -1.6047
  131MOL   H17242032   5.754   5.058   2.254 -0.0563  2.0981 -1.3989
  131MOL   H17342033   5.624   4.944   2.245  0.1439 -0.0106 -2.6899
  131MOL   H17442034   5.627   5.083   2.142  1.7299 -0.3773 -0.8467
  131MOL   H17542035   5.522   4.953   2.455 -0.8236  0.8711  2.3404
  131MOL   H17642036   5.385   5.018   2.367  0.3424 -2.5166  0.4098
  131MOL   H17742037   5.457   5.088   2.521 -1.5115 -2.3146  0.9659
  131MOL   C17842038   5.741   5.431   2.330  0.0740 -0.1718 -0.4172
  131MOL   C17942039   5.852   5.365   2.416  0.1628 -0.0205  0.8887
  131MOL   C18042040   5.885   5.427   2.553  0.6786  0.5945  0.6903
  131MOL   O18142041   5.977   5.506   2.560 -0.2281 -0.0941 -0.1165
  131MOL   N18242042   5.822   5.383   2.665 -0.0800  0.5368 -0.2737
  131MOL   C18342043   5.852   5.430   2.797  0.0401 -0.5439  0.1453
  131MOL   C18442044   5.692   5.314   2.662  0.3499  0.3854  0.3558
  131MOL   H18542045   5.790   5.504   2.266 -0.0237  1.1816  1.0217
  131MOL   H18642046   5.674   5.489   2.394 -1.4333 -1.0517 -1.1697
  131MOL   H18742047   5.817   5.262   2.425  0.5217 -0.2413 -0.1663
  131MOL   H18842048   5.877   5.536   2.792  2.0749 -1.0292 -0.3215
  131MOL   H18942049   5.761   5.421   2.856  0.2635  2.2994  0.9951
  131MOL   H19042050   5.928   5.372   2.849 -2.4490 -4.1827 -0.0582
  131MOL   H19142051   5.617   5.385   2.626  1.5667  1.4706 -0.0690
  131MOL   H19242052   5.652   5.280   2.758 -1.6250  0.0803 -0.5579
  131MOL   H19342053   5.693   5.218   2.611 -1.4530 -0.0589  1.1169
  131MOL   C19442054   5.974   5.366   2.321 -0.2470  0.0436 -0.6731
  131MOL   C19542055   6.101   5.296   2.367  0.2717  0.0676 -0.3760
  131MOL   C19642056   6.212   5.337   2.261 -0.0079 -0.0846 -0.1920
  131MOL   O19742057   6.212   5.288   2.147 -0.0676 -0.1171  0.5129
  131MOL   N19842058   6.314   5.419   2.301 -0.8885  0.1795  0.6840
  131MOL   C19942059   6.301   5.516   2.402 -0.1594 -0.0225  0.0700
  131MOL   C20042060   6.441   5.447   2.231  0.0517 -0.2648  0.0383
  131MOL   H20142061   5.943   5.323   2.226  2.5194  1.5313 -2.3019
  131MOL   H20242062   6.002   5.471   2.311 -1.1768  0.5452  1.7946
  131MOL   H20342063   6.129   5.338   2.463  2.4672 -1.1230 -0.4497
  131MOL   H20442064   6.298   5.617   2.359  0.9239  0.2801  0.6801
  131MOL   H20542065   6.207   5.513   2.457 -0.1544 -0.7962  0.0394
  131MOL   H20642066   6.378   5.506   2.479  0.5082 -1.7870 -0.8057
  131MOL   H20742067   6.531   5.422   2.288  0.0149  3.3169  1.8065
  131MOL   H20842068   6.443   5.552   2.204  0.9241 -0.0308  0.9836
  131MOL   H20942069   6.460   5.392   2.139  2.0399  1.4264 -0.5889
  131MOL   C21042070   6.099   5.141   2.386  0.1633  1.3276 -0.3163
  131MOL   C21142071   6.176   5.095   2.508  0.5519  0.4753 -0.1828
  131MOL   C21242072   6.328   5.124   2.506  0.4956 -0.2153  0.3857
  131MOL   O21342073   6.395   5.086   2.411 -0.3361  0.1040 -0.0186
  131MOL   N21442074   6.386   5.181   2.614 -0.8309 -0.4901 -1.0248
  131MOL   C21542075   6.323   5.173   2.753 -0.2231 -0.6075  0.0634
  131MOL   C21642076   6.511   5.254   2.603 -0.0683  0.3449  0.4533
  131MOL   H21742077   5.992   5.119   2.390  0.2422  0.6498 -1.5388
  131MOL   H21842078   6.141   5.088   2.300 -0.4513 -1.5053  1.0643
  131MOL   H21942079   6.134   5.145   2.595 -1.8000  0.1836 -1.1014
  131MOL   H22042080   6.286   5.273   2.775  1.3959  0.0317 -0.0267
  131MOL   H22142081   6.246   5.097   2.768 -1.0829 -0.2572 -2.2561
  131MOL   H22242082   6.399   5.156   2.828 -0.7953 -3.0833  0.1117
  131MOL   H22342083   6.505   5.334   2.529 -0.6960  1.0047  1.2111
  131MOL   H22442084   6.592   5.189   2.568 -1.2457 -0.0977 -1.5707
  131MOL   H22542085   6.531   5.296   2.702 -1.4385 -1.6483  1.6024
  131MOL   C22642086   6.146   4.942   2.532  0.0189 -0.5060  0.0014
  131MOL   C22742087   6.003   4.904   2.575  0.2775  0.3620 -0.5844
  131MOL   C22842088   5.955   4.956   2.711  0.9317 -0.3963 -0.2749
  131MOL   O22942089   6.043   4.968   2.797 -0.4492 -0.0316  0.2566
  131MOL   N23042090   5.826   4.993   2.736  0.4590 -0.4217  0.4881
  131MOL   C23142091   5.784   5.029   2.869 -0.0919  0.4348  0.1967
  131MOL   C23242092   5.722   4.940   2.650 -0.1203  0.1321  0.5167
  131MOL   H23342093   6.175   4.898   2.436 -0.8778 -0.3793 -0.3253
  131MOL   H23442094   6.219   4.903   2.603  1.2326 -1.3690 -1.6557
  131MOL   H23542095   5.935   4.941   2.498 -0.2532  0.9457  0.1512
  131MOL   H23642096   5.816   5.126   2.905  1.6715 -0.1618  0.2527
  131MOL   H23742097   5.675   5.037   2.868 -0.3065 -2.1791 -0.3991
  131MOL   H23842098   5.815   4.955   2.943 -1.6790 -0.2280  0.2216
  131MOL   H23942099   5.717   4.984   2.550  3.2393  0.9498  0.6408
  131MOL   H24042100   5.623   4.958   2.691 -0.7736 -2.2159  0.0135
  131MOL   H24142101   5.725   4.832   2.637 -0.8445  0.0132  1.2998
  131MOL   C24242102   5.995   4.754   2.572 -0.4506 -0.5345  0.1325
  131MOL   C24342103   5.994   4.684   2.431 -0.2062 -0.4844  1.3265
  131MOL   C24442104   5.907   4.762   2.319  0.4387  0.7460 -0.4420
  131MOL   O24542105   5.790   4.795   2.350 -0.1340 -0.2144  0.6388
  131MOL   N24642106   5.959   4.783   2.198 -0.4552 -0.5624 -0.4736
  131MOL   C24742107   5.882   4.844   2.085  0.6198  0.4269 -0.6531
  131MOL   C24842108   6.092   4.741   2.154  0.0659  0.6136 -0.5007
  131MOL   H24942109   6.074   4.712   2.633 -0.2961 -1.5145 -0.7388
  131MOL   H25042110   5.900   4.727   2.619 -0.1891 -0.3916  0.7547
  131MOL   H25142111   6.096   4.699   2.397 -1.2818 -2.0459 -2.8754
  131MOL   H25242112   5.774   4.830   2.086  0.7859 -1.0834  1.7288
  131MOL   H25342113   5.908   4.947   2.062  0.4000  0.2772 -1.5828
  131MOL   H25442114   5.905   4.785   1.996  1.1831  1.7206 -1.3688
  131MOL   H25542115   6.170   4.796   2.207 -0.7054 -0.8230  2.2549
  131MOL   H25642116   6.113   4.755   2.048 -2.8971 -0.5485 -1.2841
  131MOL   H25742117   6.099   4.635   2.177 -0.9859  0.1808 -2.0860
  131MOL   C25842118   5.940   4.539   2.434 -0.4919  0.7026 -0.1402
  131MOL   C25942119   6.050   4.438   2.468 -0.4821 -0.3700  0.0101
  131MOL   C26042120   6.151   4.426   2.349 -0.1509  0.0207  0.0814
  131MOL   O26142121   6.111   4.366   2.244  0.1626 -0.5933  0.0562
  131MOL   N26242122   6.273   4.480   2.347  0.4032 -0.1411 -0.1178
  131MOL   C26342123   6.375   4.437   2.249  0.5048 -0.0271  0.1462
  131MOL   C26442124   6.314   4.579   2.445 -0.9383 -0.4736 -0.3079
  131MOL   H26542125   5.863   4.532   2.511 -1.9596  3.5997 -1.2665
  131MOL   H26642126   5.886   4.513   2.343 -2.0061 -0.8623  1.1851
  131MOL   H26742127   6.103   4.472   2.557  2.0510 -1.0915 -1.1698
  131MOL   H26842128   6.386   4.328   2.249 -0.2763 -0.1107  0.0130
  131MOL   H26942129   6.335   4.456   2.150 -2.9565  1.7519  1.8028
  131MOL   H27042130   6.470   4.487   2.269  1.0508 -0.8433 -0.3997
  131MOL   H27142131   6.259   4.591   2.539 -1.7060 -0.5074 -0.7457
  131MOL   H27242132   6.315   4.676   2.396  1.9465  0.5397  1.6459
  131MOL   H27342133   6.418   4.555   2.469 -0.8675 -0.1530 -0.2930
  131MOL   C27442134   5.994   4.295   2.517  0.3470  0.5619  0.9472
  131MOL   C27542135   6.093   4.180   2.547 -0.1200 -0.4732 -0.5043
  131MOL   C27642136   6.010   4.057   2.594 -0.1720  0.1486 -0.6810
  131MOL   O27742137   5.983   4.050   2.716  0.5111 -0.0749  0.1048
  131MOL   N27842138   5.956   3.969   2.503  0.2464  0.0350 -0.2471
  131MOL   C27942139   5.957   3.984   2.358 -0.0759 -0.3080 -0.6166
  131MOL   C28042140   5.889   3.844   2.566  0.1085  0.2102  0.5056
  131MOL   H28142141   5.926   4.312   2.600 -0.6343 -1.4610  0.5839
  131MOL   H28242142   5.925   4.263   2.438 -1.6724 -1.2674  3.3794
  131MOL   H28342143   6.161   4.158   2.465  0.1590  1.7577 -0.9098
  131MOL   H28442144   5.852   3.995   2.330 -0.2944 -1.1058 -0.1089
  131MOL   H28542145   6.011   4.070   2.317  0.7634 -0.4960  0.0733
  131MOL   H28642146   5.996   3.898   2.304  1.4702 -1.2197  1.8812
  131MOL   H28742147   5.963   3.775   2.605 -1.8422 -1.4963  1.2511
  131MOL   H28842148   5.836   3.790   2.487  0.9943 -1.2026  0.8665
  131MOL   H28942149   5.801   3.867   2.626 -1.3273 -3.6697 -0.0064
  131MOL   C29042150   6.186   4.239   2.661 -0.9867 -0.0266  0.1603
  131MOL   C29142151   6.330   4.262   2.629  0.6019 -0.1463 -0.4986
  131MOL   C29242152   6.406   4.134   2.583  0.3266 -0.0394  0.1672
  131MOL   O29342153   6.360   4.024   2.585  0.0074  0.0742 -0.5510
  131MOL   N29442154   6.521   4.143   2.510 -0.3973  0.0494  0.1213
  131MOL   C29542155   6.592   4.264   2.500 -0.0967  0.5277  0.0111
  131MOL   C29642156   6.585   4.020   2.451  0.4759  0.0307 -0.3808
  131MOL   H29742157   6.146   4.317   2.725  2.1609  0.2904  1.8462
  131MOL   H29842158   6.197   4.155   2.730 -0.7954 -0.3861 -0.3094
  131MOL   H29942159   6.347   4.335   2.550 -3.5667  1.4025 -0.0561
  131MOL   H30042160   6.691   4.251   2.457 -0.5456  0.3055 -0.9740
  131MOL   H30142161   6.532   4.339   2.448 -2.8298 -0.5764  1.5062
  131MOL   H30242162   6.626   4.301   2.596  1.4937 -1.9556  0.4383
  131MOL   H30342163   6.516   3.957   2.394 -1.7224  0.3983  1.7849
  131MOL   H30442164   6.629   3.955   2.526  0.6918  0.5191 -0.0830
  131MOL   H30542165   6.663   4.047   2.379  0.9774 -2.1880 -0.7206
  131MOL   C30642166   6.392   4.306   2.768  0.9164  0.1899  0.0146
  131MOL   C30742167   6.361   4.454   2.799 -0.1723 -0.3318 -0.1007
  131MOL   C30842168   6.352   4.482   2.950 -0.2747  0.7683 -0.6553
  131MOL   O30942169   6.257   4.444   3.015  0.2930  0.0118 -0.4582
  131MOL   N31042170   6.441   4.560   3.020  0.1356 -0.2102 -0.0597
  131MOL   C31142171   6.448   4.566   3.163  0.3034 -0.0287 -0.7382
  131MOL   C31242172   6.543   4.641   2.956  0.0562  0.4158  0.2384
  131MOL   H31342173   6.354   4.239   2.845  0.4079 -3.6899 -3.3630
  131MOL   H31442174   6.499   4.289   2.761  0.6520 -0.7124 -3.0880
  131MOL   H31542175   6.415   4.534   2.748 -1.1885  1.3353  1.3500
  131MOL   H31642176   6.409   4.662   3.195 -0.0471 -0.1425 -0.8200
  131MOL   H31742177   6.397   4.482   3.210  0.0651  0.1927 -0.6084
  131MOL   H31842178   6.550   4.558   3.200  0.0667 -0.3485 -0.1519
  131MOL   H31942179   6.591   4.596   2.869  0.4513  2.0282 -0.3937
  131MOL   H32042180   6.623   4.674   3.022 -0.3333  1.3386  0.2551
  131MOL   H32142181   6.490   4.732   2.928 -0.6016 -0.3330 -0.9901
  131MOL   H32242182   6.258   4.484   2.778 -0.0089  1.6352  1.7630
  132MOL     C142183   1.978   4.034   5.099  0.0082 -0.5928  0.5069
  132MOL     C242184   1.830   4.042   5.104  0.2617  0.6042  0.5940
  132MOL     C342185   1.765   3.997   4.976  0.4708  0.4038  0.1280
  132MOL     O442186   1.748   4.075   4.887 -0.6352 -0.2377  0.0351
  132MOL     N542187   1.727   3.868   4.965  0.2717  0.0762  0.6794
  132MOL     C642188   1.647   3.821   4.852 -1.4193  0.3646 -0.2013
  132MOL     C742189   1.812   3.759   5.027 -0.1746 -0.0197 -0.3243
  132MOL     H842190   2.012   3.939   5.057 -1.5102 -0.6343 -0.6921
  132MOL     H942191   2.019   4.042   5.199  0.3104  0.2365  0.3171
  132MOL    H1042192   1.796   3.969   5.177  0.7813  0.4623  0.6981
  132MOL    H1142193   1.688   3.725   4.820 -2.9922 -0.6456  0.7539
  132MOL    H1242194   1.543   3.801   4.873 -1.1241  0.0192  0.9396
  132MOL    H1342195   1.666   3.879   4.761 -0.8574  0.5573  0.0332
  132MOL    H1442196   1.822   3.765   5.135  0.5764 -2.9848 -0.1987
  132MOL    H1542197   1.916   3.757   4.992 -0.1108 -0.3372 -0.1167
  132MOL    H1642198   1.784   3.656   5.006  1.4860 -0.5311 -0.1742
  132MOL    H1742199   2.022   4.109   5.033 -0.5622  0.8565  1.7366
  132MOL    C1842200   1.787   4.183   5.145  0.9319  0.2107 -1.2278
  132MOL    C1942201   1.638   4.228   5.137 -0.3021 -0.1156  0.3696
  132MOL    C2042202   1.631   4.383   5.168  0.1091  0.0871 -0.0957
  132MOL    O2142203   1.618   4.418   5.285 -0.2779 -0.3879 -0.4827
  132MOL    N2242204   1.618   4.471   5.064 -0.4775 -0.0186  0.1266
  132MOL    C2342205   1.606   4.614   5.106 -0.0754  0.1142 -0.0467
  132MOL    C2442206   1.644   4.432   4.925 -0.2501 -0.5371  0.0324
  132MOL    H2542207   1.818   4.203   5.247 -0.4092 -1.2686 -0.5066
  132MOL    H2642208   1.850   4.241   5.077  0.9301  2.9193  0.9967
  132MOL    H2742209   1.606   4.214   5.034 -0.7846 -0.3539  0.5493
  132MOL    H2842210   1.600   4.687   5.026 -1.2890  1.0675  0.9041
  132MOL    H2942211   1.514   4.620   5.164  0.1385 -3.0239  0.7159
  132MOL    H3042212   1.691   4.650   5.164 -0.7947  1.1249  0.3956
  132MOL    H3142213   1.559   4.368   4.900  0.8860 -1.9708 -0.2482
  132MOL    H3242214   1.730   4.368   4.905 -0.8846 -0.1492 -4.3843
  132MOL    H3342215   1.640   4.514   4.854 -0.4047 -0.1038  0.5402
  132MOL    C3442216   1.548   4.138   5.222 -0.3028 -0.7464  0.6126
  132MOL    C3542217   1.407   4.102   5.182 -0.0173  0.5783 -0.1717
  132MOL    C3642218   1.331   4.224   5.130 -0.0305  0.5028 -0.7079
  132MOL    O3742219   1.306   4.317   5.211  1.1697 -0.2518  0.0195
  132MOL    N3842220   1.278   4.234   5.007  0.0691  0.4104 -0.0857
  132MOL    C3942221   1.186   4.344   4.983 -0.3694 -0.2242  0.2098
  132MOL    C4042222   1.320   4.156   4.888  0.0585 -0.6664  0.9244
  132MOL    H4142223   1.595   4.042   5.241  0.9253 -0.0848  1.0072
  132MOL    H4242224   1.561   4.160   5.328  0.4653 -0.0621  0.3872
  132MOL    H4342225   1.401   4.015   5.116 -2.7111 -0.7262  1.6987
  132MOL    H4442226   1.102   4.350   5.053 -1.9993  1.2344 -1.7795
  132MOL    H4542227   1.239   4.439   4.995  1.4173 -1.0474 -1.0684
  132MOL    H4642228   1.132   4.352   4.888  2.7666  1.1427 -1.5401
  132MOL    H4742229   1.316   4.049   4.907  3.4680 -0.7516  1.4580
  132MOL    H4842230   1.421   4.186   4.861 -0.2558  0.2365  0.7399
  132MOL    H4942231   1.262   4.166   4.796  0.2930  0.9438  0.9369
  132MOL    C5042232   1.330   4.051   5.308 -0.6018 -0.4122 -0.6617
  132MOL    C5142233   1.359   3.907   5.340  0.2879  1.0115  0.1702
  132MOL    C5242234   1.293   3.807   5.238 -0.1567 -0.7688 -0.7235
  132MOL    O5342235   1.171   3.809   5.230  0.2612  0.4160  0.5735
  132MOL    N5442236   1.362   3.721   5.158  0.1829  0.0237 -0.0272
  132MOL    C5542237   1.504   3.710   5.163 -0.5091  0.0753  0.4106
  132MOL    C5642238   1.298   3.640   5.057 -0.1567  0.0203 -0.4609
  132MOL    H5742239   1.365   4.121   5.384  1.5489  1.3108 -3.1453
  132MOL    H5842240   1.221   4.058   5.298 -0.7199  0.7584  1.1377
  132MOL    H5942241   1.465   3.907   5.316  0.4338  0.4170  0.8289
  132MOL    H6042242   1.539   3.680   5.262  1.3615 -0.6068 -0.4401
  132MOL    H6142243   1.545   3.637   5.093  1.6090 -0.6954  2.3882
  132MOL    H6242244   1.556   3.800   5.132  0.3258 -0.2462  0.8384
  132MOL    H6342245   1.318   3.537   5.087  1.3937  0.6583  0.7422
  132MOL    H6442246   1.338   3.672   4.961 -0.3278 -0.4381 -0.6894
  132MOL    H6542247   1.189   3.648   5.055 -0.2750 -0.2865  2.4004
  132MOL    C6642248   1.345   3.852   5.483  0.3543 -0.5983 -0.5525
  132MOL    C6742249   1.438   3.937   5.582 -0.1302  0.0428  0.3439
  132MOL    C6842250   1.591   3.944   5.547  0.0344  0.7189  0.6577
  132MOL    O6942251   1.649   3.841   5.497  0.3038  0.1712 -0.0450
  132MOL    N7042252   1.667   4.054   5.569  0.0385  0.3893  0.0531
  132MOL    C7142253   1.614   4.181   5.618  0.0332 -0.7369  0.0304
  132MOL    C7242254   1.819   4.053   5.545 -0.9877  0.0759 -0.5126
  132MOL    H7342255   1.242   3.838   5.514 -0.1720 -0.8055 -2.3571
  132MOL    H7442256   1.380   3.750   5.472  0.9010 -0.4885  0.1460
  132MOL    H7542257   1.399   4.038   5.580  2.3195  1.0125 -0.1042
  132MOL    H7642258   1.568   4.244   5.541  0.6557 -0.6556 -0.2760
  132MOL    H7742259   1.528   4.180   5.686 -0.9836 -0.7097 -1.2387
  132MOL    H7842260   1.694   4.237   5.666 -0.6966  1.9872 -1.8235
  132MOL    H7942261   1.856   4.155   5.554  0.3922 -0.4632 -0.0933
  132MOL    H8042262   1.842   4.019   5.444  1.3947 -0.6621  0.2484
  132MOL    H8142263   1.859   3.994   5.627 -1.8170  0.4038  0.1393
  132MOL    C8242264   1.436   3.883   5.728  0.7272  0.2088 -0.9498
  132MOL    C8342265   1.301   3.904   5.798 -0.0456  0.8229 -0.7109
  132MOL    C8442266   1.284   4.057   5.820 -0.3948  0.1303 -1.0372
  132MOL    O8542267   1.366   4.115   5.900 -0.2299 -0.0609  0.7615
  132MOL    N8642268   1.199   4.128   5.750  0.2662  0.6864  0.0299
  132MOL    C8742269   1.076   4.082   5.691 -0.0836 -0.4411 -0.1139
  132MOL    C8842270   1.205   4.274   5.743  0.0802  0.0821  0.1722
  132MOL    H8942271   1.459   3.777   5.719 -0.1466 -0.3670  2.6911
  132MOL    H9042272   1.516   3.931   5.785  1.0864 -1.1314 -0.3177
  132MOL    H9142273   1.220   3.875   5.732  2.0029  0.1663 -3.0008
  132MOL    H9242274   1.094   4.045   5.590 -1.6796 -0.8106 -0.2837
  132MOL    H9342275   1.027   4.005   5.751  1.0431 -1.0417  0.0551
  132MOL    H9442276   1.015   4.171   5.679 -0.3245 -0.5202  0.5220
  132MOL    H9542277   1.162   4.324   5.656  0.8412  2.6473  1.2504
  132MOL    H9642278   1.302   4.312   5.772 -0.0131 -1.7370  3.0070
  132MOL    H9742279   1.135   4.308   5.819 -0.4969 -0.0154 -0.3129
  132MOL    C9842280   1.285   3.826   5.933 -0.3757 -0.6512 -0.6174
  132MOL    C9942281   1.268   3.668   5.926 -0.2323  0.0972 -0.8123
  132MOL   C10042282   1.208   3.616   5.796 -0.5867  0.6759  0.1216
  132MOL   O10142283   1.276   3.535   5.729 -0.3220 -0.5404  0.5627
  132MOL   N10242284   1.081   3.649   5.758 -0.1297 -0.0238 -0.0496
  132MOL   C10342285   1.028   3.631   5.617  0.6049 -0.1179  0.4297
  132MOL   C10442286   0.980   3.695   5.853 -0.1815 -0.0886  0.3180
  132MOL   H10542287   1.379   3.833   5.986  0.8075 -3.1222 -2.2937
  132MOL   H10642288   1.210   3.883   5.987  1.3723 -0.6683  1.9050
  132MOL   H10742289   1.371   3.639   5.908 -0.6349 -1.4380 -0.7082
  132MOL   H10842290   0.994   3.729   5.584  2.5905  0.6902  0.7013
  132MOL   H10942291   1.090   3.595   5.534 -1.3118 -0.4090 -0.9200
  132MOL   H11042292   0.948   3.557   5.610 -0.8230  1.5226 -0.8596
  132MOL   H11142293   0.888   3.720   5.800 -0.5290 -0.8702  0.5357
  132MOL   H11242294   1.007   3.785   5.908  1.1455 -1.1859  1.5266
  132MOL   H11342295   0.936   3.619   5.917  1.5629 -1.1267  0.3134
  132MOL   C11442296   1.216   3.596   6.058 -0.9666  0.4218 -0.0743
  132MOL   C11542297   1.231   3.439   6.057  0.2308 -0.4733 -0.8234
  132MOL   C11642298   1.093   3.390   6.103  0.0727  0.2243 -0.0394
  132MOL   O11742299   1.065   3.417   6.220 -0.0674 -0.1109 -0.3770
  132MOL   N11842300   1.003   3.326   6.027 -0.0181  0.2232 -0.1225
  132MOL   C11942301   0.873   3.286   6.081 -0.2886  0.3911  0.1306
  132MOL   C12042302   1.020   3.290   5.887  0.2820 -0.7714  0.0476
  132MOL   H12142303   1.276   3.641   6.137  0.5188 -1.4255 -0.0973
  132MOL   H12242304   1.112   3.620   6.077 -1.7473 -3.1409  0.6087
  132MOL   H12342305   1.265   3.414   5.956  0.8009  0.7331 -0.9432
  132MOL   H12442306   0.818   3.369   6.123  0.8577  0.4163  1.6240
  132MOL   H12542307   0.805   3.237   6.011  0.7085 -1.0044  0.0989
  132MOL   H12642308   0.886   3.214   6.161 -2.4985 -0.1603  0.0287
  132MOL   H12742309   0.947   3.212   5.863  0.7865 -1.3854  0.4835
  132MOL   H12842310   1.120   3.253   5.867  0.2171 -0.4335 -0.9445
  132MOL   H12942311   1.017   3.379   5.824  0.4601 -0.0618  1.0486
  132MOL   C13042312   1.342   3.389   6.149  0.1807  0.1009 -0.0373
  132MOL   C13142313   1.477   3.360   6.078 -0.4053  0.5260 -0.5031
  132MOL   C13242314   1.465   3.225   6.000 -0.3803  0.4360 -0.4234
  132MOL   O13342315   1.410   3.126   6.058  0.0708 -0.5631  0.5470
  132MOL   N13442316   1.523   3.213   5.883 -0.1909 -0.5692 -0.3948
  132MOL   C13542317   1.499   3.089   5.798 -0.1281  0.0991  0.5453
  132MOL   C13642318   1.583   3.326   5.814  0.3986 -0.0900 -0.0345
  132MOL   H13742319   1.374   3.468   6.216  1.9911 -0.0019 -0.7425
  132MOL   H13842320   1.299   3.312   6.213  1.0076 -0.3275  0.0196
  132MOL   H13942321   1.504   3.448   6.021  4.4551 -0.7476 -0.3619
  132MOL   H14042322   1.586   3.058   5.740  0.6868 -1.4622  2.5458
  132MOL   H14142323   1.466   3.002   5.855 -0.4967  0.6447  1.1750
  132MOL   H14242324   1.412   3.102   5.733  2.5526 -1.2660 -3.4984
  132MOL   H14342325   1.664   3.355   5.881 -1.3583 -0.9470  2.5489
  132MOL   H14442326   1.502   3.398   5.807 -0.7122 -1.3728 -0.6325
  132MOL   H14542327   1.608   3.303   5.711  0.0078 -1.4753  0.1588
  132MOL   C14642328   1.600   3.342   6.172 -0.4810 -0.1914  0.2900
  132MOL   C14742329   1.655   3.473   6.235 -0.1062 -0.4766 -1.1572
  132MOL   C14842330   1.716   3.565   6.130 -0.7117  0.2769  0.1701
  132MOL   O14942331   1.810   3.524   6.063 -0.2514 -0.0777  0.0627
  132MOL   N15042332   1.657   3.682   6.115  0.4879  0.0877  0.0713
  132MOL   C15142333   1.577   3.754   6.218 -0.2065 -0.2406  0.3768
  132MOL   C15242334   1.687   3.761   5.997 -0.0215 -1.0666  0.3489
  132MOL   H15342335   1.563   3.279   6.252 -0.2404 -0.2561  0.3524
  132MOL   H15442336   1.686   3.281   6.144 -1.4111 -0.9931 -0.8620
  132MOL   H15542337   1.564   3.516   6.274  0.8584  1.7546 -1.2972
  132MOL   H15642338   1.614   3.729   6.318  0.5269  0.7198  0.3483
  132MOL   H15742339   1.586   3.862   6.209  0.1874 -0.1194  1.9772
  132MOL   H15842340   1.470   3.735   6.211 -0.1655 -0.6376  0.8080
  132MOL   H15942341   1.661   3.689   5.920  1.3943  0.6210 -1.7472
  132MOL   H16042342   1.795   3.772   5.993  0.1131 -1.5649  2.2449
  132MOL   H16142343   1.631   3.855   5.992  0.5852 -0.7173  0.0550
  132MOL   C16242344   1.749   3.457   6.351 -0.0528  0.1999  0.0467
  132MOL   C16342345   1.685   3.405   6.475  0.4589 -0.1671 -0.5031
  132MOL   C16442346   1.577   3.502   6.522 -0.0633  0.0589  0.8611
  132MOL   O16542347   1.613   3.621   6.548 -0.0893 -0.1749 -0.0236
  132MOL   N16642348   1.447   3.464   6.524 -0.5640 -0.3283 -0.3126
  132MOL   C16742349   1.338   3.568   6.539 -0.2106 -0.0546  0.3864
  132MOL   C16842350   1.404   3.323   6.516  0.2198 -0.1746 -0.4665
  132MOL   H16942351   1.831   3.390   6.327 -0.6631 -0.5048 -0.0972
  132MOL   H17042352   1.788   3.552   6.389  1.6073 -0.9335  1.2234
  132MOL   H17142353   1.647   3.305   6.452 -2.0311  0.4432  0.7490
  132MOL   H17242354   1.289   3.603   6.449 -2.1057  0.9801  1.7748
  132MOL   H17342355   1.263   3.536   6.611 -1.0357  1.3390  0.1575
  132MOL   H17442356   1.376   3.655   6.593 -0.5161  0.0777  0.3838
  132MOL   H17542357   1.482   3.252   6.544  1.6983  1.2593 -0.8182
  132MOL   H17642358   1.374   3.311   6.412  0.0933 -1.1553 -0.3149
  132MOL   H17742359   1.314   3.307   6.575 -0.3155 -1.7871 -1.6927
  132MOL   C17842360   1.801   3.388   6.584 -0.3399  0.2850 -0.5832
  132MOL   C17942361   1.901   3.279   6.561 -0.1623  0.3756 -1.1386
  132MOL   C18042362   1.857   3.145   6.634 -0.3521 -0.4159  0.3030
  132MOL   O18142363   1.814   3.151   6.749 -0.1280 -0.3251  0.1426
  132MOL   N18242364   1.882   3.022   6.579  0.3705 -0.3083 -0.5332
  132MOL   C18342365   1.951   3.007   6.453 -0.3483 -0.2644  0.3291
  132MOL   C18442366   1.822   2.909   6.638  0.1996  0.1897  0.0873
  132MOL   H18542367   1.856   3.483   6.581 -0.6469  0.4110 -2.8441
  132MOL   H18642368   1.771   3.391   6.689  2.5385  1.3835  0.2597
  132MOL   H18742369   1.927   3.265   6.456 -0.5532  1.5283 -1.3907
  132MOL   H18842370   2.000   2.910   6.443  0.4878  0.3560 -1.9060
  132MOL   H18942371   1.883   3.010   6.367 -2.2374 -1.1807  1.7513
  132MOL   H19042372   2.038   3.070   6.436 -0.8134  0.5373  0.8707
  132MOL   H19142373   1.871   2.823   6.592  1.5577  1.1738 -0.3376
  132MOL   H19242374   1.715   2.893   6.622  0.0915  2.7240 -2.1252
  132MOL   H19342375   1.846   2.893   6.743 -0.8266 -1.2526  0.1272
  132MOL   C19442376   2.035   3.303   6.642 -0.0388 -0.1863  0.0689
  132MOL   C19542377   2.135   3.408   6.575  0.6095 -0.1081  0.0264
  132MOL   C19642378   2.153   3.382   6.420  0.2975 -0.2118 -0.6301
  132MOL   O19742379   2.205   3.277   6.390 -0.0414 -0.6862  0.6151
  132MOL   N19842380   2.103   3.469   6.326 -0.1161  0.3225 -0.2279
  132MOL   C19942381   2.055   3.605   6.340  0.2538  0.1031 -0.0927
  132MOL   C20042382   2.098   3.421   6.188 -0.7332 -1.1598 -0.4375
  132MOL   H20142383   2.014   3.333   6.745  0.1227  3.6543 -0.9194
  132MOL   H20242384   2.089   3.210   6.660  1.8961  0.9967  0.4934
  132MOL   H20342385   2.080   3.502   6.584 -0.1033 -0.6677  1.5930
  132MOL   H20442386   2.137   3.677   6.336 -0.7930  1.3242 -0.1740
  132MOL   H20542387   1.975   3.629   6.270 -0.8436 -0.3543  0.9771
  132MOL   H20642388   2.000   3.610   6.435  1.9982  1.6190  0.8759
  132MOL   H20742389   2.197   3.382   6.165 -0.0526 -0.9272  1.9181
  132MOL   H20842390   2.070   3.494   6.113 -1.0682 -0.2288  0.5817
  132MOL   H20942391   2.028   3.339   6.170 -1.6446 -0.4073 -0.3776
  132MOL   C21042392   2.266   3.411   6.652  0.5654 -0.0710 -0.3997
  132MOL   C21142393   2.329   3.554   6.669 -0.4752 -0.0905  0.1119
  132MOL   C21242394   2.484   3.542   6.664  0.6686 -0.8377 -0.2137
  132MOL   O21342395   2.543   3.490   6.759  1.0148 -0.0222  0.0115
  132MOL   N21442396   2.551   3.607   6.559  0.2132 -0.8119 -0.7472
  132MOL   C21542397   2.487   3.636   6.427 -0.3558  0.4831  0.6947
  132MOL   C21642398   2.680   3.667   6.578 -0.7394 -0.3943  0.0522
  132MOL   H21742399   2.250   3.373   6.753  1.0112 -1.7478 -0.9402
  132MOL   H21842400   2.331   3.346   6.594  1.2588  1.2712 -1.1507
  132MOL   H21942401   2.304   3.608   6.578  4.5662 -0.3986 -1.6026
  132MOL   H22042402   2.433   3.730   6.423  1.6918  1.6980  1.1304
  132MOL   H22142403   2.564   3.659   6.353 -1.3066 -1.9306 -1.1255
  132MOL   H22242404   2.430   3.553   6.385  0.7045  0.9114 -1.6630
  132MOL   H22342405   2.683   3.726   6.669 -2.3778  0.2754 -0.3006
  132MOL   H22442406   2.712   3.722   6.489 -1.4787  0.9258  0.5929
  132MOL   H22542407   2.753   3.588   6.597 -1.7422 -1.2774  0.3411
  132MOL   C22642408   2.281   3.634   6.793  0.1168  0.1699  0.1444
  132MOL   C22742409   2.293   3.576   6.936 -0.0237  0.4901  1.1771
  132MOL   C22842410   2.176   3.485   6.984 -0.4855  0.0713 -0.0502
  132MOL   O22942411   2.064   3.539   6.969 -0.7905 -0.1451  0.3694
  132MOL   N23042412   2.199   3.362   7.035 -0.1544  0.6588 -0.4095
  132MOL   C23142413   2.322   3.281   7.025 -0.1027  0.2325 -0.0612
  132MOL   C23242414   2.093   3.305   7.124 -1.2780  0.0110  0.6686
  132MOL   H23342415   2.327   3.733   6.791  0.2924  0.0866  0.1249
  132MOL   H23442416   2.173   3.646   6.778 -0.3307 -1.1192  2.1892
  132MOL   H23542417   2.381   3.512   6.942  0.2364  0.8030  0.7618
  132MOL   H23642418   2.377   3.276   6.931 -2.3263 -0.9585 -1.3260
  132MOL   H23742419   2.394   3.315   7.100  2.1949  0.0800 -2.0975
  132MOL   H23842420   2.301   3.175   7.033  2.4657 -0.2245  1.2931
  132MOL   H23942421   2.111   3.216   7.185  1.1520 -0.1522 -0.2370
  132MOL   H24042422   2.013   3.278   7.054 -1.7918  1.7483  0.5682
  132MOL   H24142423   2.057   3.389   7.184 -0.7703  0.1493  0.7784
  132MOL   C24242424   2.314   3.686   7.046  0.7012  0.6379  0.1647
  132MOL   C24342425   2.456   3.715   7.108 -0.1365  0.5338  0.0988
  132MOL   C24442426   2.501   3.578   7.177  0.1779 -0.5222 -0.1317
  132MOL   O24542427   2.434   3.531   7.268 -0.5318 -0.3433  0.6157
  132MOL   N24642428   2.612   3.514   7.134 -0.3337 -0.3313  0.1563
  132MOL   C24742429   2.711   3.574   7.044 -0.0905 -0.3400 -0.6814
  132MOL   C24842430   2.659   3.388   7.194  0.2497 -0.2515 -0.2376
  132MOL   H24942431   2.272   3.783   7.023  1.9839  1.3152  0.5739
  132MOL   H25042432   2.255   3.659   7.134 -1.0671  0.4244 -1.0756
  132MOL   H25142433   2.516   3.743   7.022  0.2223 -0.3905  0.0429
  132MOL   H25242434   2.696   3.552   6.938  0.1327 -0.3953 -0.7014
  132MOL   H25342435   2.713   3.682   7.039  0.3890 -0.2132  1.7855
  132MOL   H25442436   2.810   3.536   7.070 -0.5114 -0.2047  1.2039
  132MOL   H25542437   2.746   3.400   7.258 -0.3579 -0.4658  0.6241
  132MOL   H25642438   2.685   3.319   7.113  0.5831 -0.6043  0.1675
  132MOL   H25742439   2.577   3.333   7.239  0.2851  0.3239  0.5374
  132MOL   C25842440   2.463   3.825   7.210 -0.0044  0.0067  0.1691
  132MOL   C25942441   2.472   3.977   7.164  0.8780  0.7527  0.6232
  132MOL   C26042442   2.592   4.017   7.071  0.0947  0.3837 -0.2939
  132MOL   O26142443   2.683   3.941   7.079 -0.4259  1.3177 -0.6657
  132MOL   N26242444   2.593   4.126   6.996  0.6413 -0.3808 -0.2922
  132MOL   C26342445   2.478   4.209   6.964 -0.4388  0.2898 -0.3650
  132MOL   C26442446   2.724   4.172   6.952  0.6436 -0.7615  0.9296
  132MOL   H26542447   2.370   3.817   7.267 -0.9094 -3.4193 -1.6716
  132MOL   H26642448   2.545   3.817   7.280  0.6050  1.0792 -0.3928
  132MOL   H26742449   2.383   3.998   7.105 -0.3988 -1.2796  1.7470
  132MOL   H26842450   2.497   4.308   6.923 -3.3052  0.6186 -1.0074
  132MOL   H26942451   2.419   4.150   6.894 -1.4599  2.0078 -0.9779
  132MOL   H27042452   2.405   4.221   7.044 -1.3481 -1.6849 -0.8869
  132MOL   H27142453   2.793   4.158   7.036  1.9397  0.1427  0.0376
  132MOL   H27242454   2.720   4.280   6.933 -1.0165 -0.2204  4.0288
  132MOL   H27342455   2.759   4.114   6.867  0.9755 -1.1624  1.3428
  132MOL   C27442456   2.465   4.090   7.274  0.4607  0.5391 -0.0423
  132MOL   C27542457   2.335   4.108   7.359 -0.2826 -0.5114  0.2679
  132MOL   C27642458   2.232   4.196   7.284 -0.6401  0.6899  0.0880
  132MOL   O27742459   2.260   4.313   7.281  0.6201  0.7967 -0.2300
  132MOL   N27842460   2.122   4.146   7.224 -0.3932  0.0526  0.1274
  132MOL   C27942461   2.081   4.006   7.226 -0.6226  0.3231  0.2573
  132MOL   C28042462   2.035   4.238   7.154 -0.0891 -0.8249 -0.6250
  132MOL   H28142463   2.546   4.064   7.343  0.7096 -0.2048 -0.6021
  132MOL   H28242464   2.508   4.188   7.251 -0.9878  0.9875 -0.8932
  132MOL   H28342465   2.298   4.009   7.385  2.0169 -1.6758 -0.7681
  132MOL   H28442466   2.166   3.939   7.211 -1.6086 -0.7293 -0.7194
  132MOL   H28542467   2.038   3.986   7.324  2.1589 -1.3173  1.1988
  132MOL   H28642468   2.010   3.983   7.147  0.7519 -0.3254 -0.8260
  132MOL   H28742469   1.979   4.196   7.071  0.1235 -1.1081 -0.6240
  132MOL   H28842470   2.077   4.329   7.112 -0.4659  0.7838  2.3636
  132MOL   H28942471   1.957   4.273   7.222 -0.7246 -2.5789 -0.4116
  132MOL   C29042472   2.370   4.156   7.505  0.2696  0.3870  0.6626
  132MOL   C29142473   2.262   4.160   7.612  0.5526 -0.2463  0.0353
  132MOL   C29242474   2.304   4.266   7.720  0.6255 -0.2930 -0.0572
  132MOL   O29342475   2.426   4.278   7.747  0.4720  0.3669  0.4375
  132MOL   N29442476   2.206   4.341   7.779  0.1315  1.2687  0.3235
  132MOL   C29542477   2.233   4.456   0.010  0.3859  1.0400  0.4990
  132MOL   C29642478   2.059   4.312   7.763  0.1308 -0.2568  0.4126
  132MOL   H29742479   2.451   4.091   7.537  0.8767 -0.1385 -1.8033
  132MOL   H29842480   2.412   4.257   7.509  0.1421  0.3515  4.4322
  132MOL   H29942481   2.173   4.198   7.562 -1.6302 -1.5261  2.7630
  132MOL   H30042482   2.200   4.434   0.111 -1.9839 -0.1501 -0.4828
  132MOL   H30142483   2.341   4.469   0.011  0.6530 -1.1214  2.4588
  132MOL   H30242484   2.188   4.547   7.823  1.0676  0.8855 -0.6463
  132MOL   H30342485   2.048   4.217   7.815 -1.8089 -0.7331 -0.8018
  132MOL   H30442486   2.034   4.316   7.657  0.9760  0.3953  0.2311
  132MOL   H30542487   1.998   4.386   7.814  2.2819  1.4925  0.5362
  132MOL   C30642488   2.232   4.018   7.678  1.0816  0.2198 -0.2205
  132MOL   C30742489   2.360   3.942   7.729 -0.5792 -0.2667 -0.6505
  132MOL   C30842490   2.423   3.839   7.631 -0.4820  0.3674 -0.5787
  132MOL   O30942491   2.358   3.805   7.534 -0.0422  0.6180  0.3862
  132MOL   N31042492   2.541   3.779   7.663  0.5511 -0.0197 -0.0571
  132MOL   C31142493   2.630   3.818   7.772  0.2759  0.7187  0.1858
  132MOL   C31242494   2.592   3.684   7.574 -0.0147  0.5409 -0.4935
  132MOL   H31342495   2.150   4.028   7.750  1.5245 -1.9031  0.6199
  132MOL   H31442496   2.179   3.961   7.601  0.9984  2.2796 -1.7187
  132MOL   H31542497   2.429   4.010   7.777  0.2834 -2.0203  0.6493
  132MOL   H31642498   2.634   3.927   7.773 -3.8419  0.9295  0.9870
  132MOL   H31742499   2.585   3.784   0.011  1.0534 -0.6509  0.0718
  132MOL   H31842500   2.735   3.789   7.767  0.3966  0.6528  2.5442
  132MOL   H31942501   2.518   3.607   7.552 -1.1505  1.1186  1.2101
  132MOL   H32042502   2.682   3.626   7.597 -0.7636  0.0314  1.2486
  132MOL   H32142503   2.620   3.728   7.478  0.3522 -2.1226 -1.6683
  132MOL   H32242504   2.329   3.873   7.809  1.0617 -2.4742 -1.8705
  133MOL     C142505   5.351   2.592   4.216  0.2817 -0.0179  0.5015
  133MOL     C242506   5.411   2.615   4.073  0.0340  0.5445 -0.8873
  133MOL     C342507   5.371   2.500   3.979 -0.0757 -0.2970  0.0558
  133MOL     O442508   5.345   2.386   4.030 -0.2436 -0.3253 -0.3954
  133MOL     N542509   5.385   2.511   3.845  0.2013 -0.4297 -0.4105
  133MOL     C642510   5.364   2.401   3.760 -0.1210 -0.0937  0.7180
  133MOL     C742511   5.409   2.638   3.780 -0.5305  0.2545 -0.4566
  133MOL     H842512   5.391   2.651   4.298 -0.7299  4.1374 -1.8844
  133MOL     H942513   5.364   2.488   4.247  1.5555  0.0848  0.3288
  133MOL    H1042514   5.376   2.707   4.026  0.6574  0.5042 -1.4519
  133MOL    H1142515   5.286   2.421   3.686  0.5444 -0.5936 -0.1405
  133MOL    H1242516   5.456   2.372   3.708 -0.6689 -0.3549 -0.1111
  133MOL    H1342517   5.329   2.307   3.803  0.5317 -0.6140  0.1453
  133MOL    H1442518   5.515   2.663   3.784 -0.5356  0.6923 -2.4804
  133MOL    H1542519   5.356   2.725   3.818  0.8391  0.9395 -0.0657
  133MOL    H1642520   5.380   2.631   3.675 -0.5587 -2.0484 -0.3239
  133MOL    H1742521   5.243   2.601   4.205  0.6179  2.3094 -1.3154
  133MOL    C1842522   5.563   2.637   4.087 -0.3558 -0.2986 -0.5272
  133MOL    C1942523   5.600   2.774   4.151 -0.5209  0.1569 -0.6734
  133MOL    C2042524   5.527   2.897   4.094  0.0938  0.3152  0.2042
  133MOL    O2142525   5.549   2.920   3.978 -0.0960 -0.0078  0.6342
  133MOL    N2242526   5.446   2.977   4.171 -0.2785  0.0953  0.7903
  133MOL    C2342527   5.350   3.069   4.105  0.1724 -0.6079 -0.3338
  133MOL    C2442528   5.435   2.964   4.317  0.3601 -1.3332 -0.6387
  133MOL    H2542529   5.590   2.555   4.154 -3.4867  0.6448  2.0666
  133MOL    H2642530   5.617   2.614   3.996  1.3465 -1.6148  0.7740
  133MOL    H2742531   5.573   2.755   4.255  0.9306 -0.1964 -0.3487
  133MOL    H2842532   5.396   3.165   4.082 -4.2565  1.4938 -1.0076
  133MOL    H2942533   5.310   3.033   4.010 -0.6171 -0.0777 -0.2084
  133MOL    H3042534   5.263   3.083   4.170  0.6660  1.9025 -0.1618
  133MOL    H3142535   5.406   3.060   4.359  0.8839 -1.3402 -0.2476
  133MOL    H3242536   5.522   2.929   4.372  0.5935 -0.0985 -0.2059
  133MOL    H3342537   5.362   2.890   4.349 -0.0224 -0.0126  1.6300
  133MOL    C3442538   5.753   2.781   4.138 -0.2863 -0.2305 -0.4295
  133MOL    C3542539   5.815   2.879   4.245  0.2105  0.5953 -0.4648
  133MOL    C3642540   5.905   2.985   4.184  0.0892 -0.3758 -0.0318
  133MOL    O3742541   5.977   2.945   4.094  0.0967 -0.0662  0.1593
  133MOL    N3842542   5.897   3.119   4.221  0.1977 -0.1845  0.6564
  133MOL    C3942543   5.797   3.175   4.314  0.1250  0.4016 -0.0841
  133MOL    C4042544   5.970   3.228   4.145 -0.7261 -0.0259  0.2802
  133MOL    H4142545   5.802   2.684   4.141 -1.7441 -0.9614  0.4796
  133MOL    H4242546   5.771   2.818   4.038 -0.8214 -0.9372 -0.7948
  133MOL    H4342547   5.741   2.932   4.305 -0.6446 -1.0990 -0.0031
  133MOL    H4442548   5.699   3.193   4.269  0.8235  1.0815 -1.3805
  133MOL    H4542549   5.788   3.114   4.403 -1.1427  1.4522  0.5236
  133MOL    H4642550   5.836   3.268   4.356 -0.1397  1.4841 -2.1249
  133MOL    H4742551   6.079   3.234   4.153 -0.6541 -1.4831  0.5976
  133MOL    H4842552   5.939   3.327   4.179  0.1202  0.5483 -0.5853
  133MOL    H4942553   5.954   3.197   4.042  2.7835 -0.7070 -0.1392
  133MOL    C5042554   5.903   2.798   4.343 -0.1652 -0.0344 -0.7601
  133MOL    C5142555   5.833   2.693   4.437  0.4825 -0.3331  0.1583
  133MOL    C5242556   5.725   2.758   4.530 -0.1815 -1.0619  0.4834
  133MOL    O5342557   5.753   2.867   4.580 -0.4011  0.5957  0.1624
  133MOL    N5442558   5.608   2.698   4.558 -0.7874 -0.8549 -0.2042
  133MOL    C5542559   5.519   2.763   4.650  0.3578 -0.4751  0.1165
  133MOL    C5642560   5.566   2.570   4.495 -0.7032  0.1925  0.1143
  133MOL    H5742561   5.975   2.741   4.284 -0.3691 -2.0714  0.8837
  133MOL    H5842562   5.963   2.871   4.397 -0.1552 -0.5215 -0.0972
  133MOL    H5942563   5.778   2.628   4.368 -1.4743  0.8597  0.5667
  133MOL    H6042564   5.486   2.698   4.731 -1.6721  0.5942  0.1860
  133MOL    H6142565   5.561   2.849   4.702  1.6513  0.8051 -2.9251
  133MOL    H6242566   5.433   2.794   4.590 -1.2443 -1.3950  1.8830
  133MOL    H6342567   5.467   2.545   4.534 -0.2140 -0.1482  1.1596
  133MOL    H6442568   5.634   2.494   4.532 -0.1200 -0.2229 -1.7331
  133MOL    H6542569   5.572   2.557   4.387  1.0407 -0.3560  0.2713
  133MOL    C6642570   5.929   2.611   4.519 -0.1336  0.6175  0.3229
  133MOL    C6742571   6.026   2.519   4.437  0.4078  0.1532  0.7183
  133MOL    C6842572   5.943   2.407   4.365 -0.4224  0.2816 -0.0592
  133MOL    O6942573   5.853   2.353   4.429  0.0230  0.0521  0.2064
  133MOL    N7042574   5.963   2.366   4.236  0.1395  0.3597 -0.1374
  133MOL    C7142575   5.894   2.251   4.183  0.3129 -0.1429  0.4647
  133MOL    C7242576   6.022   2.448   4.127 -0.1178  0.1288  0.5220
  133MOL    H7342577   5.995   2.678   4.575  3.4140 -0.7746 -2.0226
  133MOL    H7442578   5.871   2.551   4.588  1.3832  1.6264  2.5259
  133MOL    H7542579   6.086   2.574   4.364 -0.4636 -0.5361 -0.5417
  133MOL    H7642580   5.787   2.268   4.192 -0.0172 -0.6726 -1.9268
  133MOL    H7742581   5.921   2.229   4.080  0.5978  1.7820  0.1200
  133MOL    H7842582   5.926   2.160   4.233 -0.4508 -0.6868 -0.0187
  133MOL    H7942583   5.993   2.424   4.024  1.6432  1.8096 -0.3987
  133MOL    H8042584   6.127   2.420   4.126  0.6081  2.6414 -2.2754
  133MOL    H8142585   6.007   2.555   4.137  3.4895  0.8934 -1.3725
  133MOL    C8242586   6.128   2.456   4.534 -0.8486  0.8913 -0.4443
  133MOL    C8342587   6.085   2.351   4.653 -0.6746 -0.1239 -0.5075
  133MOL    C8442588   6.005   2.426   4.770 -0.8016  0.2315 -0.5037
  133MOL    O8542589   6.048   2.539   4.802 -0.0697  0.4316  0.8323
  133MOL    N8642590   5.898   2.372   4.827  0.3919  0.0843  0.8709
  133MOL    C8742591   5.870   2.228   4.819 -0.5200  0.6796 -0.2489
  133MOL    C8842592   5.812   2.450   4.918  1.0725 -0.4853 -0.2883
  133MOL    H8942593   6.210   2.409   4.480 -0.7769 -1.1257  1.3120
  133MOL    H9042594   6.181   2.535   4.588 -0.0580 -0.5287  0.9068
  133MOL    H9142595   6.020   2.270   4.618 -0.3602 -1.4139  1.8114
  133MOL    H9242596   5.787   2.201   4.885  1.4354 -1.7643  1.2738
  133MOL    H9342597   5.838   2.211   4.716 -1.0381  0.8938 -0.1285
  133MOL    H9442598   5.954   2.164   4.845 -1.1816 -0.1881 -0.2353
  133MOL    H9542599   5.789   2.550   4.882 -1.5716 -1.8301 -2.5716
  133MOL    H9642600   5.859   2.449   5.016  2.2675  0.7995 -0.8348
  133MOL    H9742601   5.715   2.404   4.939  0.1677  1.9105  0.8537
  133MOL    C9842602   6.217   2.284   4.706  0.5333 -0.5627  0.2559
  133MOL    C9942603   6.296   2.177   4.627  0.3873  0.1265  0.1223
  133MOL   C10042604   6.255   2.042   4.679  0.0147 -0.0489 -0.0785
  133MOL   O10142605   6.286   2.021   4.797 -0.1612  0.4681 -0.5230
  133MOL   N10242606   6.188   1.954   4.600 -0.2796  0.1727 -0.1187
  133MOL   C10342607   6.142   1.819   4.638 -0.7588 -0.5338 -0.8026
  133MOL   C10442608   6.142   1.988   4.460 -0.5822  0.3073 -0.0413
  133MOL   H10542609   6.286   2.366   4.726 -0.9249  1.1292 -1.4477
  133MOL   H10642610   6.195   2.257   4.809  0.2004  0.8158  0.5670
  133MOL   H10742611   6.275   2.192   4.521  1.6102 -0.1888 -0.1645
  133MOL   H10842612   6.085   1.759   4.568 -3.0312 -2.6857  2.7436
  133MOL   H10942613   6.239   1.770   4.650 -0.8057  0.2877  4.1094
  133MOL   H11042614   6.102   1.811   4.739  1.1287  0.1742  0.0401
  133MOL   H11142615   6.229   1.964   4.399  0.1294  0.9797  0.7019
  133MOL   H11242616   6.113   2.090   4.435  0.2965  0.6127  0.1779
  133MOL   H11342617   6.058   1.923   4.438 -0.0250 -0.4325 -0.0011
  133MOL   C11442618   6.453   2.198   4.622 -0.7441  0.1630 -0.1381
  133MOL   C11542619   6.511   2.305   4.531 -0.5663 -0.3109 -0.2957
  133MOL   C11642620   6.492   2.274   4.385  0.2299 -0.0966  0.4950
  133MOL   O11742621   6.492   2.155   4.353  0.0653  0.2831  0.3099
  133MOL   N11842622   6.485   2.368   4.286 -0.1632  0.2994 -0.1080
  133MOL   C11942623   6.439   2.319   4.154 -1.0526  0.0150  1.1571
  133MOL   C12042624   6.511   2.512   4.292 -0.1042  0.6265 -0.4629
  133MOL   H12142625   6.489   2.215   4.724  0.5915  1.8255 -0.8637
  133MOL   H12242626   6.501   2.109   4.582  1.4861  1.6804 -0.9350
  133MOL   H12342627   6.455   2.397   4.548 -0.4874 -0.4347  0.6903
  133MOL   H12442628   6.525   2.287   4.094 -2.0120 -0.0126 -0.2410
  133MOL   H12542629   6.362   2.242   4.162 -0.6722 -0.5245 -0.1103
  133MOL   H12642630   6.392   2.399   4.096 -1.5690 -0.1613  1.3327
  133MOL   H12742631   6.411   2.553   4.302 -0.3639  0.0261 -0.5937
  133MOL   H12842632   6.581   2.540   4.213 -0.7891 -1.1250 -1.7079
  133MOL   H12942633   6.565   2.537   4.383  3.3820  0.1741 -2.3181
  133MOL   C13042634   6.657   2.338   4.567  0.3090 -0.5002  0.3191
  133MOL   C13142635   6.700   2.394   4.704 -0.2957 -0.2856  0.3415
  133MOL   C13242636   6.636   2.525   4.745 -0.2673  0.3237  0.7049
  133MOL   O13342637   6.636   2.621   4.664  0.5038  0.0192 -0.1960
  133MOL   N13442638   6.594   2.546   4.872 -0.1814  0.3661  0.0190
  133MOL   C13542639   6.586   2.447   4.980  0.0600 -0.9196  0.3086
  133MOL   C13642640   6.534   2.673   4.905 -0.2300 -0.0683  0.0873
  133MOL   H13742641   6.719   2.248   4.564 -0.4229 -1.0958  2.4650
  133MOL   H13842642   6.687   2.414   4.494 -2.1414 -0.1625 -0.3743
  133MOL   H13942643   6.681   2.312   4.774 -0.7722 -1.6144 -1.2983
  133MOL   H14042644   6.486   2.405   4.974 -0.1109 -0.9390  2.6549
  133MOL   H14142645   6.653   2.361   4.977  2.0473  0.5136  1.5584
  133MOL   H14242646   6.590   2.494   5.079 -0.7533 -0.3232  0.0632
  133MOL   H14342647   6.478   2.671   4.998  1.5131 -0.6748  1.1426
  133MOL   H14442648   6.460   2.699   4.829 -1.3831  0.7240  1.4692
  133MOL   H14542649   6.611   2.750   4.899 -0.5399  0.2391  0.0239
  133MOL   C14642650   6.851   2.415   4.704  0.0468 -0.3074  0.0924
  133MOL   C14742651   6.913   2.544   4.634 -0.1986  0.1329 -0.1045
  133MOL   C14842652   7.032   2.495   4.553  0.6493  0.4460  0.4513
  133MOL   O14942653   7.112   2.421   4.618  0.3813  0.1063 -0.1748
  133MOL   N15042654   7.033   2.500   4.418  0.0523  0.5529 -0.4905
  133MOL   C15142655   7.143   2.438   4.343 -0.4327 -0.0279  0.6511
  133MOL   C15242656   6.930   2.559   4.334  0.6654  0.2162 -0.4657
  133MOL   H15342657   6.884   2.414   4.808  2.1023  0.0764 -0.5291
  133MOL   H15442658   6.885   2.321   4.660 -1.1927 -0.7490  0.0784
  133MOL   H15542659   6.847   2.598   4.566 -1.5454  0.8911  1.7616
  133MOL   H15642660   7.179   2.359   4.409  1.4534  0.7976  0.6562
  133MOL   H15742661   7.106   2.392   4.251  1.7626 -0.0483 -0.2640
  133MOL   H15842662   7.224   2.506   4.316 -0.3973  0.3003  1.5829
  133MOL   H15942663   6.909   2.664   4.357 -0.4126  0.4738 -2.4849
  133MOL   H16042664   6.834   2.510   4.351  0.7902 -0.3136 -1.2503
  133MOL   H16142665   6.944   2.551   4.226  0.7084  2.0701 -0.6228
  133MOL   C16242666   6.953   2.648   4.749  0.2863  0.4639 -0.6726
  133MOL   C16342667   7.088   2.728   4.736  0.7450 -0.4274 -0.1589
  133MOL   C16442668   7.202   2.655   4.806 -0.1417 -0.1426 -0.3573
  133MOL   O16542669   7.180   2.617   4.922 -0.1428 -0.1537 -0.1802
  133MOL   N16642670   7.325   2.644   4.746  0.9091 -0.4001  0.0103
  133MOL   C16742671   7.348   2.720   4.624  0.1755  0.2954 -0.2768
  133MOL   C16842672   7.442   2.576   4.810 -0.0463 -0.1884  0.2490
  133MOL   H16942673   6.866   2.709   4.769  1.0403  0.8795  1.4943
  133MOL   H17042674   6.954   2.602   4.848  1.8939  0.6853 -0.5626
  133MOL   H17142675   7.106   2.730   4.629  0.4419  3.1219 -0.2045
  133MOL   H17242676   7.453   2.711   4.596  0.3513  1.2998  0.0428
  133MOL   H17342677   7.277   2.684   4.549 -0.2571 -0.1001  0.3169
  133MOL   H17442678   7.328   2.827   4.627 -0.0322  0.2634 -0.4645
  133MOL   H17542679   7.527   2.640   4.789 -1.3317  1.3516 -0.3197
  133MOL   H17642680   7.449   2.472   4.778  0.9541  0.2025 -0.8170
  133MOL   H17742681   7.428   2.574   4.918 -2.4961 -1.7496 -0.0501
  133MOL   C17842682   7.073   2.876   4.783 -0.0059 -0.0957 -0.2910
  133MOL   C17942683   7.008   2.971   4.688 -0.2251 -0.2695  0.1632
  133MOL   C18042684   7.064   2.973   4.546 -0.4443 -0.0523  0.1120
  133MOL   O18142685   7.187   2.992   4.538 -0.0609 -0.4358  0.2255
  133MOL   N18242686   6.991   2.938   4.439 -0.4348  0.2470 -0.1928
  133MOL   C18342687   7.038   2.925   4.306 -0.2568 -0.1111  0.3190
  133MOL   C18442688   6.844   2.915   4.448 -0.4686  0.0096  0.0347
  133MOL   H18542689   7.013   2.890   4.873 -0.5309  1.7208 -0.8983
  133MOL   H18642690   7.172   2.915   4.803 -0.4338  1.5740 -1.3928
  133MOL   H18742691   6.906   2.934   4.683 -0.2789 -0.4050  1.9681
  133MOL   H18842692   6.972   2.871   4.238  1.7861 -0.8067 -1.1649
  133MOL   H18942693   7.042   3.029   4.271 -0.2750 -0.5685 -1.0618
  133MOL   H19042694   7.131   2.869   4.310  1.3931  2.5704  0.7876
  133MOL   H19142695   6.792   2.870   4.363 -2.5245 -2.1432  2.3514
  133MOL   H19242696   6.792   3.005   4.482  0.7337  1.0414 -0.7835
  133MOL   H19342697   6.827   2.838   4.523  1.2773  0.3415  0.7971
  133MOL   C19442698   6.999   3.119   4.741 -0.2046 -0.4196  0.3884
  133MOL   C19542699   6.885   3.147   4.851 -0.3045 -0.0507  0.2392
  133MOL   C19642700   6.745   3.109   4.798 -0.1942 -0.0091  0.3531
  133MOL   O19742701   6.714   3.135   4.685 -0.1132  0.3927 -0.4024
  133MOL   N19842702   6.662   3.038   4.879 -0.5196 -0.7159  0.0317
  133MOL   C19942703   6.536   2.996   4.820 -0.3263 -0.5823 -0.5308
  133MOL   C20042704   6.685   2.996   5.021  0.1073  0.2986  0.1565
  133MOL   H20142705   7.099   3.158   4.761 -0.8344  1.3021  0.2411
  133MOL   H20242706   6.964   3.177   4.656 -0.5712 -1.0916  0.0760
  133MOL   H20342707   6.910   3.092   4.941  0.4449 -0.6834 -0.3454
  133MOL   H20442708   6.563   2.941   4.729  1.2403 -0.6225 -0.0587
  133MOL   H20542709   6.478   2.923   4.877  0.8167 -0.3434  0.9693
  133MOL   H20642710   6.464   3.076   4.801  1.3903  0.9501 -0.6779
  133MOL   H20742711   6.780   2.944   5.036  0.0945 -0.2170 -1.5304
  133MOL   H20842712   6.610   2.921   5.047  2.1870 -1.6565  0.6852
  133MOL   H20942713   6.681   3.074   5.098 -0.7877  1.7214 -1.3087
  133MOL   C21042714   6.877   3.300   4.885 -0.1369  0.6916 -0.4039
  133MOL   C21142715   6.995   3.370   4.963 -0.1030 -0.2231 -0.3174
  133MOL   C21242716   7.022   3.305   5.095  0.3215  0.0285  0.2381
  133MOL   O21342717   6.927   3.274   5.169  0.3456 -0.5049  0.0445
  133MOL   N21442718   7.149   3.272   5.136  0.1178  0.3730 -0.5517
  133MOL   C21542719   7.154   3.190   5.268 -0.0868 -0.8957  0.6166
  133MOL   C21642720   7.276   3.301   5.067 -0.2883 -0.6900  0.2513
  133MOL   H21742721   6.864   3.354   4.791 -0.0019  0.4899 -0.5371
  133MOL   H21842722   6.782   3.325   4.933 -1.3665 -2.8526 -0.8519
  133MOL   H21942723   7.088   3.362   4.907  0.1932 -0.7621  0.2334
  133MOL   H22042724   7.095   3.098   5.260 -0.0220 -1.0342  1.6605
  133MOL   H22142725   7.252   3.144   5.282  0.2156  0.1771  2.1636
  133MOL   H22242726   7.127   3.242   5.359  0.2447  0.1665  0.1123
  133MOL   H22342727   7.292   3.218   4.998 -0.2621 -0.2433 -0.2876
  133MOL   H22442728   7.359   3.287   5.136  1.7154  2.8241 -1.3124
  133MOL   H22542729   7.280   3.383   4.995  3.2380  0.0184  1.1485
  133MOL   C22642730   6.953   3.524   4.997  0.1684  0.1180 -0.0560
  133MOL   C22742731   6.992   3.635   4.889  0.8653  0.6307 -0.6599
  133MOL   C22842732   7.144   3.663   4.879  0.8895 -0.3067  0.0060
  133MOL   O22942733   7.198   3.717   4.975 -0.1689 -0.1092  0.8281
  133MOL   N23042734   7.221   3.630   4.769  0.5007 -0.2346  0.0176
  133MOL   C23142735   7.169   3.567   4.651  0.1908  0.3766 -0.2725
  133MOL   C23242736   7.364   3.664   4.768  0.0867  0.0645 -0.0158
  133MOL   H23342737   6.847   3.517   5.021 -0.2402  1.1273 -1.5064
  133MOL   H23442738   6.996   3.553   5.092  2.0771 -0.7391 -0.6267
  133MOL   H23542739   6.956   3.599   4.793  0.7777 -0.0613 -0.3733
  133MOL   H23642740   7.140   3.467   4.684  1.4214  0.8621  2.3480
  133MOL   H23742741   7.085   3.626   4.615 -0.9635 -0.6965  0.6228
  133MOL   H23842742   7.244   3.555   4.573  0.4757 -1.6214  0.2848
  133MOL   H23942743   7.384   3.771   4.777 -2.3428  0.4191  1.8489
  133MOL   H24042744   7.412   3.620   4.681 -1.7096 -0.3467 -0.8097
  133MOL   H24142745   7.422   3.621   4.850  2.7436  1.9965 -0.8277
  133MOL   C24242746   6.908   3.770   4.895  0.6059  0.1770 -0.8113
  133MOL   C24342747   6.755   3.759   4.916 -0.3421 -0.7089  0.8674
  133MOL   C24442748   6.693   3.651   4.828  0.3467 -0.1772 -0.6773
  133MOL   O24542749   6.722   3.649   4.708  0.5492 -0.9728 -0.0437
  133MOL   N24642750   6.613   3.557   4.886 -0.1118  0.7778  0.6458
  133MOL   C24742751   6.539   3.566   5.011 -0.4911  0.2270  0.1074
  133MOL   C24842752   6.566   3.451   4.798 -0.1837 -0.2446  0.4262
  133MOL   H24942753   6.960   3.828   4.972 -0.8113  0.1401  0.1864
  133MOL   H25042754   6.933   3.828   4.806  0.5808  2.1962  0.4531
  133MOL   H25142755   6.750   3.720   5.017 -2.7779 -2.9050 -0.0209
  133MOL   H25242756   6.594   3.617   5.090 -2.5258  0.8083  1.2037
  133MOL   H25342757   6.439   3.610   5.008 -1.4528 -1.9302 -0.3745
  133MOL   H25442758   6.529   3.463   5.044 -0.3375 -0.0828 -0.7966
  133MOL   H25542759   6.484   3.497   4.742  0.2951  0.0139 -0.0689
  133MOL   H25642760   6.516   3.368   4.848  0.8677 -1.5758 -0.7049
  133MOL   H25742761   6.632   3.401   4.728 -0.1518  1.3814 -0.7430
  133MOL   C25842762   6.679   3.897   4.909  0.5256  0.3069  0.1392
  133MOL   C25942763   6.682   3.968   5.048  0.1187  0.2985 -1.2267
  133MOL   C26042764   6.575   3.918   5.149  0.0186  0.4269  0.1307
  133MOL   O26142765   6.464   3.881   5.113  0.1767  0.1317 -0.3585
  133MOL   N26242766   6.608   3.908   5.282 -0.5414  0.4963 -0.6738
  133MOL   C26342767   6.514   3.856   5.389 -0.2592 -0.3592  0.0613
  133MOL   C26442768   6.730   3.973   5.335 -0.5096 -0.0757  1.1474
  133MOL   H26542769   6.710   3.959   4.825 -1.1190  0.2437 -0.5308
  133MOL   H26642770   6.573   3.877   4.893  0.6022 -0.6916  0.8338
  133MOL   H26742771   6.780   3.948   5.090 -0.2913 -3.0433 -1.6729
  133MOL   H26842772   6.557   3.772   5.442 -1.6709 -2.4994 -2.0395
  133MOL   H26942773   6.486   3.918   5.474  0.5695  1.2689 -0.8369
  133MOL   H27042774   6.419   3.818   5.349 -0.5794 -2.1588  2.4605
  133MOL   H27142775   6.820   3.923   5.300 -0.1943  0.9802  0.4197
  133MOL   H27242776   6.731   3.967   5.444  0.7740  0.5096  1.1799
  133MOL   H27342777   6.731   4.075   5.295 -0.9425 -1.5530 -2.7478
  133MOL   C27442778   6.679   4.123   5.030 -0.0832 -0.0228 -0.1796
  133MOL   C27542779   6.817   4.186   4.995 -1.0334 -0.3432  0.0480
  133MOL   C27642780   6.868   4.276   5.109 -0.5840  0.2171 -0.3384
  133MOL   O27742781   6.947   4.229   5.190  0.3272 -0.1228  0.5858
  133MOL   N27842782   6.828   4.407   5.127  0.1258 -0.0594  0.6956
  133MOL   C27942783   6.739   4.488   5.045 -0.9590  0.8921  0.1566
  133MOL   C28042784   6.860   4.480   5.247  0.1890  0.1063  0.2925
  133MOL   H28142785   6.617   4.134   4.941  0.9414 -0.4115 -0.9499
  133MOL   H28242786   6.631   4.179   5.111 -2.4778 -3.0601  0.5491
  133MOL   H28342787   6.895   4.111   4.984  0.1072  1.1363 -2.4618
  133MOL   H28442788   6.667   4.431   4.987 -2.8470  3.3382  0.0176
  133MOL   H28542789   6.676   4.551   5.107 -2.6935  0.5614 -1.2466
  133MOL   H28642790   6.799   4.562   4.990  2.3717 -0.2491  2.0784
  133MOL   H28742791   6.913   4.427   5.327  0.9959  1.2333  0.5094
  133MOL   H28842792   6.785   4.523   5.312  0.3985  0.6779  0.1565
  133MOL   H28942793   6.931   4.559   5.224  0.3148 -0.2179 -0.4816
  133MOL   C29042794   6.825   4.246   4.848  0.0621 -0.0786 -0.6093
  133MOL   C29142795   6.972   4.265   4.791 -0.3075  0.6602  0.0164
  133MOL   C29242796   6.966   4.362   4.669 -0.1310 -0.2731  0.3399
  133MOL   O29342797   6.927   4.320   4.560 -1.1419 -0.0775  0.1229
  133MOL   N29442798   7.012   4.483   4.684  0.3705 -1.3883 -0.0079
  133MOL   C29542799   7.004   4.583   4.572  0.5097  0.4631  0.4180
  133MOL   C29642800   7.066   4.538   4.810 -0.5401 -0.1524 -0.0493
  133MOL   H29742801   6.771   4.180   4.780  0.0426  0.1953 -0.8623
  133MOL   H29842802   6.783   4.347   4.851  2.1484  0.8255 -0.8002
  133MOL   H29942803   7.036   4.303   4.871 -1.2859  1.1842  0.5579
  133MOL   H30042804   6.899   4.597   4.544  0.6331  0.8214  0.1308
  133MOL   H30142805   7.026   4.688   4.586 -0.5216  0.4239  2.4249
  133MOL   H30242806   7.054   4.546   4.482  2.6383  2.9636  0.5141
  133MOL   H30342807   6.999   4.534   4.896 -0.0345  1.2608  0.4263
  133MOL   H30442808   7.096   4.642   4.796 -0.8708 -0.0233  0.1990
  133MOL   H30542809   7.164   4.496   4.833 -0.5254  0.2955  0.7102
  133MOL   C30642810   7.044   4.135   4.746 -0.2653  0.0323  0.2307
  133MOL   C30742811   7.179   4.161   4.675 -0.1551 -0.1107  0.6412
  133MOL   C30842812   7.248   4.046   4.593 -0.1097 -0.5422 -0.3002
  133MOL   O30942813   7.170   3.952   4.573  0.3488 -0.3554  0.5629
  133MOL   N31042814   7.375   4.053   4.561  0.3548 -0.0121  0.4895
  133MOL   C31142815   7.458   4.177   4.585 -0.4232  0.7084  0.4709
  133MOL   C31242816   7.448   3.944   4.491 -0.9197  0.2345  0.0764
  133MOL   H31342817   7.054   4.073   4.835 -1.5788 -2.4163 -1.2861
  133MOL   H31442818   6.991   4.071   4.676  1.7024 -1.1039 -0.2507
  133MOL   H31542819   7.186   4.241   4.601  2.1247 -1.2517 -0.4098
  133MOL   H31642820   7.543   4.178   4.517 -0.6185 -0.6795  0.1996
  133MOL   H31742821   7.397   4.265   4.563 -1.8156 -0.4649 -0.4473
  133MOL   H31842822   7.509   4.195   4.679  1.3564  2.6429 -0.8298
  133MOL   H31942823   7.384   3.857   4.479  2.4590 -2.1810 -1.0708
  133MOL   H32042824   7.532   3.916   4.555  0.4193  1.7637 -0.9671
  133MOL   H32142825   7.484   3.967   4.391  0.8237 -0.4909  0.5292
  133MOL   H32242826   7.242   4.190   4.759  0.1733  0.2887  0.2566
  134MOL     C142827   2.728   6.074   6.419  0.0509  0.3878  0.6993
  134MOL     C242828   2.712   6.164   6.538  0.3095 -0.6885  0.2174
  134MOL     C342829   2.729   6.316   6.508  0.9694  0.7944  1.3026
  134MOL     O442830   2.845   6.358   6.484  0.4991 -0.5920 -0.4015
  134MOL     N542831   2.621   6.395   6.513  0.2537  0.0243  0.3985
  134MOL     C642832   2.641   6.540   6.489  0.0621  0.1404  0.4577
  134MOL     C742833   2.477   6.354   6.531 -0.1749  0.4259 -0.1926
  134MOL     H842834   2.791   5.987   6.441  2.0304  0.9511 -2.4181
  134MOL     H942835   2.777   6.112   6.330  1.5893 -3.4466 -0.2136
  134MOL    H1042836   2.612   6.151   6.579 -0.0239  1.3273  0.0961
  134MOL    H1142837   2.670   6.588   6.583 -1.9712  0.1910  1.0876
  134MOL    H1242838   2.706   6.564   6.405  0.2803 -1.0621  0.2770
  134MOL    H1342839   2.548   6.586   6.456  0.5116  1.1153  0.5099
  134MOL    H1442840   2.460   6.305   6.627  1.6914  1.7483  0.8397
  134MOL    H1542841   2.447   6.268   6.470  1.2248 -0.3736  0.2323
  134MOL    H1642842   2.404   6.434   6.519 -1.2893 -0.7285 -1.4009
  134MOL    H1742843   2.630   6.040   6.385  0.2513  1.9801 -1.5117
  134MOL    C1842844   2.817   6.126   6.647 -0.1341  0.4753  0.2055
  134MOL    C1942845   2.809   6.191   6.792 -0.0989  0.0394  0.1856
  134MOL    C2042846   2.938   6.165   6.876 -0.6015 -0.4906 -0.2101
  134MOL    O2142847   2.995   6.057   6.877 -0.0383 -0.0960  0.2516
  134MOL    N2242848   2.988   6.269   6.943  0.7496  0.1505 -0.8972
  134MOL    C2342849   2.915   6.393   6.969  0.1670 -0.2136  0.1366
  134MOL    C2442850   3.121   6.265   7.009  0.0615 -0.1671  0.2710
  134MOL    H2542851   2.824   6.017   6.649 -0.4226  0.4233 -1.1044
  134MOL    H2642852   2.920   6.147   6.618  0.0836 -1.1067 -0.2079
  134MOL    H2742853   2.806   6.295   6.760  1.8145 -0.1451 -0.6457
  134MOL    H2842854   2.924   6.422   7.074  0.6489 -0.5245  0.1836
  134MOL    H2942855   2.960   6.469   6.905  3.9917 -1.2665  1.4709
  134MOL    H3042856   2.808   6.393   6.948  0.5048 -1.4198 -1.6870
  134MOL    H3142857   3.148   6.356   7.064 -3.9907  0.2880  1.6494
  134MOL    H3242858   3.196   6.252   6.931 -2.0432  1.2651 -2.0690
  134MOL    H3342859   3.128   6.184   7.082 -2.3624 -0.7396 -0.1171
  134MOL    C3442860   2.680   6.162   6.862  0.0327 -0.3605 -0.1286
  134MOL    C3542861   2.662   6.011   6.902 -0.7397 -0.2059 -0.1799
  134MOL    C3642862   2.567   5.939   6.804  0.4999  0.0329  0.0258
  134MOL    O3742863   2.467   6.000   6.754  0.0994  0.2539  0.4076
  134MOL    N3842864   2.596   5.809   6.763  0.0123  0.2795  0.2792
  134MOL    C3942865   2.721   5.742   6.783 -0.3631  0.3199 -0.1369
  134MOL    C4042866   2.490   5.717   6.717 -0.3522 -0.1742  0.6921
  134MOL    H4142867   2.683   6.221   6.954  1.5056  0.2005 -0.5253
  134MOL    H4242868   2.595   6.189   6.799  0.9169  2.3438 -0.2265
  134MOL    H4342869   2.761   5.968   6.895 -1.3186 -1.7170  0.5655
  134MOL    H4442870   2.802   5.802   6.741  0.2181  0.0059  0.5251
  134MOL    H4542871   2.747   5.718   6.886 -0.7905 -0.9006 -0.3002
  134MOL    H4642872   2.719   5.648   6.727 -1.9655 -1.3134  2.5804
  134MOL    H4742873   2.490   5.616   6.757 -0.4289 -0.7002 -0.5927
  134MOL    H4842874   2.483   5.701   6.609  2.1935 -0.4013  0.5195
  134MOL    H4942875   2.395   5.764   6.740 -0.4978 -0.4506  0.6692
  134MOL    C5042876   2.615   5.991   7.043 -0.3795 -0.5011 -0.1447
  134MOL    C5142877   2.703   6.033   7.160  1.2142  0.7688 -0.2616
  134MOL    C5242878   2.836   5.957   7.171  0.2245  0.1010  0.1481
  134MOL    O5342879   2.834   5.842   7.137 -0.5671  0.8777 -0.1552
  134MOL    N5442880   2.953   6.017   7.210 -0.2925  0.2916  0.7957
  134MOL    C5542881   3.082   5.943   7.204  0.1622 -0.3815 -0.4735
  134MOL    C5642882   2.964   6.149   7.267  0.3807  0.8142 -0.1947
  134MOL    H5742883   2.518   6.038   7.032  1.2437  3.0513  0.0294
  134MOL    H5842884   2.599   5.883   7.053 -1.3374 -0.4312 -0.9224
  134MOL    H5942885   2.737   6.134   7.137  0.7217  1.1771  0.7159
  134MOL    H6042886   3.164   5.994   7.253 -1.0442  0.1442  1.0344
  134MOL    H6142887   3.081   5.846   7.254  1.9358  0.7180  1.7640
  134MOL    H6242888   3.110   5.923   7.101 -1.0023 -0.4199 -0.7923
  134MOL    H6342889   2.900   6.145   7.355 -0.1694 -1.7425 -0.6690
  134MOL    H6442890   2.932   6.231   7.203  0.7115  0.9453 -0.1943
  134MOL    H6542891   3.056   6.186   7.312  0.4887  0.2785  0.0387
  134MOL    C6642892   2.617   6.024   7.287 -0.2566 -0.5198 -0.7695
  134MOL    C6742893   2.599   5.888   7.361  0.7232 -0.1745 -0.1021
  134MOL    C6842894   2.509   5.785   7.285  0.6205 -0.0898  0.0931
  134MOL    O6942895   2.396   5.825   7.256 -0.0060  0.2049 -0.2247
  134MOL    N7042896   2.550   5.657   7.257  0.3843  0.0819  0.4837
  134MOL    C7142897   2.677   5.594   7.309 -0.2038 -0.4578 -0.7576
  134MOL    C7242898   2.465   5.568   7.176  0.4536 -0.0254 -0.2939
  134MOL    H7342899   2.657   6.099   7.356 -1.9149  1.2375 -1.6963
  134MOL    H7442900   2.521   6.070   7.268 -0.0706 -0.6525 -2.0284
  134MOL    H7542901   2.698   5.842   7.368  1.7160  2.0594  0.7761
  134MOL    H7642902   2.686   5.495   7.263 -2.1832 -0.1344 -1.9066
  134MOL    H7742903   2.768   5.653   7.294 -0.1487 -0.3189  0.1444
  134MOL    H7842904   2.676   5.584   7.417 -0.0729 -0.8856 -0.7946
  134MOL    H7942905   2.522   5.493   7.121 -0.0030 -0.0686 -0.7057
  134MOL    H8042906   2.400   5.617   7.104  0.1924 -2.4074 -1.7378
  134MOL    H8142907   2.404   5.514   7.248  0.1127  1.3072  0.4305
  134MOL    C8242908   2.545   5.923   7.496  0.3575 -0.1396  0.6672
  134MOL    C8342909   2.665   5.948   7.596  0.0476 -0.2515 -0.0698
  134MOL    C8442910   2.719   5.808   7.637  0.0810  1.1712 -0.5896
  134MOL    O8542911   2.642   5.731   7.701  0.1289  0.0026  0.2889
  134MOL    N8642912   2.842   5.779   7.605 -0.3599 -0.0119  0.3564
  134MOL    C8742913   2.948   5.870   7.559  0.0250 -0.0815  0.5241
  134MOL    C8842914   2.896   5.647   7.640  0.5546  0.7319 -0.2399
  134MOL    H8942915   2.482   6.011   7.504 -0.9843 -0.8030 -2.0819
  134MOL    H9042916   2.486   5.840   7.533  0.3153 -0.6744 -0.5854
  134MOL    H9142917   2.737   6.020   7.555 -0.7234  0.8354  0.4563
  134MOL    H9242918   3.046   5.829   7.581  0.1991  0.3877  0.6363
  134MOL    H9342919   2.940   5.894   7.452 -0.3499  2.4189  1.0757
  134MOL    H9442920   2.946   5.969   7.605  1.0419  0.5109 -0.6629
  134MOL    H9542921   2.968   5.605   7.570  1.1579  2.3519 -0.6171
  134MOL    H9642922   2.815   5.578   7.667  0.0115  1.8865  1.1582
  134MOL    H9742923   2.949   5.663   7.734  1.3510 -1.1192 -0.3507
  134MOL    C9842924   2.611   6.024   7.727 -0.5575  0.7938 -0.7418
  134MOL    C9942925   2.599   6.178   7.707 -0.0615  0.4224  0.0789
  134MOL   C10042926   2.742   6.237   7.692  0.4320  0.1493 -0.2601
  134MOL   O10142927   2.819   6.198   7.777  0.8050 -0.6211  0.2595
  134MOL   N10242928   2.782   6.317   7.591 -0.5367  0.4793 -0.2588
  134MOL   C10342929   2.919   6.375   7.594  0.0677  0.2615  0.5610
  134MOL   C10442930   2.701   6.350   7.475  0.2208  0.3667 -0.1743
  134MOL   H10542931   2.516   5.977   7.752 -0.4473  0.1176 -1.5979
  134MOL   H10642932   2.669   6.003   7.817  0.2017  0.9851 -1.1901
  134MOL   H10742933   2.545   6.200   7.615  0.3371  2.0563  0.2131
  134MOL   H10842934   2.977   6.330   7.514  1.9500  4.1363 -0.3505
  134MOL   H10942935   2.907   6.482   7.575  0.7411  0.0163 -1.3634
  134MOL   H11042936   2.967   6.365   7.691 -1.3130  0.2999  1.2740
  134MOL   H11142937   2.676   6.455   7.488 -2.1004 -0.4366  2.1559
  134MOL   H11242938   2.606   6.299   7.460  0.6526 -0.1938 -1.0820
  134MOL   H11342939   2.769   6.336   7.391  1.5179  3.6254  0.2695
  134MOL   C11442940   2.525   6.237   7.834 -0.4200  0.1915 -0.5119
  134MOL   C11542941   2.379   6.195   0.004  0.0498  0.8154 -0.2408
  134MOL   C11642942   2.292   6.249   7.745 -0.6915  0.0029  1.0240
  134MOL   O11742943   2.294   6.375   7.735  0.1685 -0.8323 -0.1755
  134MOL   N11842944   2.217   6.173   7.661  0.7019  0.2496  0.5004
  134MOL   C11942945   2.212   6.027   7.680  0.1177 -0.3860  0.1509
  134MOL   C12042946   2.154   6.236   7.544  0.2807  0.7594 -0.5871
  134MOL   H12142947   2.595   6.211   0.060  0.6765  2.9947 -0.4615
  134MOL   H12242948   2.527   6.346   7.824  1.3128  0.2382  0.1756
  134MOL   H12342949   2.368   6.086   0.009  0.9151  0.6200 -2.0321
  134MOL   H12442950   2.140   5.980   7.613  0.7129  0.3290 -1.0180
  134MOL   H12542951   2.311   5.988   7.655 -0.5508 -0.4603 -2.5617
  134MOL   H12642952   2.189   6.003   7.784 -0.6578  1.3380  0.4051
  134MOL   H12742953   2.121   6.153   7.482 -0.4081 -0.6256  1.5666
  134MOL   H12842954   2.225   6.296   7.486 -1.9454  3.2342 -0.8547
  134MOL   H12942955   2.072   6.291   7.591  2.0449  1.5017  1.7143
  134MOL   C13042956   2.338   6.240   0.141  0.4327  0.4337 -0.0280
  134MOL   C13142957   2.389   6.137   0.250 -0.5815 -0.0262 -0.2855
  134MOL   C13242958   2.319   6.002   0.220  0.9876 -0.5663  0.1097
  134MOL   O13342959   2.202   5.994   0.187  0.0237 -0.8432 -0.3210
  134MOL   N13442960   2.394   5.890   0.220 -0.4573  0.1322  0.0481
  134MOL   C13542961   2.527   5.881   0.303 -0.1893  0.4128 -0.2384
  134MOL   C13642962   2.339   5.762   0.167  0.6390  0.1608 -0.0448
  134MOL   H13742963   2.392   6.333   0.159 -0.7995  0.7359  2.4259
  134MOL   H13842964   2.231   6.261   0.149  0.3505  0.2082 -0.5099
  134MOL   H13942965   2.496   6.125   0.236 -0.4784  0.6944 -0.1152
  134MOL   H14042966   2.612   5.918   0.246  0.5372 -1.8502 -0.6877
  134MOL   H14142967   2.537   5.931   0.399 -0.6759  2.4479 -1.2291
  134MOL   H14242968   2.550   5.776   0.321 -0.0080  0.7809  1.7949
  134MOL   H14342969   2.417   5.696   0.129 -0.6485 -2.0548  1.0429
  134MOL   H14442970   2.277   5.782   0.080 -0.0898 -1.5142  0.0722
  134MOL   H14542971   2.287   5.699   0.239  1.6120 -2.0612 -1.2371
  134MOL   C14642972   2.351   6.184   0.395  0.5796 -0.3072  0.1844
  134MOL   C14742973   2.440   6.296   0.444 -0.2493 -0.0110  0.0604
  134MOL   C14842974   2.573   6.238   0.490 -0.9944 -0.5878  0.8505
  134MOL   O14942975   2.575   6.154   0.575  0.4838  0.3575 -0.5476
  134MOL   N15042976   2.685   6.294   0.449  0.0466  0.1364  0.8698
  134MOL   C15142977   2.689   6.361   0.323 -0.3185 -0.8751 -0.4435
  134MOL   C15242978   2.802   6.319   0.538  0.0597  0.1040 -0.6538
  134MOL   H15342979   2.252   6.230   0.388 -0.3714 -2.0832  1.6583
  134MOL   H15442980   2.344   6.094   0.456 -1.6285  0.5047  1.1920
  134MOL   H15542981   2.447   6.355   0.352  2.8093  1.0239  0.9211
  134MOL   H15642982   2.658   6.465   0.323 -0.1086 -0.8066 -1.9818
  134MOL   H15742983   2.792   6.372   0.288  0.1921 -0.1505  1.2423
  134MOL   H15842984   2.634   6.303   0.249 -0.3684 -1.9842  0.4500
  134MOL   H15942985   2.796   6.412   0.594  1.4803 -1.3776  2.0530
  134MOL   H16042986   2.891   6.321   0.474  0.3694 -3.1763 -0.3742
  134MOL   H16142987   2.809   6.246   0.618  0.2223  1.0770  0.2224
  134MOL   C16242988   2.361   6.365   0.554 -0.1536 -0.6119  0.1217
  134MOL   C16342989   2.438   6.468   0.642  0.0012 -0.5927 -0.3067
  134MOL   C16442990   2.356   6.496   0.773  0.2393  0.4911 -0.2395
  134MOL   O16542991   2.233   6.521   0.763  0.1445 -0.2002  0.7356
  134MOL   N16642992   2.418   6.498   0.892 -0.0908  0.0106 -0.3574
  134MOL   C16742993   2.564   6.489   0.914  0.5771  0.6060  0.0263
  134MOL   C16842994   2.341   6.512   1.013 -0.4861  0.4747  0.3766
  134MOL   H16942995   2.274   6.414   0.511 -0.4111 -1.6097 -0.5207
  134MOL   H17042996   2.318   6.300   0.629 -1.7347 -1.4534 -1.4775
  134MOL   H17142997   2.525   6.408   0.672  0.3684 -0.4686 -1.1215
  134MOL   H17242998   2.624   6.569   0.871 -2.5384  2.2639 -1.3563
  134MOL   H17342999   2.582   6.487   1.021  0.1053  1.0743  0.1150
  134MOL   H17443000   2.601   6.395   0.871 -1.6092 -0.4465  0.3586
  134MOL   H17543001   2.233   6.517   0.996 -1.0280 -1.1016  3.0518
  134MOL   H17643002   2.368   6.608   1.058  2.5282 -0.3475  0.4185
  134MOL   H17743003   2.366   6.425   1.074 -1.2692 -0.4032 -0.5395
  134MOL   C17843004   2.496   6.597   0.578  0.3647  0.2847 -0.3750
  134MOL   C17943005   2.399   6.711   0.536 -0.3484  0.9794  0.0778
  134MOL   C18043006   2.345   6.660   0.399  0.1336  0.1073  0.5378
  134MOL   O18143007   2.425   6.621   0.317  0.0020  0.0348  0.1378
  134MOL   N18243008   2.216   6.662   0.368 -0.1978  0.1949  0.3187
  134MOL   C18343009   2.180   6.598   0.240  0.1646 -0.1194  0.2004
  134MOL   C18443010   2.106   6.691   0.470 -0.3430 -0.2633 -0.1179
  134MOL   H18543011   2.561   6.644   0.652  0.4704 -1.3338  0.5909
  134MOL   H18643012   2.566   6.562   0.502 -0.8188  1.0752 -1.8444
  134MOL   H18743013   2.321   6.737   0.608 -1.5288 -2.7671  0.2671
  134MOL   H18843014   2.195   6.491   0.233 -0.9616 -0.4144  2.0379
  134MOL   H18943015   2.072   6.599   0.221  0.3664  1.4751 -1.0158
  134MOL   H19043016   2.218   6.651   0.152 -0.8580  1.1402  0.5012
  134MOL   H19143017   2.008   6.701   0.423 -1.3957 -0.5909  1.9551
  134MOL   H19243018   2.140   6.789   0.505  0.4077  0.0976 -1.8218
  134MOL   H19343019   2.095   6.619   0.551  0.9525 -2.9365 -2.2324
  134MOL   C19443020   2.481   6.837   0.516  0.3249  0.2185  0.4030
  134MOL   C19543021   2.392   6.964   0.483  0.5707  0.3579 -0.1459
  134MOL   C19643022   2.423   7.036   0.351 -0.1681  0.0919  0.5643
  134MOL   O19743023   2.537   7.076   0.339  0.1634  0.2870 -0.0873
  134MOL   N19843024   2.337   7.071   0.252  1.2160 -0.1213 -0.5583
  134MOL   C19943025   2.200   7.010   0.250  0.0053 -0.7478 -0.1557
  134MOL   C20043026   2.370   7.178   0.153  0.4031 -0.0729  0.2892
  134MOL   H20143027   2.547   6.861   0.599 -2.3965  0.5284  2.5789
  134MOL   H20243028   2.552   6.830   0.434 -0.2993  2.0092 -0.2994
  134MOL   H20343029   2.288   6.931   0.483  0.7317 -0.1699 -1.2299
  134MOL   H20443030   2.146   7.033   0.342  0.3887 -3.5285  0.8150
  134MOL   H20543031   2.142   7.050   0.167 -0.8828 -5.4753 -1.9649
  134MOL   H20643032   2.219   6.903   0.248  1.4845 -0.5135  0.2872
  134MOL   H20743033   2.377   7.281   0.188  0.8256  0.6334 -1.8022
  134MOL   H20843034   2.299   7.178   0.070  0.8906 -1.7473 -0.1579
  134MOL   H20943035   2.465   7.155   0.106  0.1045  0.2810 -0.4967
  134MOL   C21043036   2.387   7.073   0.594  0.2569  0.0793  0.1243
  134MOL   C21143037   2.304   7.032   0.723  0.3722 -0.2112 -0.2025
  134MOL   C21243038   2.155   7.018   0.695  0.0126 -0.0035 -0.9273
  134MOL   O21343039   2.103   7.102   0.624  0.2565 -0.5725  0.2927
  134MOL   N21443040   2.071   6.924   0.744 -0.5039 -0.4613  0.1018
  134MOL   C21543041   2.101   6.814   0.837  0.8263 -0.3323 -0.3098
  134MOL   C21643042   1.926   6.919   0.713  0.1383 -0.0385 -0.1122
  134MOL   H21743043   2.485   7.113   0.620 -0.2081  0.9711  0.5690
  134MOL   H21843044   2.339   7.164   0.556  2.3967  1.5765  0.9173
  134MOL   H21943045   2.332   6.933   0.759 -2.0295 -1.0576 -0.5241
  134MOL   H22043046   2.039   6.729   0.810 -1.7748  1.3625  0.1862
  134MOL   H22143047   2.207   6.789   0.838  1.2665  1.4891  0.1082
  134MOL   H22243048   2.079   6.849   0.937 -1.1286 -2.3842  0.0160
  134MOL   H22343049   1.868   6.851   0.775 -0.4225  1.0920  0.5938
  134MOL   H22443050   1.902   6.893   0.610 -3.4085 -0.5286  0.7981
  134MOL   H22543051   1.878   7.016   0.725  0.2402 -0.1121  0.9150
  134MOL   C22643052   2.318   7.130   0.844  0.4558  0.2651 -0.4236
  134MOL   C22743053   2.456   7.127   0.926  1.4769 -0.4999  0.5887
  134MOL   C22843054   2.507   6.986   0.954 -0.1795  0.4304  0.6896
  134MOL   O22943055   2.419   6.915   1.001  0.2172  0.7980  0.1823
  134MOL   N23043056   2.635   6.949   0.925 -0.7559  0.0016 -0.2326
  134MOL   C23143057   2.739   7.038   0.867  0.0305 -0.3211  0.9797
  134MOL   C23243058   2.672   6.809   0.948 -0.2994  0.0154  0.1798
  134MOL   H23343059   2.297   7.231   0.809 -2.4427 -0.1521 -0.0837
  134MOL   H23443060   2.241   7.093   0.912  1.1576 -0.9872 -0.2949
  134MOL   H23543061   2.535   7.184   0.877 -0.1711 -0.4687 -2.1289
  134MOL   H23643062   2.820   6.982   0.820  0.6152  1.5490 -0.2969
  134MOL   H23743063   2.699   7.113   0.800 -1.6685 -2.2700 -0.2193
  134MOL   H23843064   2.800   7.093   0.939 -2.5965  3.0427  0.7180
  134MOL   H23943065   2.660   6.770   0.847 -0.1635 -1.0697  0.5782
  134MOL   H24043066   2.614   6.755   1.022  0.5869  1.1948  1.7524
  134MOL   H24143067   2.780   6.806   0.965 -0.5637  1.1210  2.2950
  134MOL   C24243068   2.443   7.196   1.066 -0.2438 -0.2095  0.0485
  134MOL   C24343069   2.405   7.349   1.071  0.2142  0.3399  0.6814
  134MOL   C24443070   2.494   7.439   0.982  0.6494  0.0776  0.8369
  134MOL   O24543071   2.614   7.419   0.988  0.1751  0.1812 -0.2472
  134MOL   N24643072   2.435   7.538   0.901  0.1274  0.0936  0.4614
  134MOL   C24743073   2.519   7.616   0.809  0.7176 -0.0447 -0.0471
  134MOL   C24843074   2.304   7.600   0.937  0.5578  0.6710  0.5009
  134MOL   H24943075   2.373   7.133   1.121  2.0703 -0.0252  3.3083
  134MOL   H25043076   2.543   7.188   1.109 -0.5696  0.8930  1.0253
  134MOL   H25143077   2.306   7.351   1.026  0.6397 -3.1894 -0.5642
  134MOL   H25243078   2.593   7.675   0.863  0.4381  0.5766 -0.3373
  134MOL   H25343079   2.570   7.547   0.743  1.2938 -0.9196  1.2898
  134MOL   H25443080   2.463   7.691   0.752  0.3527  0.3064  0.7580
  134MOL   H25543081   2.277   7.671   0.858 -2.1791 -0.2807  0.5133
  134MOL   H25643082   2.305   7.660   1.028  2.6693 -1.1202  1.6884
  134MOL   H25743083   2.227   7.523   0.933  2.1948 -0.9728 -0.3875
  134MOL   C25843084   2.371   7.394   1.215  0.7114  0.2896 -0.2996
  134MOL   C25943085   2.473   7.475   1.288 -0.3395  0.9168 -0.9523
  134MOL   C26043086   2.602   7.398   1.316  0.1157  0.4276  0.4362
  134MOL   O26143087   2.589   7.285   1.361  0.7810 -0.2386 -0.8227
  134MOL   N26243088   2.724   7.435   1.273  0.0292 -0.2447 -0.5326
  134MOL   C26343089   2.760   7.571   1.228  0.0035 -0.3863  0.0154
  134MOL   C26443090   2.838   7.339   1.296  0.0171  0.1920  0.4576
  134MOL   H26543091   2.287   7.464   1.213 -1.0835 -1.7942 -0.0228
  134MOL   H26643092   2.329   7.313   1.275 -0.8131  1.2954  0.0361
  134MOL   H26743093   2.502   7.560   1.227 -2.8043  1.8204 -0.9320
  134MOL   H26843094   2.765   7.646   1.307 -0.4225 -0.7604  0.4034
  134MOL   H26943095   2.860   7.562   1.187 -0.4550  1.8379 -1.6830
  134MOL   H27043096   2.683   7.606   1.158  0.4811 -1.3068 -0.9842
  134MOL   H27143097   2.927   7.396   1.324  0.5335 -0.5098  0.2629
  134MOL   H27243098   2.862   7.290   1.201 -0.5586 -1.4817  1.1538
  134MOL   H27343099   2.821   7.245   1.347 -0.6402 -0.4384 -0.8963
  134MOL   C27443100   2.419   7.535   1.422 -0.0516 -0.4376 -0.5495
  134MOL   C27543101   2.323   7.655   1.420  0.9753 -0.2060  0.2439
  134MOL   C27643102   2.171   7.621   1.376  0.1487  0.2015  0.4515
  134MOL   O27743103   2.148   7.639   1.261  0.2882 -0.6079 -0.1832
  134MOL   N27843104   2.083   7.592   1.465  0.1077 -0.2686 -0.0198
  134MOL   C27943105   1.943   7.596   1.441 -0.9009 -0.3304  0.7833
  134MOL   C28043106   2.109   7.562   1.611  0.2816 -0.1556 -0.3290
  134MOL   H28143107   2.379   7.459   1.488 -1.4339  1.1702  0.5138
  134MOL   H28243108   2.509   7.575   1.468 -0.4322  1.0302 -1.0336
  134MOL   H28343109   2.311   7.687   1.524 -1.2297  0.1673 -0.1222
  134MOL   H28443110   1.917   7.547   1.347  0.9290 -1.2192  0.7386
  134MOL   H28543111   1.886   7.537   1.513 -0.3550 -1.3059  0.4222
  134MOL   H28643112   1.893   7.694   1.435 -1.3277 -0.5144  1.3104
  134MOL   H28743113   2.032   7.511   1.669  2.0551 -2.0348  0.4392
  134MOL   H28843114   2.147   7.653   1.658 -1.4209 -0.3139  1.4412
  134MOL   H28943115   2.185   7.484   1.621 -0.8300 -1.2936 -0.7601
  134MOL   C29043116   2.374   7.778   1.345 -1.3371 -0.0526 -0.6361
  134MOL   C29143117   2.496   0.001   1.398  0.4298 -0.2036  0.1786
  134MOL   C29243118   2.492   0.036   1.547 -0.8054 -0.0457  0.0882
  134MOL   O29343119   2.395   0.102   1.579  0.6529 -0.1674 -0.0067
  134MOL   N29443120   2.595   0.010   1.632 -0.7487 -0.4136 -0.5105
  134MOL   C29543121   2.715   7.788   1.590 -0.1437  0.4902 -0.5228
  134MOL   C29643122   2.609   0.043   1.774  0.1059 -0.1800 -0.5197
  134MOL   H29743123   2.378   7.754   1.239  1.3128 -1.0037 -0.3733
  134MOL   H29843124   2.293   7.850   1.351 -0.3864  1.0004 -0.2926
  134MOL   H29943125   2.580   7.790   1.373 -1.4034 -2.8488  0.6809
  134MOL   H30043126   2.773   7.825   1.506 -1.7790  0.9875 -1.4558
  134MOL   H30143127   2.775   7.772   1.679 -0.9757 -1.3746 -0.2859
  134MOL   H30243128   2.686   7.690   1.552  1.8314 -1.5308  2.9079
  134MOL   H30343129   2.517   0.089   1.809 -0.8891 -1.1711 -1.7949
  134MOL   H30443130   2.685   0.121   1.782 -0.2972  0.0557  1.0618
  134MOL   H30543131   2.636   7.812   1.837 -0.0795 -0.0603 -0.2803
  134MOL   C30643132   2.499   0.128   1.320  0.4963  0.4534  0.0068
  134MOL   C30743133   2.547   0.117   1.173 -0.0781 -0.0164  0.0348
  134MOL   C30843134   2.694   0.066   1.149 -0.7245 -0.1879  0.2779
  134MOL   O30943135   2.773   0.045   1.240 -0.3564 -0.8951 -0.1027
  134MOL   N31043136   2.727   0.058   1.019  0.2610  0.3395 -0.2996
  134MOL   C31143137   2.657   0.128   0.904  0.1697  0.4598 -0.1498
  134MOL   C31243138   2.840   7.828   0.982 -0.7278 -0.8726 -0.6315
  134MOL   H31343139   2.403   0.176   1.337  0.1130 -0.7215  1.2392
  134MOL   H31443140   2.553   0.209   1.369 -0.0543  1.2180 -0.6395
  134MOL   H31543141   2.471   0.052   1.130 -2.2880  1.0961  2.1453
  134MOL   H31643142   2.621   0.227   0.931 -0.1068  0.3386 -0.0641
  134MOL   H31743143   2.717   0.139   0.814 -3.5014  2.0264 -2.5182
  134MOL   H31843144   2.571   0.066   0.876  1.5034 -0.8737 -1.3820
  134MOL   H31943145   2.860   7.836   0.875 -1.4212 -0.4743 -0.7390
  134MOL   H32043146   2.825   7.725   1.012  1.2433 -0.8618  0.4747
  134MOL   H32143147   2.928   0.007   1.038 -1.6770  1.6991 -0.5316
  134MOL   H32243148   2.532   0.215   1.129  3.5270  0.1001 -1.1207
  135MOL     C143149   0.130   5.206   5.474  0.3911 -0.0859  0.4718
  135MOL     C243150   0.200   5.290   5.365  0.4530 -0.4369  0.1130
  135MOL     C343151   0.186   5.206   5.240  0.4940  0.2402  0.4030
  135MOL     O443152   0.254   5.106   5.231 -0.1394 -0.2533  0.0493
  135MOL     N543153   0.105   5.250   5.143  0.0336  0.6823  0.0195
  135MOL     C643154   0.087   5.173   5.019  0.2510  0.0541 -0.0791
  135MOL     C743155   0.009   5.352   5.160  0.7035 -0.1509  0.5875
  135MOL     H843156   0.022   5.197   5.460  0.3008  0.3782  0.8474
  135MOL     H943157   0.151   5.265   5.563  0.4593  2.6517 -1.2868
  135MOL    H1043158   0.156   5.390   5.369  1.2760 -0.0176 -1.0539
  135MOL    H1143159   0.172   5.109   4.996 -0.7635 -0.8631 -1.3719
  135MOL    H1243160   7.850   5.113   5.032  1.4136 -1.2597  2.4602
  135MOL    H1343161   0.070   5.245   4.940  0.9685  0.3584  0.0478
  135MOL    H1443162   7.793   5.350   5.243  0.7853  1.2481  0.6972
  135MOL    H1543163   7.815   5.369   5.063  0.6119 -0.4930  0.5730
  135MOL    H1643164   0.053   5.448   5.188  0.4319  0.4695 -1.0229
  135MOL    H1743165   0.176   5.107   5.475 -0.1813 -0.3527  0.5684
  135MOL    C1843166   0.355   5.303   5.377  0.5249  0.6252 -0.1317
  135MOL    C1943167   0.394   5.438   5.441 -0.6042  0.5628 -0.2086
  135MOL    C2043168   0.380   5.545   5.325 -0.3951 -0.7667 -0.2883
  135MOL    O2143169   0.455   5.534   5.230 -0.7577 -0.1201  0.2860
  135MOL    N2243170   0.284   5.640   5.325  0.1008  0.4724 -0.0475
  135MOL    C2343171   0.281   5.738   5.218 -0.1400  0.1944 -0.3976
  135MOL    C2443172   0.190   5.674   5.431 -0.2134  0.4338  0.0653
  135MOL    H2543173   0.379   5.220   5.444 -0.3749  0.4761  0.0101
  135MOL    H2643174   0.410   5.291   5.284  0.4220  0.3695 -0.1581
  135MOL    H2743175   0.330   5.454   5.528 -1.3948 -2.1247 -0.2259
  135MOL    H2843176   0.225   5.830   5.236 -1.3069 -0.8278  1.3288
  135MOL    H2943177   0.381   5.772   5.193  1.1492 -3.3713 -0.4000
  135MOL    H3043178   0.244   5.686   5.129  1.3096  0.9563 -1.4565
  135MOL    H3143179   0.099   5.728   5.406 -0.6542  0.2084  1.1329
  135MOL    H3243180   0.240   5.724   5.514 -1.9011  1.2339  0.6314
  135MOL    H3343181   0.154   5.581   5.476 -4.7209  2.0629  0.1416
  135MOL    C3443182   0.540   5.424   5.494  0.2831  0.3386 -0.5896
  135MOL    C3543183   0.574   5.480   5.633  0.6823  0.2502  0.8841
  135MOL    C3643184   0.546   5.630   5.655  0.3604  1.0237 -0.4738
  135MOL    O3743185   0.610   5.710   5.587 -0.6513  0.2039 -0.0626
  135MOL    N3843186   0.454   5.671   5.737  0.3241  0.7024 -0.3778
  135MOL    C3943187   0.421   5.812   5.747 -0.7346 -0.3058 -0.2757
  135MOL    C4043188   0.365   5.576   5.820 -0.5670 -0.1485 -1.1145
  135MOL    H4143189   0.565   5.318   5.493  0.7147  0.4458 -1.3956
  135MOL    H4243190   0.610   5.448   5.414  2.4586  0.4176  1.2914
  135MOL    H4343191   0.521   5.410   5.698  0.2562  1.1141  1.4914
  135MOL    H4443192   0.321   5.833   5.787  0.1911 -1.0381  2.5421
  135MOL    H4543193   0.492   5.864   5.811 -0.8528  0.8679 -1.0910
  135MOL    H4643194   0.424   5.853   5.646  1.3144  1.0046  0.2785
  135MOL    H4743195   0.294   5.627   5.885 -0.5701  0.8590 -1.8791
  135MOL    H4843196   0.428   5.505   5.873  1.6970  1.6719 -1.2389
  135MOL    H4943197   0.313   5.511   5.749 -0.3464 -1.4373 -0.1023
  135MOL    C5043198   0.728   5.450   5.658  0.5563 -0.5741 -0.2449
  135MOL    C5143199   0.778   5.440   5.801  0.0213 -0.2345  0.2397
  135MOL    C5243200   0.717   5.315   5.872  0.1778 -0.3961  0.0699
  135MOL    O5343201   0.601   5.319   5.902  0.0939 -0.5307 -0.0436
  135MOL    N5443202   0.784   5.203   5.897 -0.0553 -0.1440 -0.4088
  135MOL    C5543203   0.705   5.084   5.938 -0.1016 -0.3303 -0.7146
  135MOL    C5643204   0.926   5.179   5.873 -0.5530 -0.1622 -0.3030
  135MOL    H5743205   0.739   5.351   5.614  2.0691 -0.4531 -0.1631
  135MOL    H5843206   0.797   5.517   5.607  1.2403 -0.0501  1.3295
  135MOL    H5943207   0.887   5.434   5.790  0.1531  1.8705  0.0761
  135MOL    H6043208   0.763   5.034   6.015 -0.7685  0.2884  0.1957
  135MOL    H6143209   0.609   5.109   5.983  1.3953  1.7059  1.4342
  135MOL    H6243210   0.687   5.013   5.857 -1.3596  0.0770 -0.8162
  135MOL    H6343211   0.984   5.261   5.916 -0.1228 -0.5014 -0.2282
  135MOL    H6443212   0.935   5.172   5.764  1.3273 -3.8278  0.0104
  135MOL    H6543213   0.962   5.085   5.913 -0.3107 -0.9802 -2.3764
  135MOL    C6643214   0.776   5.571   5.879 -0.5433 -0.6820  0.1265
  135MOL    C6743215   0.879   5.592   5.996 -0.2519  0.1698 -0.3688
  135MOL    C6843216   0.872   5.497   6.108  0.5011  0.2242  0.2742
  135MOL    O6943217   0.760   5.455   6.142  0.2668 -0.0421  0.1304
  135MOL    N7043218   0.992   5.446   6.161 -0.0651  0.2881 -0.2810
  135MOL    C7143219   1.117   5.516   6.153  0.4542  0.8501 -0.1995
  135MOL    C7243220   0.996   5.314   6.227  0.5745  0.3387  0.5975
  135MOL    H7343221   0.775   5.658   5.813 -1.4536 -1.4358 -0.8572
  135MOL    H7443222   0.677   5.597   5.915 -0.2594  1.7216 -0.7507
  135MOL    H7543223   0.979   5.591   5.952 -0.0560  0.7525  0.0694
  135MOL    H7643224   1.099   5.623   6.161 -0.1116  0.7116  0.5038
  135MOL    H7743225   1.179   5.488   6.239 -1.1155 -0.1593  0.6378
  135MOL    H7843226   1.173   5.507   6.060  0.4055 -0.1119 -0.1452
  135MOL    H7943227   1.090   5.260   6.226  1.1400  1.3201  0.0958
  135MOL    H8043228   0.935   5.242   6.173  0.4348 -0.0138  1.2125
  135MOL    H8143229   0.967   5.319   6.332  1.0323  0.6152  0.7114
  135MOL    C8243230   0.861   5.740   6.052  0.5376  0.2906 -0.3744
  135MOL    C8343231   0.909   5.855   5.963 -0.3961 -0.4177  0.2228
  135MOL    C8443232   1.056   5.832   5.911 -0.3629 -0.2381 -0.6640
  135MOL    O8543233   1.143   5.833   6.001 -0.4733  0.3158  0.1998
  135MOL    N8643234   1.080   5.821   5.777  0.2065 -0.0890  0.1105
  135MOL    C8743235   1.218   5.809   5.734 -0.5433 -0.3377  0.2391
  135MOL    C8843236   0.978   5.812   5.669 -0.9191 -0.7191 -0.2535
  135MOL    H8943237   0.754   5.746   6.068  0.5918  0.4124 -0.0441
  135MOL    H9043238   0.905   5.761   6.150 -2.1649  1.0589  0.7088
  135MOL    H9143239   0.836   5.863   5.883  0.9665  3.0334 -0.7968
  135MOL    H9243240   1.297   5.833   5.805 -0.9393  0.9458  0.2690
  135MOL    H9343241   1.231   5.710   5.693 -1.1673 -1.1674  1.9689
  135MOL    H9443242   1.234   5.873   5.647 -3.1524 -2.0076 -1.5501
  135MOL    H9543243   1.025   5.792   5.572  2.0184  0.1878  0.9172
  135MOL    H9643244   0.926   5.908   5.666  0.2596  0.1206  3.4489
  135MOL    H9743245   0.892   5.748   5.683 -0.8589 -0.7047  0.1924
  135MOL    C9843246   0.903   6.001   6.022  0.3714  0.4641  0.1665
  135MOL    C9943247   0.774   6.087   6.015 -0.0520 -0.4000  0.3220
  135MOL   C10043248   0.655   6.024   6.089 -0.1191 -0.6118  0.5723
  135MOL   O10143249   0.583   5.943   6.029 -0.3470  0.4712  0.4744
  135MOL   N10243250   0.628   6.067   6.218  0.3530  0.0499 -0.5014
  135MOL   C10343251   0.518   6.009   6.302 -0.0504  0.2895  0.8633
  135MOL   C10443252   0.711   6.168   6.281 -0.1789 -0.3210 -0.0940
  135MOL   H10543253   0.922   5.984   6.128 -1.2243  1.2225  0.5898
  135MOL   H10643254   0.976   6.070   5.979 -0.4528  1.7387  0.7654
  135MOL   H10743255   0.793   6.184   6.061 -2.5301  0.0669  0.4300
  135MOL   H10843256   0.431   6.022   6.238  0.3909  0.5239  0.3115
  135MOL   H10943257   0.535   5.902   6.318 -1.5556 -0.5874 -2.7868
  135MOL   H11043258   0.502   6.049   6.402  0.9175 -1.2081  1.6432
  135MOL   H11143259   0.819   6.156   6.274  0.2936  3.4478  0.0771
  135MOL   H11243260   0.697   6.156   6.388  0.2994 -3.6534 -0.3336
  135MOL   H11343261   0.694   6.266   6.238  1.5445 -0.4454 -1.1059
  135MOL   C11443262   0.738   6.115   5.861 -0.1818 -0.4140  1.1455
  135MOL   C11543263   0.652   6.237   5.817  0.2324  0.2546 -0.1748
  135MOL   C11643264   0.726   6.370   5.837  0.4151  0.5873 -0.1053
  135MOL   O11743265   0.744   6.420   5.955  0.3010 -0.5373  0.5475
  135MOL   N11843266   0.765   6.441   5.734 -0.1259  0.1380  0.4025
  135MOL   C11943267   0.819   6.576   5.741  0.0850 -0.4523  0.2161
  135MOL   C12043268   0.775   6.387   5.593  0.4310 -0.1037  0.3809
  135MOL   H12143269   0.831   6.116   5.802 -0.2769  1.9371  0.9732
  135MOL   H12243270   0.696   6.023   5.821 -0.7375 -0.4040  1.7136
  135MOL   H12343271   0.637   6.225   5.710 -0.8708  1.2910 -0.1425
  135MOL   H12443272   0.928   6.572   5.743  0.2496  1.2843 -2.4292
  135MOL   H12543273   0.797   6.636   5.653  0.9055  1.3275  1.1711
  135MOL   H12643274   0.774   6.635   5.821 -2.5780 -1.2361 -0.6635
  135MOL   H12743275   0.673   6.399   5.556  0.2300  2.0108  1.5567
  135MOL   H12843276   0.819   6.288   5.586  0.5198 -0.0902  0.7456
  135MOL   H12943277   0.839   6.442   5.525 -1.7016  0.2359 -1.4219
  135MOL   C13043278   0.511   6.235   5.884 -0.6192  0.4099 -0.3043
  135MOL   C13143279   0.402   6.319   5.825 -0.6253  0.5400 -0.5913
  135MOL   C13243280   0.288   6.319   5.925 -0.4177 -0.0582  0.4265
  135MOL   O13343281   0.220   6.210   5.935 -0.1488  0.4085  0.3087
  135MOL   N13443282   0.263   6.428   6.004 -0.8138  0.5173 -0.2340
  135MOL   C13543283   0.359   6.530   6.029 -0.2465  0.1916  0.1012
  135MOL   C13643284   0.128   6.444   6.062 -0.1196  0.6432 -0.4565
  135MOL   H13743285   0.478   6.132   5.893  0.3472  0.0252 -1.1161
  135MOL   H13843286   0.512   6.272   5.987 -0.5964  0.3909 -0.2972
  135MOL   H13943287   0.444   6.417   5.803 -0.4324  0.7824  0.8288
  135MOL   H14043288   0.459   6.511   5.990 -0.2147  1.0842 -0.2419
  135MOL   H14143289   0.330   6.620   5.976  0.0288 -0.4758 -1.2158
  135MOL   H14243290   0.377   6.555   6.133 -1.2795 -0.3588  0.4211
  135MOL   H14343291   0.049   6.391   6.010  0.1412  0.1864 -0.3878
  135MOL   H14443292   0.096   6.547   6.044 -0.0784  1.2138  2.4616
  135MOL   H14543293   0.133   6.417   6.167  0.2567  0.9600 -0.3916
  135MOL   C14643294   0.354   6.275   5.690  0.0729  0.7259 -0.0338
  135MOL   C14743295   0.232   6.339   5.627 -0.1090 -0.0065  0.3786
  135MOL   C14843296   0.191   6.273   5.490  0.2438  0.1944  0.4373
  135MOL   O14943297   0.206   6.336   5.385  0.0985  0.0755  0.0375
  135MOL   N15043298   0.127   6.154   5.488  0.1476  0.1074 -0.3068
  135MOL   C15143299   0.082   6.085   5.607 -0.6899  0.4988  0.4419
  135MOL   C15243300   0.088   6.087   5.369 -0.0553  0.3577 -0.1171
  135MOL   H15343301   0.440   6.264   5.624 -0.6357  1.7879 -1.1510
  135MOL   H15443302   0.332   6.169   5.705 -2.8768  1.4044  0.7374
  135MOL   H15543303   0.154   6.316   5.699  2.3183 -3.2125  2.1183
  135MOL   H15643304   0.153   6.076   5.689  0.0491  0.9509 -0.1497
  135MOL   H15743305   7.853   6.135   5.659  0.3700  0.9960  1.6670
  135MOL   H15843306   0.051   5.984   5.579  1.6354 -0.1593  0.1276
  135MOL   H15943307   0.088   6.156   5.284  0.1948  1.3876  0.7028
  135MOL   H16043308   7.838   6.051   5.369 -0.6601  2.0184  0.2023
  135MOL   H16143309   0.155   6.009   5.335  0.4425  1.2981 -1.3410
  135MOL   C16243310   0.230   6.496   5.615  0.1741  0.1713 -0.1258
  135MOL   C16343311   0.085   6.552   5.597 -0.8923 -0.4370 -1.1956
  135MOL   C16443312   0.099   6.696   5.560 -0.2859  0.5761 -0.0110
  135MOL   O16543313   0.154   6.771   5.635 -0.8872  0.3330 -0.1659
  135MOL   N16643314   0.059   6.740   5.435  0.0762  0.0405 -0.1308
  135MOL   C16743315   0.117   6.864   5.387 -0.5776  0.0071  0.0770
  135MOL   C16843316   7.828   6.667   5.337  0.2388  0.2617 -0.1234
  135MOL   H16943317   0.275   6.539   5.704  1.1909  1.1152 -1.0805
  135MOL   H17043318   0.297   6.531   5.537  1.9007 -1.3777  0.6291
  135MOL   H17143319   0.030   6.503   5.517 -1.2014  1.7069 -2.3463
  135MOL   H17243320   0.041   6.936   5.420 -0.9091  0.5718 -1.8405
  135MOL   H17343321   0.215   6.888   5.426 -0.3776  0.4324 -0.6705
  135MOL   H17443322   0.113   6.863   5.278 -2.0539 -2.4400  0.1082
  135MOL   H17543323   7.739   6.620   5.379 -0.5355  1.8719  0.0802
  135MOL   H17643324   0.027   6.590   5.280 -0.3960 -0.5011  0.3239
  135MOL   H17743325   7.791   6.736   5.261 -1.2121  1.5852  1.7480
  135MOL   C17843326   0.002   6.534   5.728 -0.2305  0.1654 -0.3137
  135MOL   C17943327   7.720   6.609   5.724 -0.6690  0.2331  0.3818
  135MOL   C18043328   7.708   6.705   5.845  0.2058  0.7241 -0.3002
  135MOL   O18143329   7.720   6.653   5.954  0.0050 -0.2875  0.3559
  135MOL   N18243330   7.700   6.841   5.837 -0.2803  0.2853 -0.4866
  135MOL   C18343331   7.667   6.916   5.711 -0.1670 -0.7131  0.1648
  135MOL   C18443332   7.716   6.925   5.960 -0.6761  0.7047 -0.7808
  135MOL   H18543333   7.840   6.427   5.742 -1.2443  0.3575  0.0453
  135MOL   H18643334   0.060   6.562   5.816 -0.0839 -0.4579 -0.2158
  135MOL   H18743335   7.703   6.659   5.629 -1.0366 -0.2230  0.2028
  135MOL   H18843336   7.604   6.863   5.640  0.1896 -1.3108  0.2931
  135MOL   H18943337   7.610   7.008   5.729 -1.2959 -1.0128 -1.7871
  135MOL   H19043338   7.757   6.939   5.655  0.0111  0.5892  0.9542
  135MOL   H19143339   7.701   7.029   5.933  0.3337  0.9175 -0.5557
  135MOL   H19243340   7.820   6.919   5.994 -0.2414  0.6604 -2.1199
  135MOL   H19343341   7.646   6.897   6.039 -0.4852 -1.3754 -1.3161
  135MOL   C19443342   7.607   6.508   5.737 -0.3152 -0.2751 -0.3807
  135MOL   C19543343   7.580   6.410   5.624  0.1506  0.3604 -0.9043
  135MOL   C19643344   7.557   6.480   5.483 -0.2873 -0.1136  0.5604
  135MOL   O19743345   7.494   6.580   5.469  0.5894 -0.4085 -0.2326
  135MOL   N19843346   7.587   6.403   5.371 -0.1192  0.3972  0.5386
  135MOL   C19943347   7.534   6.448   5.240 -0.2021  1.0043 -0.0387
  135MOL   C20043348   7.674   6.288   5.366 -0.0043  0.1329 -0.1175
  135MOL   H20143349   7.620   6.451   5.828  0.7689  0.6542  0.0440
  135MOL   H20243350   7.509   6.553   5.755 -0.9437 -0.5791 -2.7940
  135MOL   H20343351   7.677   6.361   5.623  0.8813  1.5539  3.0183
  135MOL   H20443352   7.441   6.502   5.257  0.2223  1.1871  1.8084
  135MOL   H20543353   7.605   6.496   5.173  1.6771 -0.4507  0.8647
  135MOL   H20643354   7.515   6.359   5.180  1.3842  0.0325  0.8546
  135MOL   H20743355   7.660   6.228   5.456 -1.3829 -1.2035 -1.2157
  135MOL   H20843356   7.780   6.312   5.373  0.9575 -2.9682 -2.8517
  135MOL   H20943357   7.653   6.217   5.286 -2.7896  1.9342 -1.0680
  135MOL   C21043358   7.446   6.327   5.638 -0.1748  0.6116 -1.0658
  135MOL   C21143359   7.429   6.242   5.777 -0.3106  0.3545  0.9047
  135MOL   C21243360   7.556   6.152   5.795  0.0566 -0.1033 -0.7763
  135MOL   O21343361   7.603   6.100   5.694  0.5106  0.1330  0.4790
  135MOL   N21443362   7.617   6.148   5.913  0.0756 -0.0723  0.1918
  135MOL   C21543363   7.743   6.079   5.938  0.5112 -0.4560 -0.3117
  135MOL   C21643364   7.558   6.216   6.033  0.8267  0.5510 -0.6768
  135MOL   H21743365   7.357   6.389   5.635 -1.8611 -1.5818  1.3403
  135MOL   H21843366   7.433   6.265   5.549 -0.6885 -2.0688  0.8208
  135MOL   H21943367   7.426   6.319   5.855  1.0432  1.5824 -0.2320
  135MOL   H22043368   7.766   6.020   5.849  2.0655  1.7577 -1.4377
  135MOL   H22143369   7.822   6.153   5.950 -0.9932  1.2629 -0.7598
  135MOL   H22243370   7.736   6.005   6.018 -1.5732 -1.9871 -1.8437
  135MOL   H22343371   7.449   6.208   6.043  0.9319  1.0783  1.1061
  135MOL   H22443372   7.587   6.321   6.030  1.2984  0.4120 -1.0647
  135MOL   H22543373   7.599   6.174   6.125  1.7150  2.0600 -0.3714
  135MOL   C22643374   7.295   6.169   5.775  0.2794  0.5777 -0.1452
  135MOL   C22743375   7.251   6.094   5.648  0.1771  0.1206 -0.1149
  135MOL   C22843376   7.156   6.178   5.564  0.2363 -0.7755  0.7087
  135MOL   O22943377   7.052   6.221   5.614  0.3970 -0.1959  0.3664
  135MOL   N23043378   7.180   6.207   5.432  0.3512  0.7842  0.3427
  135MOL   C23143379   7.101   6.296   5.354  0.3003  0.3078  0.9188
  135MOL   C23243380   7.267   6.122   5.347 -0.5875 -0.2053  0.2273
  135MOL   H23343381   7.305   6.095   5.854 -0.1374 -0.9117 -1.4628
  135MOL   H23443382   7.221   6.241   5.810  1.5685  1.2208  1.3138
  135MOL   H23543383   7.335   6.057   5.588  2.1205 -0.0105  2.5769
  135MOL   H23643384   7.153   6.353   5.277 -0.5793 -0.1303 -0.0088
  135MOL   H23743385   7.018   6.241   5.311 -0.6584  1.0408  1.8073
  135MOL   H23843386   7.050   6.367   5.419 -0.0252  1.5079 -0.6027
  135MOL   H23943387   7.232   6.019   5.340 -0.0304 -0.7236  4.1583
  135MOL   H24043388   7.369   6.112   5.384 -0.4191  3.2556  0.8974
  135MOL   H24143389   7.277   6.147   5.241  2.6317  0.6377  0.6756
  135MOL   C24243390   7.179   5.961   5.683  0.2467 -0.7672 -0.3150
  135MOL   C24343391   7.266   5.841   5.732 -0.0877  0.0296 -0.5873
  135MOL   C24443392   7.369   5.789   5.629  0.4223 -0.7769  0.0663
  135MOL   O24543393   7.334   5.787   5.509 -0.2703  0.5428  0.1866
  135MOL   N24643394   7.491   5.747   5.669 -0.3874  0.1667  0.0056
  135MOL   C24743395   7.604   5.742   5.575 -0.3829 -0.2434  1.0161
  135MOL   C24843396   7.533   5.710   5.806 -0.4787  0.7101 -0.4764
  135MOL   H24943397   7.106   5.983   5.761  0.9430 -0.5854  0.2953
  135MOL   H25043398   7.113   5.929   5.602 -1.8895  1.4498  0.5002
  135MOL   H25143399   7.321   5.895   5.809  2.5292  1.0203 -3.0732
  135MOL   H25243400   7.695   5.706   5.624  0.1751  0.0767  0.2385
  135MOL   H25343401   7.593   5.680   5.486 -1.3828  0.8261  0.3863
  135MOL   H25443402   7.622   5.836   5.523 -0.8674 -0.5200  0.3412
  135MOL   H25543403   7.447   5.662   5.853 -0.0110 -1.3591 -1.6666
  135MOL   H25643404   7.552   5.806   5.854  1.8261 -0.9327  2.0703
  135MOL   H25743405   7.616   5.640   5.811  0.2850  1.2057 -4.6135
  135MOL   C25843406   7.181   5.731   5.801  0.2574 -0.0502 -0.1877
  135MOL   C25943407   7.121   5.770   5.937 -0.3853 -0.4355 -0.7708
  135MOL   C26043408   7.229   5.811   6.039  0.0184  0.2622 -0.2724
  135MOL   O26143409   7.346   5.774   6.029 -0.0663  0.6126  0.6667
  135MOL   N26243410   7.193   5.890   6.139 -0.8883 -0.5351 -0.6062
  135MOL   C26343411   7.059   5.956   6.146  0.0930  0.3552 -0.3909
  135MOL   C26443412   7.288   5.928   6.248  0.0898 -1.0932 -0.1595
  135MOL   H26543413   7.103   5.699   5.732  0.8095  0.6922 -1.1724
  135MOL   H26643414   7.247   5.645   5.815  0.9256 -0.0243 -2.9403
  135MOL   H26743415   7.060   5.857   5.916 -0.0477 -0.2024 -0.7873
  135MOL   H26843416   6.972   5.893   6.164 -1.2399  2.4358  0.7363
  135MOL   H26943417   7.051   6.029   6.226 -0.2275 -1.7719  1.5651
  135MOL   H27043418   7.036   6.016   6.058  0.1745  1.9596  0.6419
  135MOL   H27143419   7.331   5.834   6.283 -2.8028 -1.5770  2.3454
  135MOL   H27243420   7.234   5.964   6.336 -0.4955 -0.3052 -0.8308
  135MOL   H27343421   7.360   6.001   6.212 -2.3314  1.2426 -0.4439
  135MOL   C27443422   7.038   5.650   5.990  0.2621  0.0815  0.2910
  135MOL   C27543423   6.897   5.640   5.918 -0.0877  0.1304  0.1599
  135MOL   C27643424   6.804   5.759   5.961 -0.0621 -0.5189  0.1116
  135MOL   O27743425   6.763   5.775   6.077  0.2074  0.9638  0.1101
  135MOL   N27843426   6.777   5.853   5.865  0.1232 -0.0938 -0.0567
  135MOL   C27943427   6.815   5.845   5.728 -0.3507 -0.3511 -0.3975
  135MOL   C28043428   6.729   5.989   5.902  1.0106  0.2257 -0.0523
  135MOL   H28143429   7.097   5.559   5.993 -1.0485 -0.7446  2.1784
  135MOL   H28243430   7.011   5.658   6.095 -1.5136  0.0019 -0.1323
  135MOL   H28343431   6.900   5.635   5.810 -0.4718  0.1745  0.1466
  135MOL   H28443432   6.796   5.934   5.668  0.8821  1.0444  1.2693
  135MOL   H28543433   6.909   5.804   5.692  0.7263  1.0901  0.7225
  135MOL   H28643434   6.740   5.776   5.688  0.5278 -1.5448 -0.0121
  135MOL   H28743435   6.770   6.019   5.998 -0.9082 -0.1185  0.9002
  135MOL   H28843436   6.620   5.992   5.901  1.0499  2.2474 -0.9638
  135MOL   H28943437   6.771   6.067   5.839 -0.6343  2.0585  1.0804
  135MOL   C29043438   6.840   5.505   5.959  0.2746  0.4942  0.2287
  135MOL   C29143439   6.706   5.479   5.900 -0.1152 -0.5269  0.5457
  135MOL   C29243440   6.647   5.362   5.977  0.0174  0.6201  0.4549
  135MOL   O29343441   6.695   5.250   5.951  0.3192 -0.2865 -0.6754
  135MOL   N29443442   6.539   5.368   6.059 -0.3274  0.7671  0.5601
  135MOL   C29543443   6.488   5.251   6.133  0.4887  0.6985 -0.0925
  135MOL   C29643444   6.481   5.497   6.100 -0.2820  0.2359 -0.3683
  135MOL   H29743445   6.896   5.419   5.923  0.1807  0.9967 -1.1710
  135MOL   H29843446   6.838   5.506   6.068 -2.2733 -1.1858  0.2482
  135MOL   H29943447   6.635   5.559   5.918  1.6169  1.3050 -0.5879
  135MOL   H30043448   6.391   5.220   6.095  0.6357 -1.4073  1.2200
  135MOL   H30143449   6.554   5.165   6.139 -0.7784 -0.4544 -2.2822
  135MOL   H30243450   6.481   5.278   6.239  1.4241 -1.5829  0.5653
  135MOL   H30343451   6.416   5.473   6.185 -0.9497 -0.3239 -1.0349
  135MOL   H30443452   6.417   5.542   6.025 -1.5934  0.8334  1.0836
  135MOL   H30543453   6.556   5.568   6.134  0.5936 -2.0505  2.7616
  135MOL   C30643454   6.713   5.442   5.745  0.8373  0.1211 -0.5226
  135MOL   C30743455   6.580   5.420   5.665 -0.4333 -0.6234 -0.2174
  135MOL   C30843456   6.478   5.531   5.665  0.7234 -0.4562  0.1956
  135MOL   O30943457   6.490   5.624   5.739 -0.3623 -0.2178 -0.1427
  135MOL   N31043458   6.375   5.522   5.574  0.4308 -0.1353 -0.3631
  135MOL   C31143459   6.253   5.604   5.575  0.4115  0.1172  0.1971
  135MOL   C31243460   6.354   5.413   5.476 -0.4058 -1.1995 -0.8977
  135MOL   H31343461   6.774   5.516   5.693  0.8893  0.7844  0.4765
  135MOL   H31443462   6.766   5.347   5.735 -1.7383 -1.5398  0.9544
  135MOL   H31543463   6.599   5.382   5.565 -2.2925 -3.4995  0.4575
  135MOL   H31643464   6.251   5.656   5.480  0.5095  1.3311  0.8493
  135MOL   H31743465   6.170   5.533   5.578 -1.0379  1.7926  0.5480
  135MOL   H31843466   6.241   5.661   5.667  2.0520  1.7870 -0.6084
  135MOL   H31943467   6.432   5.423   5.401  1.8618  1.5625  1.6704
  135MOL   H32043468   6.263   5.417   5.416 -0.5548  0.3860 -0.5685
  135MOL   H32143469   6.354   5.312   5.518  0.0995 -1.4958 -1.6016
  135MOL   H32243470   6.523   5.340   5.714 -0.5709 -0.4886 -0.1567
  136MOL     C143471   3.497   0.576   7.225  0.2568 -0.2625  0.1031
  136MOL     C243472   3.566   0.455   7.297  0.5797  0.9333  0.1628
  136MOL     C343473   3.714   0.481   7.282 -0.4239  0.5388 -0.3574
  136MOL     O443474   3.759   0.468   7.169  0.3130  0.1584 -0.4221
  136MOL     N543475   3.790   0.507   7.393 -0.2303  0.6876 -0.3528
  136MOL     C643476   3.728   0.564   7.513 -0.4159  0.0770 -0.5420
  136MOL     C743477   3.931   0.476   7.384  0.0053 -0.2603 -0.3002
  136MOL     H843478   3.548   0.671   7.237  0.5134 -0.8633  4.3858
  136MOL     H943479   3.398   0.593   7.267 -0.5656 -0.5220 -1.6852
  136MOL    H1043480   3.530   0.450   7.400  1.3141  1.2643  0.4414
  136MOL    H1143481   3.797   0.614   7.580 -0.0829 -1.7748  0.5214
  136MOL    H1243482   3.649   0.637   7.494 -1.3050 -0.3221  1.4906
  136MOL    H1343483   3.688   0.473   7.556  1.4894 -1.8637 -2.7385
  136MOL    H1443484   4.005   0.550   7.353 -0.0288  0.0525  0.3480
  136MOL    H1543485   3.949   0.393   7.316  2.5843 -1.4132  1.6906
  136MOL    H1643486   3.955   0.431   7.481  1.1733 -3.1539 -1.8547
  136MOL    H1743487   3.489   0.567   7.116 -1.1640 -0.6097  0.2204
  136MOL    C1843488   3.516   0.318   7.245  0.3131 -0.1165 -0.2515
  136MOL    C1943489   3.604   0.190   7.275 -0.5136  0.0063  0.1980
  136MOL    C2043490   3.573   0.068   7.174  0.1533  0.0176 -0.3469
  136MOL    O2143491   3.460   0.063   7.134  0.1002  0.0901  0.1585
  136MOL    N2243492   3.671   7.824   7.148  0.2435  0.6386 -0.3781
  136MOL    C2343493   3.637   7.717   7.056  0.3690  1.2138 -0.7019
  136MOL    C2443494   3.804   7.825   7.204  0.1748 -0.0853  0.0472
  136MOL    H2543495   3.414   0.299   7.279  0.6206  1.7213  1.7660
  136MOL    H2643496   3.501   0.323   7.137  0.4151 -2.6473 -0.4265
  136MOL    H2743497   3.703   0.227   7.250  0.7363 -2.3578  1.4893
  136MOL    H2843498   3.692   7.627   7.084  0.0357  1.7802  1.9245
  136MOL    H2943499   3.533   7.691   7.073  0.5706  0.2893 -0.8293
  136MOL    H3043500   3.658   7.729   6.950 -2.9035 -0.6483 -1.6469
  136MOL    H3143501   3.801   7.764   7.294 -0.8708 -0.4940 -0.2620
  136MOL    H3243502   3.844   0.069   7.233  1.3933 -0.4351 -0.4220
  136MOL    H3343503   3.871   7.787   7.126 -1.5423  0.7009 -1.8605
  136MOL    C3443504   3.604   0.150   7.427 -0.2499 -0.4143 -0.2220
  136MOL    C3543505   3.475   0.089   7.485  0.1029  0.0412 -0.1983
  136MOL    C3643506   3.380   0.210   7.530 -0.5101 -0.0987  0.8906
  136MOL    O3743507   3.425   0.301   7.603  0.6058  0.3540 -0.2614
  136MOL    N3843508   3.252   0.202   7.508 -0.0180 -0.2655  0.2954
  136MOL    C3943509   3.201   0.129   7.391  0.2236 -0.6328 -0.7320
  136MOL    C4043510   3.163   0.296   7.579  0.0286  0.8735  1.3633
  136MOL    H4143511   3.683   0.075   7.430  0.2493  0.0459 -1.3579
  136MOL    H4243512   3.641   0.235   7.484  0.0394 -1.3400  0.9978
  136MOL    H4343513   3.434   0.025   7.407  1.0223 -0.0161 -0.6424
  136MOL    H4443514   3.259   0.103   7.303 -2.5995 -0.5109 -2.6987
  136MOL    H4543515   3.158   0.040   7.435  0.7716 -0.8126 -0.5517
  136MOL    H4643516   3.119   0.190   7.352  1.2157  2.0637  1.1926
  136MOL    H4743517   3.205   0.396   7.564 -1.1618  1.2564  0.5084
  136MOL    H4843518   3.131   0.273   7.680  0.7197  0.1689  1.4251
  136MOL    H4943519   3.066   0.297   7.529 -0.0882  0.1348  1.5780
  136MOL    C5043520   3.506   7.840   7.601 -0.4587  0.5977 -0.1142
  136MOL    C5143521   3.519   7.689   7.550  0.5727 -0.1808  0.1913
  136MOL    C5243522   3.378   7.629   7.549 -0.3782  0.3613  0.0674
  136MOL    O5343523   3.331   7.603   7.660  0.0191  0.1656  0.1299
  136MOL    N5443524   3.312   7.593   7.438 -0.0205  0.3857 -0.1718
  136MOL    C5543525   3.347   7.636   7.298  0.6071 -0.0887 -0.0427
  136MOL    C5643526   3.176   7.534   7.447  0.2635 -1.2645  0.3081
  136MOL    H5743527   3.596   0.011   7.657  1.1127  0.7605 -2.6341
  136MOL    H5843528   3.426   7.838   7.675 -1.5645 -1.8268 -1.2974
  136MOL    H5943529   3.553   7.676   7.447 -1.9576  3.3116 -1.2140
  136MOL    H6043530   3.338   7.546   7.237  1.1490  1.2286 -2.1328
  136MOL    H6143531   3.271   7.704   7.258  0.1212 -0.4772  0.2234
  136MOL    H6243532   3.442   7.687   7.280  0.7960 -0.1738  0.7086
  136MOL    H6343533   3.156   7.479   7.539 -1.5259  0.5548  1.0522
  136MOL    H6443534   3.162   7.462   7.366 -3.1416  0.1293 -0.4358
  136MOL    H6543535   3.109   7.620   7.441  2.4301  0.6006  1.8729
  136MOL    C6643536   3.613   7.617   7.639 -0.1718 -0.3658 -0.2545
  136MOL    C6743537   3.665   7.473   7.614 -0.6910 -0.7116 -0.4275
  136MOL    C6843538   3.739   7.453   7.474 -0.2978 -1.1797  0.1932
  136MOL    O6943539   3.672   7.440   7.370 -0.1212  0.7794 -0.4763
  136MOL    N7043540   3.874   7.450   7.472  0.1010 -0.0310 -0.3496
  136MOL    C7143541   3.955   7.433   7.589  0.1271 -0.4069 -0.1488
  136MOL    C7243542   3.944   7.448   7.343  0.6441  0.4507 -0.5569
  136MOL    H7343543   3.715   7.657   7.637  0.5075 -1.9140  1.3920
  136MOL    H7443544   3.586   7.622   7.745 -1.2348 -0.6758 -0.5116
  136MOL    H7543545   3.729   7.437   7.695  1.4805  0.7553 -1.4347
  136MOL    H7643546   3.913   7.382   7.675 -0.4470  2.8390  1.5489
  136MOL    H7743547   4.036   7.366   7.559  0.1351  0.0850 -1.2571
  136MOL    H7843548   4.007   7.523   7.621 -0.6477  0.3137 -0.9067
  136MOL    H7943549   3.908   7.361   7.288 -0.0510  0.6355 -0.3971
  136MOL    H8043550   4.051   7.469   7.349  0.7338  0.9459 -3.5012
  136MOL    H8143551   3.909   7.534   7.287 -1.2592  0.1141  0.0806
  136MOL    C8243552   3.546   7.372   7.627 -0.5304 -0.0677 -0.0974
  136MOL    C8343553   3.557   7.218   7.610  0.2546  0.0578 -0.1411
  136MOL    C8443554   3.415   7.158   7.593 -0.5544  0.3475 -0.0450
  136MOL    O8543555   3.351   7.149   7.699  0.1584  0.0517 -0.2266
  136MOL    N8643556   3.367   7.144   7.467  0.3771 -0.5945  0.7795
  136MOL    C8743557   3.444   7.171   7.346 -0.0354  0.3967 -0.1484
  136MOL    C8843558   3.224   7.114   7.434  0.2049  0.0856 -0.5318
  136MOL    H8943559   3.488   7.385   7.718 -1.9167 -2.6630 -0.5639
  136MOL    H9043560   3.467   7.397   7.555 -1.7256 -0.9092  0.8895
  136MOL    H9143561   3.621   7.186   7.527 -0.4480  1.0152 -1.0627
  136MOL    H9243562   3.484   7.272   7.342 -1.5483  0.9526 -1.8444
  136MOL    H9343563   3.528   7.101   7.343  0.1887  0.7076 -1.6457
  136MOL    H9443564   3.389   7.148   7.255 -3.0720 -0.2155  1.7536
  136MOL    H9543565   3.210   7.028   7.500 -1.8187  1.1273  0.4351
  136MOL    H9643566   3.200   7.085   7.332 -0.7443 -1.2528  0.0511
  136MOL    H9743567   3.150   7.181   7.478 -1.6721 -1.9480 -0.4736
  136MOL    C9843568   3.626   7.162   7.744 -0.5890  0.2857 -0.8620
  136MOL    C9943569   3.597   7.011   7.777 -0.0591 -0.3738 -0.6427
  136MOL   C10043570   3.678   6.971   0.048  0.3301  0.0270 -0.4833
  136MOL   O10143571   3.793   6.927   0.030 -0.1283 -0.4824 -0.0974
  136MOL   N10243572   3.638   7.001   0.169  0.3248 -0.2562  0.1716
  136MOL   C10343573   3.497   7.035   0.194  0.4962 -0.1493  0.8261
  136MOL   C10443574   3.732   7.012   0.280 -0.2798  0.3306 -0.1848
  136MOL   H10543575   3.732   7.162   7.720 -0.9171 -2.0376 -2.5072
  136MOL   H10643576   3.620   7.226   7.832 -0.1096 -3.4590  1.9909
  136MOL   H10743577   3.492   6.999   7.804  0.5884 -1.6643  1.4083
  136MOL   H10843578   3.429   6.959   0.154 -0.0332  0.9136 -0.3259
  136MOL   H10943579   3.495   7.046   0.303  0.8718 -1.2030  0.9444
  136MOL   H11043580   3.473   7.124   0.136  1.9382  0.8976  1.7932
  136MOL   H11143581   3.687   6.967   0.369 -1.0127  0.5806 -0.4287
  136MOL   H11243582   3.751   7.118   0.297  1.3302  0.0710 -0.2364
  136MOL   H11343583   3.833   6.974   0.262 -0.5818  0.3107 -1.8794
  136MOL   C11443584   3.648   6.922   7.656 -0.1826  0.2998  0.8961
  136MOL   C11543585   3.631   6.765   7.676 -0.4818  0.0480  0.0037
  136MOL   C11643586   3.721   6.710   7.560 -0.2545  0.4986 -0.0385
  136MOL   O11743587   3.686   6.733   7.443  0.1676  0.3432 -0.5893
  136MOL   N11843588   3.835   6.635   7.584  0.7579  0.1001 -0.0202
  136MOL   C11943589   3.914   6.576   7.481 -0.3758  0.2647 -0.2394
  136MOL   C12043590   3.891   6.629   7.716  0.1906  0.4810  0.2385
  136MOL   H12143591   3.594   6.951   7.566 -0.9397 -1.2757  0.8200
  136MOL   H12243592   3.749   6.946   7.625  0.0132 -0.9413  0.5124
  136MOL   H12343593   3.654   6.731   7.777  0.9989 -1.4941 -0.8291
  136MOL   H12443594   3.872   6.490   7.429 -0.4741  0.4348 -0.4459
  136MOL   H12543595   3.937   6.655   7.409 -2.4011  2.5862  1.5685
  136MOL   H12643596   4.015   6.542   7.506 -0.9482 -0.1176  1.6226
  136MOL   H12743597   3.896   6.727   7.765  1.5375  0.2933  0.4847
  136MOL   H12843598   3.992   6.590   7.722  0.1094  0.1338 -0.5754
  136MOL   H12943599   3.822   6.579   7.785 -0.7097  0.5910 -0.5630
  136MOL   C13043600   3.481   6.737   7.646 -0.6167  0.0529  0.2520
  136MOL   C13143601   3.408   6.599   7.668 -0.1783  0.6186 -0.4500
  136MOL   C13243602   3.398   6.565   7.823 -0.4413  0.4644  0.7098
  136MOL   O13343603   3.493   6.601   0.036 -0.0296  0.4129 -0.0638
  136MOL   N13443604   3.289   6.508   0.026 -0.4900 -0.1393  0.2332
  136MOL   C13543605   3.166   6.473   7.808 -0.3268 -0.6352 -0.2445
  136MOL   C13643606   3.301   6.462   0.168  0.3641 -0.3607 -0.1020
  136MOL   H13743607   3.418   6.800   7.709 -3.1795 -1.3160 -0.8629
  136MOL   H13843608   3.475   6.771   7.543 -0.8567 -2.1968 -0.5057
  136MOL   H13943609   3.308   6.623   7.632 -0.5873  2.1517  1.5965
  136MOL   H14043610   3.105   6.561   7.787  1.0605  0.1808 -0.9297
  136MOL   H14143611   3.188   6.421   7.715 -1.9172  0.4837 -1.2753
  136MOL   H14243612   3.102   6.416   0.021 -0.4151  1.0510  1.1630
  136MOL   H14343613   3.395   6.410   0.178  0.7776  0.5168  0.6788
  136MOL   H14443614   3.219   6.399   0.204 -2.0452  2.5404 -0.2529
  136MOL   H14543615   3.295   6.551   0.232 -1.6654 -0.9790  0.6286
  136MOL   C14643616   3.452   6.475   7.593 -0.0028  0.1660 -0.3324
  136MOL   C14743617   3.438   6.473   7.444  0.4385 -0.7114 -0.0954
  136MOL   C14843618   3.283   6.467   7.413 -0.1803  0.1408  0.3638
  136MOL   O14943619   3.235   6.351   7.423  0.0901  0.7959 -0.1887
  136MOL   N15043620   3.217   6.570   7.353 -0.0201  0.3241 -0.3834
  136MOL   C15143621   3.093   6.541   7.282  0.3158 -0.3639  0.1913
  136MOL   C15243622   3.248   6.710   7.362 -0.6460 -0.3873  0.5834
  136MOL   H15343623   3.556   6.472   7.626 -0.7090 -0.3312  1.9764
  136MOL   H15443624   3.418   6.379   7.633  0.6628  0.7705  1.7669
  136MOL   H15543625   3.467   6.572   7.408 -0.7520 -0.7898 -1.3208
  136MOL   H15643626   3.003   6.555   7.341 -1.7508  2.9644 -3.5148
  136MOL   H15743627   3.073   6.599   7.192  1.9921 -1.2657 -0.7817
  136MOL   H15843628   3.100   6.438   7.248 -2.1469 -0.1629 -0.9846
  136MOL   H15943629   3.181   6.755   7.435 -0.2735 -0.6778  1.1037
  136MOL   H16043630   3.209   6.768   7.278 -0.1415  2.5294  2.2878
  136MOL   H16143631   3.350   6.729   7.392 -0.7519 -0.1646  0.7991
  136MOL   C16243632   3.532   6.372   7.377 -0.2466  0.1760  0.2475
  136MOL   C16343633   3.599   6.418   7.241  0.0685 -0.3036 -0.0700
  136MOL   C16443634   3.482   6.455   7.138 -0.5793  0.0973 -0.2958
  136MOL   O16543635   3.412   6.359   7.097  0.1985  0.6598 -0.1667
  136MOL   N16643636   3.455   6.581   7.103 -0.1539 -0.8517  0.5034
  136MOL   C16743637   3.541   6.699   7.137 -0.3769 -0.1268 -0.5451
  136MOL   C16843638   3.336   6.622   7.028  0.3129  0.8610 -0.2465
  136MOL   H16943639   3.611   6.337   7.444  1.8751  2.3917 -0.9843
  136MOL   H17043640   3.472   6.283   7.360  1.5852 -0.8938 -0.9223
  136MOL   H17143641   3.651   6.507   7.276 -2.4178  1.0258  0.3225
  136MOL   H17243642   3.566   6.759   7.049 -0.4111  2.8377  1.4011
  136MOL   H17343643   3.496   6.775   7.200 -2.8768 -1.6264 -0.4698
  136MOL   H17443644   3.632   6.675   7.191 -1.0287 -0.6737  0.3166
  136MOL   H17543645   3.363   6.653   6.927 -0.0518 -0.8150 -0.8720
  136MOL   H17643646   3.284   6.709   7.070  1.2361  1.5831 -0.5806
  136MOL   H17743647   3.266   6.539   7.019  2.0018 -0.4730 -1.3036
  136MOL   C17843648   3.692   6.307   7.185 -0.1791 -0.3896 -0.2903
  136MOL   C17943649   3.703   6.274   7.033 -0.9904  0.9887 -0.0783
  136MOL   C18043650   3.771   6.134   7.018 -0.8779  0.3607  0.0178
  136MOL   O18143651   3.875   6.112   7.073 -0.5090 -0.2237  0.6544
  136MOL   N18243652   3.712   6.033   6.951  0.1488 -0.4366  0.4750
  136MOL   C18343653   3.788   5.904   6.939 -0.3830  0.2795  0.4798
  136MOL   C18443654   3.587   6.036   6.883  0.1101  0.1345  0.0836
  136MOL   H18543655   3.791   6.313   7.229 -1.0475 -0.4851  1.7284
  136MOL   H18643656   3.654   6.218   7.236 -1.6868  1.2224  1.4483
  136MOL   H18743657   3.607   6.266   6.982 -0.0961 -2.1341 -1.4107
  136MOL   H18843658   3.741   5.825   6.880 -1.0458  1.4010 -0.5144
  136MOL   H18943659   3.885   5.919   6.893 -0.7569  2.2087  0.2828
  136MOL   H19043660   3.800   5.855   7.035 -2.2218 -1.1596  0.0126
  136MOL   H19143661   3.496   6.047   6.943  0.8440  0.9930  1.0640
  136MOL   H19243662   3.573   5.943   6.828 -1.8917  0.7769 -0.5445
  136MOL   H19343663   3.569   6.115   6.811  0.7079  0.0356 -0.1768
  136MOL   C19443664   3.780   6.381   6.951  0.4901 -0.9710  0.4233
  136MOL   C19543665   3.735   6.400   6.803  0.3578 -0.1012 -0.3450
  136MOL   C19643666   3.855   6.450   6.714  0.3509  0.3488  0.0926
  136MOL   O19743667   3.873   6.569   6.708  0.1523 -0.7439  0.7382
  136MOL   N19843668   3.933   6.362   6.650  0.3975  0.2699  0.4636
  136MOL   C19943669   4.056   6.409   6.589  0.2043  0.3615 -0.4017
  136MOL   C20043670   3.908   6.214   6.635  0.1154 -0.0762 -0.2841
  136MOL   H20143671   3.770   6.477   7.002  0.1132 -0.1051 -1.2390
  136MOL   H20243672   3.885   6.351   6.938  1.1847  1.4725  0.1665
  136MOL   H20343673   3.710   6.305   6.756  1.3942 -1.2190  1.3049
  136MOL   H20443674   4.041   6.467   6.498 -2.1779 -0.9554 -0.9041
  136MOL   H20543675   4.111   6.470   6.660  0.4853 -1.1113  0.6808
  136MOL   H20643676   4.124   6.325   6.575 -0.8167 -0.7633  1.1070
  136MOL   H20743677   3.828   6.201   6.563  1.1955  3.5927 -2.2418
  136MOL   H20843678   3.885   6.172   6.733  0.9696  0.1276  0.0070
  136MOL   H20943679   3.994   6.157   6.601  1.5715  2.3812 -0.8187
  136MOL   C21043680   3.605   6.483   6.801 -0.1465  0.4570 -0.3251
  136MOL   C21143681   3.515   6.476   6.670 -0.2216 -0.1000  0.1887
  136MOL   C21243682   3.463   6.334   6.632 -1.1173 -0.2976 -0.5194
  136MOL   O21343683   3.533   6.258   6.564 -0.0156  0.0843  0.5029
  136MOL   N21443684   3.341   6.283   6.664  0.2896  0.1769 -0.4779
  136MOL   C21543685   3.305   6.145   6.657  0.1312  0.1076 -0.2635
  136MOL   C21643686   3.229   6.378   6.677 -0.3167  0.7552 -0.7375
  136MOL   H21743687   3.543   6.457   6.887 -0.0935  0.2333 -0.3532
  136MOL   H21843688   3.635   6.587   6.816 -2.2042  1.1269 -0.6992
  136MOL   H21943689   3.437   6.530   6.724 -0.0085  0.0666  0.3273
  136MOL   H22043690   3.297   6.127   6.550 -2.0617  0.8952 -0.2522
  136MOL   H22143691   3.384   6.083   6.700  0.3134 -1.6136 -2.9477
  136MOL   H22243692   3.211   6.121   6.705  1.4831 -0.9722  1.9469
  136MOL   H22343693   3.238   6.419   6.778 -0.3768 -0.5233 -0.1917
  136MOL   H22443694   3.133   6.328   6.662 -0.3636  0.0035  1.8312
  136MOL   H22543695   3.234   6.462   6.608 -0.7571  2.1534  0.8902
  136MOL   C22643696   3.578   6.555   6.546 -0.1667 -0.0137 -0.0379
  136MOL   C22743697   3.466   6.614   6.457 -0.3279 -0.0028  0.1480
  136MOL   C22843698   3.509   6.661   6.317  0.4321  0.7030  0.0482
  136MOL   O22943699   3.620   6.708   6.296 -0.0397  0.1063 -0.1270
  136MOL   N23043700   3.426   6.652   6.214 -0.0652 -0.2174 -0.6143
  136MOL   C23143701   3.295   6.579   6.228 -0.0493  0.1603 -0.0670
  136MOL   C23243702   3.455   6.722   6.091  0.2369 -0.3881  0.3085
  136MOL   H23343703   3.650   6.630   6.581  1.5003 -0.9532 -1.4163
  136MOL   H23443704   3.637   6.482   6.492 -1.5775 -2.2478  1.3877
  136MOL   H23543705   3.394   6.533   6.446 -1.0330  0.4610  1.2659
  136MOL   H23643706   3.225   6.577   6.145  0.6261  0.7959 -0.6585
  136MOL   H23743707   3.316   6.472   6.241 -4.0600 -0.7284 -0.4048
  136MOL   H23843708   3.249   6.611   6.322  2.5427 -0.7423  1.5664
  136MOL   H23943709   3.495   6.822   6.110  0.4419 -0.1556 -1.3011
  136MOL   H24043710   3.371   6.729   6.022  1.2345 -1.8243 -1.0884
  136MOL   H24143711   3.529   6.669   6.031 -1.7568 -1.5610 -1.1555
  136MOL   C24243712   3.382   6.732   6.518  0.0319 -0.1646 -0.0611
  136MOL   C24343713   3.455   6.865   6.555 -0.8896  0.4155  0.1445
  136MOL   C24443714   3.547   6.849   6.684 -0.9415 -0.3504 -0.1147
  136MOL   O24543715   3.486   6.815   6.785  0.4302  0.3390  0.1973
  136MOL   N24643716   3.678   6.881   6.680  0.0931 -0.7096  0.1123
  136MOL   C24743717   3.757   6.870   6.803  0.0978 -0.3799 -0.2832
  136MOL   C24843718   3.749   6.938   6.570 -0.3212 -0.0961  0.1369
  136MOL   H24943719   3.300   6.755   6.450  1.7875 -3.0881 -3.3394
  136MOL   H25043720   3.332   6.691   6.606 -1.1528  1.5389  0.0924
  136MOL   H25143721   3.516   6.904   6.474 -0.2971 -1.8210 -0.5213
  136MOL   H25243722   3.855   6.916   6.791 -0.3966  0.7054 -0.1823
  136MOL   H25343723   3.717   6.930   6.884 -0.5787  0.9660 -1.5991
  136MOL   H25443724   3.763   6.764   6.828 -1.5028 -0.5350 -0.5389
  136MOL   H25543725   3.857   6.946   6.583 -0.6996  1.6116  2.7230
  136MOL   H25643726   3.730   7.045   6.561  1.4924  0.3362  1.0363
  136MOL   H25743727   3.719   6.889   6.478 -1.6410 -2.7311  1.9203
  136MOL   C25843728   3.356   6.977   6.592  0.0916 -0.5971 -0.0099
  136MOL   C25943729   3.264   7.026   6.471 -0.3036 -0.3837 -0.1037
  136MOL   C26043730   3.330   7.112   6.366 -1.1647 -0.0479 -0.3232
  136MOL   O26143731   3.396   7.206   6.411 -0.2849  0.0028  0.0516
  136MOL   N26243732   3.322   7.076   6.232 -0.4744 -1.0234  0.7599
  136MOL   C26343733   3.246   6.970   6.182 -0.2645 -0.9700  0.2847
  136MOL   C26443734   3.389   7.164   6.136  0.3069  0.2361  0.2236
  136MOL   H26543735   3.291   6.938   6.670 -1.6464  0.6348 -0.7979
  136MOL   H26643736   3.401   7.067   6.635 -1.3451  0.6370 -1.0485
  136MOL   H26743737   3.212   6.947   6.418  2.0643 -1.7922 -0.4042
  136MOL   H26843738   3.284   6.874   6.216  0.1302  0.1008  2.9366
  136MOL   H26943739   3.149   6.989   6.228 -0.4309  0.7629 -0.7199
  136MOL   H27043740   3.237   6.971   6.073  0.9650 -1.5054  0.1670
  136MOL   H27143741   3.444   7.101   6.066 -0.2173 -2.4625  2.1430
  136MOL   H27243742   3.464   7.234   6.173  0.1566  1.8395 -2.3783
  136MOL   H27343743   3.312   7.222   6.085 -1.4060 -2.0253  0.1633
  136MOL   C27443744   3.156   7.113   6.525  0.4442  0.6251 -0.9020
  136MOL   C27543745   3.060   7.047   6.636  0.2263 -0.5660 -0.2657
  136MOL   C27643746   2.997   6.911   6.590 -0.2890  0.0241 -0.3840
  136MOL   O27743747   2.937   6.914   6.481  0.0789  0.0560  0.7675
  136MOL   N27843748   3.009   6.800   6.661 -0.5350  0.2308  0.6869
  136MOL   C27943749   3.047   6.795   6.803  0.6758 -0.0310  0.6870
  136MOL   C28043750   2.982   6.664   6.604 -0.0972 -0.9558 -0.2612
  136MOL   H28143751   3.203   7.187   6.590  0.4652  1.5808 -1.9969
  136MOL   H28243752   3.088   7.156   6.451 -2.1335 -2.0221 -0.1473
  136MOL   H28343753   3.117   7.037   6.728  0.5260 -0.5785 -0.4487
  136MOL   H28443754   3.155   6.790   6.821  0.5210  0.2295  1.7538
  136MOL   H28543755   3.008   6.885   6.852  2.6734  0.9360  0.5505
  136MOL   H28643756   2.992   6.714   6.851  2.0890  0.2409  2.8536
  136MOL   H28743757   2.877   6.641   6.617 -0.1880 -1.3622 -1.6306
  136MOL   H28843758   3.052   6.600   6.657  1.4787  0.5184 -0.5044
  136MOL   H28943759   3.017   6.656   6.501  0.5222  2.0121 -0.3187
  136MOL   C29043760   2.939   7.145   6.666 -0.8132 -0.4507 -0.9979
  136MOL   C29143761   2.968   7.272   6.760 -0.1062  0.2130  0.2646
  136MOL   C29243762   3.052   7.244   6.883 -0.4066  0.1524 -0.0115
  136MOL   O29343763   3.007   7.157   6.960 -0.0154 -0.0707 -0.1043
  136MOL   N29443764   3.152   7.329   6.916  0.2822  0.1904 -0.8766
  136MOL   C29543765   3.209   7.428   6.829  0.1983 -0.0906  1.0644
  136MOL   C29643766   3.216   7.308   7.046 -0.5100 -0.1284 -0.1260
  136MOL   H29743767   2.913   7.171   6.563 -0.1392 -1.3531 -1.3982
  136MOL   H29843768   2.844   7.099   6.693 -0.7774 -0.1582 -0.3747
  136MOL   H29943769   3.034   7.334   6.699 -0.4167  0.6818  0.4032
  136MOL   H30043770   3.141   7.511   6.811  0.5982  0.3820  1.6900
  136MOL   H30143771   3.295   7.480   6.873  0.6271 -1.8037  2.2733
  136MOL   H30243772   3.262   7.391   6.741 -0.0683 -0.2163  0.9600
  136MOL   H30343773   3.317   7.279   7.017 -0.5529  0.6459 -1.0931
  136MOL   H30443774   3.165   7.234   7.108 -0.7135  0.5677  0.5429
  136MOL   H30543775   3.225   7.402   7.100  0.7819  0.1608 -0.8274
  136MOL   C30643776   2.846   7.364   6.782 -0.8369 -0.1590 -0.4424
  136MOL   C30743777   2.760   7.315   6.900 -1.1328  0.5220 -0.2776
  136MOL   C30843778   2.619   7.380   6.893  0.0385  0.4149  0.1522
  136MOL   O30943779   2.587   7.455   6.799 -0.5100  0.4755  0.4927
  136MOL   N31043780   2.526   7.356   6.990  0.2149 -0.0416 -0.9744
  136MOL   C31143781   2.401   7.440   7.010  0.6536  0.5121 -0.3068
  136MOL   C31243782   2.548   7.245   7.073  0.5491  1.0820  0.2404
  136MOL   H31343783   2.873   7.469   6.792 -1.2067 -0.2584  1.9047
  136MOL   H31443784   2.788   7.366   6.689 -0.9302  2.3169 -0.3686
  136MOL   H31543785   2.745   7.207   6.887  0.8477 -0.1147  2.3010
  136MOL   H31643786   2.325   7.434   6.932 -2.0416  0.9434  2.1704
  136MOL   H31743787   2.354   7.425   7.108 -1.3782 -1.6199 -1.5643
  136MOL   H31843788   2.440   7.542   7.004 -2.3219  1.7155 -0.0282
  136MOL   H31943789   2.562   7.156   7.013 -1.8609  0.4519  0.5586
  136MOL   H32043790   2.464   7.220   7.137 -1.9070  2.5685 -2.3038
  136MOL   H32143791   2.640   7.251   7.131  1.9684 -0.0150 -1.8340
  136MOL   H32243792   2.807   7.342   6.994  0.2060  0.9172 -1.0353
  137MOL     C143793   3.247   5.886   5.305  0.2745  0.3529 -0.7954
  137MOL     C243794   3.213   6.011   5.227  0.1768  0.0120 -0.5033
  137MOL     C343795   3.345   6.072   5.188  0.4094  0.4152  0.0177
  137MOL     O443796   3.419   6.117   5.274 -0.4022  0.1793 -0.3280
  137MOL     N543797   3.391   6.070   5.060 -0.0222 -0.3485 -0.2200
  137MOL     C643798   3.322   6.006   4.951 -0.3222  0.0348  0.5849
  137MOL     C743799   3.512   6.138   5.026  0.3947  0.0817 -0.7361
  137MOL     H843800   3.306   5.912   5.392 -1.4769 -2.0997  1.2195
  137MOL     H943801   3.301   5.819   5.237  0.3094 -1.4597  0.9649
  137MOL    H1043802   3.153   5.979   5.142 -0.4777 -1.1516  0.3775
  137MOL    H1143803   3.283   5.907   4.975 -2.2327  1.1902  2.4134
  137MOL    H1243804   3.233   6.057   4.914 -1.7305 -1.0552  2.4162
  137MOL    H1343805   3.377   6.008   4.857 -0.8929 -0.9528  0.2229
  137MOL    H1443806   3.547   6.202   5.107 -1.3060  1.2471 -0.8902
  137MOL    H1543807   3.490   6.209   4.946  2.2534  1.0931 -0.3711
  137MOL    H1643808   3.590   6.064   5.011  0.4182  0.1167 -0.7906
  137MOL    H1743809   3.153   5.844   5.340  0.7688 -0.6850 -0.6953
  137MOL    C1843810   3.118   6.104   5.314 -0.5341 -0.2832 -0.2824
  137MOL    C1943811   2.979   6.150   5.262 -0.1467  0.2773 -0.0021
  137MOL    C2043812   2.993   6.266   5.161 -0.4879 -0.1862  0.2460
  137MOL    O2143813   3.027   6.374   5.207  0.4014 -0.0523  0.1985
  137MOL    N2243814   2.953   6.252   5.029  0.0755  0.1885 -0.5972
  137MOL    C2343815   2.936   6.131   4.959  0.5957  0.4122 -0.4027
  137MOL    C2443816   2.916   6.367   4.956  0.2841 -0.4848  0.4310
  137MOL    H2543817   3.101   6.055   5.410 -0.6838  2.2641  1.0411
  137MOL    H2643818   3.176   6.190   5.349  0.2210 -0.9385  0.0967
  137MOL    H2743819   2.947   6.062   5.206  0.6630  0.9539 -1.5627
  137MOL    H2843820   2.970   6.135   4.855  1.3292  0.0879 -0.1819
  137MOL    H2943821   2.982   6.039   4.995 -1.5713 -0.7918 -0.6819
  137MOL    H3043822   2.831   6.104   4.962  0.3531  1.5159  1.6645
  137MOL    H3143823   2.809   6.373   4.938  0.1070  0.1854  1.6726
  137MOL    H3243824   2.962   6.358   4.857  0.4179 -2.4124  0.6469
  137MOL    H3343825   2.964   6.456   4.996  0.2566  0.1333 -0.9081
  137MOL    C3443826   2.874   6.196   5.370 -0.0074 -0.3034 -0.2364
  137MOL    C3543827   2.740   6.255   5.323  0.3937 -0.1668 -0.1180
  137MOL    C3643828   2.677   6.317   5.447 -0.8432 -0.0826 -0.2795
  137MOL    O3743829   2.638   6.245   5.542  0.3866  0.1764 -0.0677
  137MOL    N3843830   2.648   6.450   5.456 -0.3999 -0.0485 -0.2807
  137MOL    C3943831   2.552   6.495   5.556 -0.1068 -0.1007  0.1895
  137MOL    C4043832   2.706   6.558   5.370  0.0707 -0.4323  0.4099
  137MOL    H4143833   2.869   6.121   5.449  0.4761  0.6189  0.6774
  137MOL    H4243834   2.921   6.282   5.417  3.3639 -1.1759 -1.8757
  137MOL    H4343835   2.753   6.337   5.252 -1.3937 -0.6765 -1.0537
  137MOL    H4443836   2.474   6.420   5.558 -0.6019  0.4437  1.8362
  137MOL    H4543837   2.606   6.486   5.650  1.6241  2.1271 -0.5441
  137MOL    H4643838   2.519   6.599   5.554  2.0993  0.6110 -0.5559
  137MOL    H4743839   2.629   6.601   5.307  1.6179  0.4181 -0.9223
  137MOL    H4843840   2.788   6.540   5.300 -0.9771 -0.3938 -0.8419
  137MOL    H4943841   2.742   6.646   5.423 -0.2816 -0.5562  0.8612
  137MOL    C5043842   2.645   6.155   5.253  0.6111 -0.2610 -0.2119
  137MOL    C5143843   2.522   6.216   5.178  0.0147 -0.1481  0.3222
  137MOL    C5243844   2.405   6.110   5.165  0.9617 -0.4500  0.2012
  137MOL    O5343845   2.413   6.019   5.075  0.8737 -0.9102  0.5836
  137MOL    N5443846   2.305   6.109   5.253 -0.2685  0.0583  0.2964
  137MOL    C5543847   2.274   6.223   5.347  0.5765 -0.2011 -0.1981
  137MOL    C5643848   2.211   5.992   5.259  0.1952  0.6676 -0.3297
  137MOL    H5743849   2.704   6.089   5.190  0.0486 -0.1415 -0.8759
  137MOL    H5843850   2.604   6.092   5.332 -0.5079  2.4306  1.4187
  137MOL    H5943851   2.483   6.300   5.235 -1.2733 -0.7455  0.3479
  137MOL    H6043852   2.362   6.277   5.383  1.2755 -1.2524 -0.2669
  137MOL    H6143853   2.204   6.296   5.306  0.2208 -0.8440 -0.7472
  137MOL    H6243854   2.230   6.182   5.438  0.3005 -3.7203 -1.8100
  137MOL    H6343855   2.260   5.898   5.282  1.1863  1.3134  0.2544
  137MOL    H6443856   2.145   5.983   5.172 -2.8450 -0.5442  2.0130
  137MOL    H6543857   2.146   6.007   5.345  1.2133  0.3935  0.4913
  137MOL    C6643858   2.565   6.272   5.042 -0.1900  0.1182  0.1242
  137MOL    C6743859   2.463   6.357   4.958 -0.0956  0.4571  0.2392
  137MOL    C6843860   2.383   6.453   5.038  0.1708  0.4135  0.4180
  137MOL    O6943861   2.273   6.421   5.078 -0.0115 -0.2044 -0.0558
  137MOL    N7043862   2.433   6.582   5.054 -0.0544 -0.1903  0.6091
  137MOL    C7143863   2.381   6.684   5.146  0.5894 -0.6091  0.1132
  137MOL    C7243864   2.561   6.620   4.992 -0.1970  0.8313 -0.4022
  137MOL    H7343865   2.645   6.344   5.063  2.0623 -2.1678 -0.3532
  137MOL    H7443866   2.623   6.195   4.992  0.3974 -0.7905  2.1443
  137MOL    H7543867   2.520   6.413   4.884  0.7049 -0.2552  0.3030
  137MOL    H7643868   2.451   6.724   5.219  0.1966  0.1670  0.0724
  137MOL    H7743869   2.357   6.778   5.098  1.3931 -0.7889 -0.6511
  137MOL    H7843870   2.303   6.640   5.209  1.0827 -0.7727  0.6132
  137MOL    H7943871   2.581   6.721   5.029  0.9115  0.9690 -1.3397
  137MOL    H8043872   2.565   6.625   4.883 -0.1938  0.6570 -0.4098
  137MOL    H8143873   2.647   6.571   5.037  0.8398  3.1325  0.2088
  137MOL    C8243874   2.372   6.268   4.862  0.4783 -0.5824  0.6471
  137MOL    C8343875   2.438   6.184   4.748 -0.3959 -0.2357  0.3898
  137MOL    C8443876   2.575   6.229   4.694 -0.5828 -0.0399 -0.3377
  137MOL    O8543877   2.590   6.342   4.649 -0.4463 -0.1651 -0.9067
  137MOL    N8643878   2.675   6.132   4.680 -0.3985  0.4061 -0.0655
  137MOL    C8743879   2.673   5.993   4.734  0.5138 -1.2350 -0.5542
  137MOL    C8843880   2.785   6.180   4.595 -0.8173 -0.2303  0.1677
  137MOL    H8943881   2.308   6.202   4.921  1.6548 -1.6420  0.7586
  137MOL    H9043882   2.302   6.339   4.818  0.4700 -2.0296 -1.7602
  137MOL    H9143883   2.435   6.083   4.788 -1.6195  0.0521  1.0687
  137MOL    H9243884   2.601   5.935   4.675 -1.4605  0.0750  0.5180
  137MOL    H9343885   2.768   5.941   4.726  1.8434  1.0986 -0.1604
  137MOL    H9443886   2.640   5.992   4.837 -1.0218 -0.8586 -1.0252
  137MOL    H9543887   2.752   6.187   4.491  0.0721 -2.9157 -0.3277
  137MOL    H9643888   2.855   6.097   4.590 -1.1714 -0.5127 -0.1354
  137MOL    H9743889   2.829   6.271   4.636 -2.0731  0.5999 -0.2484
  137MOL    C9843890   2.342   6.186   4.624 -0.0956 -0.8168 -0.0781
  137MOL    C9943891   2.203   6.109   4.643 -0.2132 -0.3045 -0.5864
  137MOL   C10043892   2.211   5.967   4.691 -0.8704  0.0089  1.0658
  137MOL   O10143893   2.290   5.893   4.639  0.5089 -0.2892 -0.2329
  137MOL   N10243894   2.129   5.909   4.789  0.9331 -0.7019 -0.2957
  137MOL   C10343895   2.023   5.993   4.851 -0.1342  0.6600  0.1080
  137MOL   C10443896   2.153   5.787   4.855 -0.2039  0.3479 -0.0797
  137MOL   H10543897   2.327   6.289   4.591 -0.0105 -0.3684  1.2452
  137MOL   H10643898   2.387   6.136   4.538  0.9030 -1.3899  0.7809
  137MOL   H10743899   2.157   6.162   4.726 -0.4814  1.5225 -1.8673
  137MOL   H10843900   1.966   5.931   4.921  2.0162 -2.7268 -1.0119
  137MOL   H10943901   2.072   6.063   4.919 -1.7166 -0.7681  2.8542
  137MOL   H11043902   1.949   6.045   4.792  0.4645  1.6969  0.2642
  137MOL   H11143903   2.133   5.785   4.962  1.7469  0.8302  0.3307
  137MOL   H11243904   2.253   5.747   4.839 -1.2769 -2.4803  0.0366
  137MOL   H11343905   2.094   5.709   4.808  2.4429 -1.3479 -0.7082
  137MOL   C11443906   2.105   6.107   4.528  0.3812 -0.4674  0.0658
  137MOL   C11543907   2.073   6.256   4.479  0.4718 -0.0835 -0.0732
  137MOL   C11643908   2.019   6.343   4.587  0.3267 -1.1767 -0.3337
  137MOL   O11743909   1.923   6.304   4.650 -0.2208  1.0685  0.1315
  137MOL   N11843910   2.078   6.461   4.621 -0.3303 -0.7604 -0.8379
  137MOL   C11943911   2.170   6.528   4.536  0.1907  0.1668  0.3998
  137MOL   C12043912   2.041   6.511   4.751 -0.3093  0.3866  0.3381
  137MOL   H12143913   2.150   6.062   4.440  2.9859 -0.0892  1.1640
  137MOL   H12243914   2.008   6.066   4.558 -0.1726  1.3312  0.8109
  137MOL   H12343915   2.172   6.290   4.448  0.4944 -0.2507 -0.1843
  137MOL   H12443916   2.140   6.522   4.432 -0.7494  0.5047  0.6440
  137MOL   H12543917   2.188   6.630   4.569  1.1661  0.2568 -0.4018
  137MOL   H12643918   2.265   6.474   4.531  0.2554  0.2990  0.2029
  137MOL   H12743919   2.069   6.462   4.844  0.0112  1.3493  0.7461
  137MOL   H12843920   1.932   6.515   4.762 -0.1943  0.8255  1.3367
  137MOL   H12943921   2.070   6.616   4.753 -1.7777  0.9912 -4.4949
  137MOL   C13043922   1.968   6.267   4.366  0.6564 -0.2584  0.2812
  137MOL   C13143923   2.025   6.223   4.224  0.1629 -0.5829  0.3607
  137MOL   C13243924   2.158   6.302   4.191 -0.0793 -1.1561 -0.3038
  137MOL   O13343925   2.145   6.421   4.161  0.0159 -0.2484  0.0745
  137MOL   N13443926   2.280   6.245   4.197  0.0327 -0.2378 -0.1940
  137MOL   C13543927   2.312   6.099   4.204  0.3139 -0.6927 -0.3738
  137MOL   C13643928   2.407   6.322   4.183  1.1047 -0.1309  0.2559
  137MOL   H13743929   1.883   6.206   4.395  1.0581  0.1131  2.3171
  137MOL   H13843930   1.932   6.370   4.357 -1.6744 -1.2081 -1.7175
  137MOL   H13943931   2.033   6.115   4.226 -0.3764 -0.6187  0.6783
  137MOL   H14043932   2.226   6.032   4.213  1.4256 -2.1718 -0.6344
  137MOL   H14143933   2.363   6.072   4.112 -0.1411  0.2391 -0.9092
  137MOL   H14243934   2.384   6.078   4.283  1.1639  1.1474 -0.6468
  137MOL   H14343935   2.485   6.292   4.254  1.5286  0.0361 -0.1354
  137MOL   H14443936   2.384   6.428   4.196 -0.6479 -0.3075 -1.3167
  137MOL   H14543937   2.434   6.314   4.078 -1.2440 -4.4804 -0.1424
  137MOL   C14643938   1.916   6.261   4.112 -0.5836  0.2641  0.5185
  137MOL   C14743939   1.917   6.174   3.980  0.3704 -0.1646  0.8877
  137MOL   C14843940   1.833   6.052   3.983  0.5459  0.1984  0.4588
  137MOL   O14943941   1.866   5.958   4.049 -0.5279  0.0099  0.2987
  137MOL   N15043942   1.719   6.048   3.903 -0.2822  0.2254 -0.5857
  137MOL   C15143943   1.649   5.924   3.867 -0.4343  0.4975 -0.4813
  137MOL   C15243944   1.653   6.170   3.854  0.0325  0.0689 -0.4993
  137MOL   H15343945   1.813   6.250   4.147 -0.8664  0.8570 -0.1110
  137MOL   H15443946   1.930   6.366   4.089  0.6077  0.1928  0.8698
  137MOL   H15543947   1.885   6.242   3.901 -0.2374  0.9593  2.0735
  137MOL   H15643948   1.686   5.835   3.919 -3.8119 -0.2007  0.8144
  137MOL   H15743949   1.541   5.928   3.866 -0.5095 -0.5487  1.1170
  137MOL   H15843950   1.664   5.902   3.762 -0.7566  1.1554 -0.6700
  137MOL   H15943951   1.718   6.215   3.778  1.9509  0.5871  1.4174
  137MOL   H16043952   1.655   6.243   3.934 -1.3355  0.1623 -0.5420
  137MOL   H16143953   1.552   6.166   3.811  0.1864 -0.6370 -0.8079
  137MOL   C16243954   2.063   6.131   3.941  0.0600  0.7711  0.3911
  137MOL   C16343955   2.082   6.048   3.807  0.1546  0.1041 -0.7605
  137MOL   C16443956   2.222   5.990   3.795 -0.0056  0.1246  0.1695
  137MOL   O16543957   2.311   6.067   3.819 -0.0911 -0.3860  0.1638
  137MOL   N16643958   2.242   5.861   3.774  0.0741  0.6197  0.6573
  137MOL   C16743959   2.150   5.758   3.724 -0.5090 -0.9792  0.2209
  137MOL   C16843960   2.386   5.815   3.778 -0.1255  0.1240 -0.1801
  137MOL   H16943961   2.122   6.223   3.930  0.7603  0.1758 -0.9980
  137MOL   H17043962   2.116   6.079   4.021 -0.5695  0.3862  0.5533
  137MOL   H17143963   2.019   5.960   3.818  1.2622 -0.4438  1.3228
  137MOL   H17243964   2.162   5.672   3.790  1.4481 -0.0057  1.1545
  137MOL   H17343965   2.042   5.776   3.718  0.1019  2.8683 -0.2285
  137MOL   H17443966   2.178   5.731   3.623  0.0216  2.1432 -0.5082
  137MOL   H17543967   2.448   5.836   3.865 -1.7238 -1.2216  1.3350
  137MOL   H17643968   2.438   5.869   3.699  1.4747 -1.3432 -0.1781
  137MOL   H17743969   2.392   5.708   3.756  2.2815  0.1630  0.1842
  137MOL   C17843970   2.029   6.120   3.682  0.4740 -0.6970 -0.0590
  137MOL   C17943971   2.107   6.242   3.627  0.3596  0.3635 -0.0115
  137MOL   C18043972   2.086   6.368   3.718  0.0501  0.0241 -0.1981
  137MOL   O18143973   1.976   6.425   3.714 -0.0190 -0.5285 -0.1606
  137MOL   N18243974   2.190   6.435   3.777  0.2481  0.8705 -0.5119
  137MOL   C18343975   2.171   6.565   3.842  0.3539  0.6818  0.6656
  137MOL   C18443976   2.323   6.390   3.801  0.4487 -0.3128  0.0007
  137MOL   H18543977   2.005   6.051   3.601  1.2131 -2.0667  0.8610
  137MOL   H18643978   1.927   6.156   3.696  1.2043  0.3965  2.8464
  137MOL   H18743979   2.212   6.211   3.624  0.1850 -0.1532 -3.4720
  137MOL   H18843980   2.117   6.567   3.937  1.9399  0.6320  1.5860
  137MOL   H18943981   2.263   6.624   3.847  0.4857  0.4602  0.8823
  137MOL   H19043982   2.102   6.614   3.774  0.1307  0.6482  0.8649
  137MOL   H19143983   2.394   6.468   3.826  0.0067 -0.2486  1.0880
  137MOL   H19243984   2.368   6.329   3.723  1.4966 -0.1421  0.4609
  137MOL   H19343985   2.321   6.321   3.885  1.0456  0.1196  0.3726
  137MOL   C19443986   2.062   6.277   3.479 -0.0276  0.1991 -0.9620
  137MOL   C19543987   2.149   6.388   3.417  0.3294  0.5127  0.3516
  137MOL   C19643988   2.058   6.516   3.392 -0.0516 -0.5490 -0.7211
  137MOL   O19743989   1.946   6.498   3.346 -0.2938 -0.0808 -0.3884
  137MOL   N19843990   2.101   6.644   3.413 -0.0171  0.2720  0.7463
  137MOL   C19943991   2.002   6.745   3.433  0.1412 -0.3463 -0.5997
  137MOL   C20043992   2.236   6.685   3.447  0.6108  0.2294 -0.4867
  137MOL   H20143993   2.048   6.187   3.418  0.9764 -0.2862 -0.5021
  137MOL   H20243994   1.958   6.303   3.495  0.5499  1.8388  0.2171
  137MOL   H20343995   2.220   6.422   3.492  0.1034 -1.1308  1.3553
  137MOL   H20443996   2.023   6.832   3.495 -1.0719 -0.3487 -0.1787
  137MOL   H20543997   1.977   6.788   3.337  0.2477  0.9334 -0.0568
  137MOL   H20643998   1.909   6.706   3.473 -1.2674  0.7773 -2.7122
  137MOL   H20743999   2.267   6.769   3.384 -2.0413  1.4879 -0.1525
  137MOL   H20844000   2.308   6.604   3.437  0.3502  0.0994 -1.2901
  137MOL   H20944001   2.236   6.715   3.552 -0.0337  1.4438 -0.8250
  137MOL   C21044002   2.211   6.351   3.275 -0.5643  0.5805  0.5977
  137MOL   C21144003   2.333   6.255   3.265  0.8464  0.7829 -0.5349
  137MOL   C21244004   2.440   6.276   3.368  0.6859  0.2525  0.0145
  137MOL   O21344005   2.487   6.396   3.376 -0.4697  0.4227  0.2236
  137MOL   N21444006   2.485   6.168   3.443 -0.1597  0.4123 -0.2097
  137MOL   C21544007   2.607   6.177   3.523 -0.6263  0.4177  0.0257
  137MOL   C21644008   2.433   6.034   3.429 -0.1364 -0.9395 -0.5626
  137MOL   H21744009   2.124   6.310   3.224 -0.8011  1.8599 -0.0329
  137MOL   H21844010   2.238   6.441   3.220  0.7902 -1.5210 -2.2538
  137MOL   H21944011   2.284   6.161   3.290  0.6240  0.7541 -1.0696
  137MOL   H22044012   2.603   6.253   3.601  1.8978  1.9500 -1.2433
  137MOL   H22144013   2.639   6.080   3.560 -1.8352  0.5708  1.4731
  137MOL   H22244014   2.683   6.216   3.455 -0.9429  1.1721  0.0984
  137MOL   H22344015   2.504   5.964   3.473 -1.2127 -0.7905  1.5098
  137MOL   H22444016   2.427   6.008   3.323 -1.2369  2.1056 -1.2951
  137MOL   H22544017   2.331   6.026   3.469  0.2100 -2.4194  0.0604
  137MOL   C22644018   2.386   6.239   3.122  0.3359 -0.2379 -0.0011
  137MOL   C22744019   2.452   6.364   3.050 -0.3150  0.3449  0.0307
  137MOL   C22844020   2.345   6.450   2.974  0.2071  0.6161 -0.4959
  137MOL   O22944021   2.284   6.395   2.885 -0.1079 -0.0615 -0.3479
  137MOL   N23044022   2.318   6.575   3.016  0.1160 -0.2033  0.3341
  137MOL   C23144023   2.198   6.648   2.972  0.6993  0.2678 -0.1447
  137MOL   C23244024   2.408   6.662   3.102  0.4447 -0.0469  1.2045
  137MOL   H23344025   2.461   6.161   3.129  0.2412 -0.4442 -1.2281
  137MOL   H23444026   2.310   6.184   3.066  1.4127 -1.5954 -0.1479
  137MOL   H23544027   2.503   6.430   3.120 -1.0160 -2.2273  3.0743
  137MOL   H23644028   2.111   6.582   2.967  0.0164  1.2181 -1.1620
  137MOL   H23744029   2.167   6.735   3.031  2.6808  2.1092 -1.7499
  137MOL   H23844030   2.226   6.685   2.873 -2.1024  4.8264  0.6238
  137MOL   H23944031   2.394   6.630   3.205 -1.0190  0.6532  1.2345
  137MOL   H24044032   2.385   6.769   3.102  0.1950 -0.1009  1.8592
  137MOL   H24144033   2.513   6.662   3.070  0.4221  2.9428  0.9253
  137MOL   C24244034   2.563   6.318   2.956 -0.6437 -0.1218  1.2611
  137MOL   C24344035   2.705   6.313   3.026  0.5253  0.0460  0.2618
  137MOL   C24444036   2.759   6.453   3.050  0.5344 -0.8472 -0.0027
  137MOL   O24544037   2.748   6.533   2.954 -0.1124 -0.0527  0.0614
  137MOL   N24644038   2.806   6.487   3.170  0.1060 -0.3847 -0.4123
  137MOL   C24744039   2.808   6.627   3.210  0.4263 -0.1762  0.5822
  137MOL   C24844040   2.871   6.402   3.270  0.5070 -1.0503  0.0794
  137MOL   H24944041   2.553   6.220   2.911  1.7088  1.2782 -2.5208
  137MOL   H25044042   2.556   6.378   2.865  2.1231 -1.0683  0.3985
  137MOL   H25144043   2.692   6.266   3.123 -0.2800  1.1588  0.6953
  137MOL   H25244044   2.718   6.656   3.265  1.0496 -0.9929  2.0591
  137MOL   H25344045   2.897   6.645   3.270 -0.0493  1.0566  0.9304
  137MOL   H25444046   2.815   6.697   3.127  3.2752  0.5788  1.4192
  137MOL   H25544047   2.831   6.436   3.366  1.3848  0.2376  0.0017
  137MOL   H25644048   2.979   6.411   3.268  0.2386  2.6847 -1.9124
  137MOL   H25744049   2.852   6.295   3.279 -0.3386 -0.8679  0.5231
  137MOL   C25844050   2.800   6.217   2.946  0.5372 -0.0240 -0.4342
  137MOL   C25944051   2.951   6.245   2.945  0.2324  0.1164 -0.2343
  137MOL   C26044052   3.004   6.339   2.831 -0.4416  0.3565 -0.4244
  137MOL   O26144053   2.956   6.321   2.719 -0.7675  0.0996 -0.1917
  137MOL   N26244054   3.096   6.431   2.857  1.1947  0.1170 -0.0018
  137MOL   C26344055   3.159   6.460   2.983 -0.2371  0.5784 -0.4487
  137MOL   C26444056   3.124   6.535   2.757 -0.4206 -0.4411  0.1802
  137MOL   H26544057   2.774   6.127   3.001  1.5453  0.7413  1.3536
  137MOL   H26644058   2.772   6.212   2.841 -0.2738 -2.1183 -0.1398
  137MOL   H26744059   2.959   6.295   3.042 -0.6416  2.3192 -1.2561
  137MOL   H26844060   3.266   6.479   2.977 -0.4900  2.4264  0.7033
  137MOL   H26944061   3.116   6.554   3.016  0.7862  0.5289  1.1108
  137MOL   H27044062   3.152   6.374   3.049  0.2598 -1.2880 -2.7726
  137MOL   H27144063   3.149   6.500   2.657 -1.3178  0.0485 -0.2273
  137MOL   H27244064   3.214   6.590   2.783  0.1323 -0.7174 -1.1223
  137MOL   H27344065   3.043   6.609   2.758 -1.2452 -1.3429  1.5186
  137MOL   C27444066   3.038   6.118   2.934 -0.3930 -0.3977 -0.8278
  137MOL   C27544067   3.022   6.007   3.049 -0.2754  0.1437  0.0482
  137MOL   C27644068   3.031   6.070   3.191  0.2215 -0.3865  0.1951
  137MOL   O27744069   3.116   6.157   3.210 -0.1160 -0.3100  1.1554
  137MOL   N27844070   2.941   6.030   3.285  0.1053 -0.4833 -0.1097
  137MOL   C27944071   2.970   6.062   3.424  0.0610  0.2560  0.6578
  137MOL   C28044072   2.854   5.918   3.269  0.0671  0.1004  0.2191
  137MOL   H28144073   3.030   6.075   2.834  1.4509 -0.7600 -0.8394
  137MOL   H28244074   3.140   6.155   2.943 -0.3664 -0.7574  0.4651
  137MOL   H28344075   2.925   5.964   3.028 -0.4292 -0.0849  1.1816
  137MOL   H28444076   2.903   6.036   3.505 -2.2043  1.0371 -0.9269
  137MOL   H28544077   3.062   6.008   3.447 -0.8375 -1.6165 -0.0240
  137MOL   H28644078   2.996   6.167   3.437 -0.3752  0.5398 -0.6881
  137MOL   H28744079   2.782   5.941   3.190  1.6229  0.4053 -1.1261
  137MOL   H28844080   2.793   5.897   3.357  0.9107  1.0546  1.0358
  137MOL   H28944081   2.919   5.832   3.258 -0.3723 -0.2280  0.1630
  137MOL   C29044082   3.134   5.895   3.038 -0.6152  0.9554  0.4265
  137MOL   C29144083   3.281   5.930   3.090 -0.2434 -0.2993 -0.1047
  137MOL   C29244084   3.389   5.854   3.010  0.1738 -0.7097  0.2976
  137MOL   O29344085   3.368   5.728   2.994 -0.3583 -0.3300  0.2752
  137MOL   N29444086   3.491   5.920   2.960  0.2967 -0.1036  0.1717
  137MOL   C29544087   3.516   6.065   2.969  0.7701  0.1058 -0.2861
  137MOL   C29644088   3.609   5.848   2.932 -0.1424  0.6468  0.3975
  137MOL   H29744089   3.093   5.809   3.092 -0.1255  0.9001  0.7110
  137MOL   H29844090   3.135   5.867   2.933 -0.6217  3.8035 -0.3608
  137MOL   H29944091   3.285   6.038   3.078  3.2227 -0.0746  2.2300
  137MOL   H30044092   3.591   6.097   2.896  1.7335  0.4576  0.8364
  137MOL   H30144093   3.422   6.111   2.941  0.5248  0.3337  0.9220
  137MOL   H30244094   3.551   6.081   3.071  2.3904  1.5618 -1.0480
  137MOL   H30344095   3.671   5.907   2.866  2.4094 -1.2066  1.0426
  137MOL   H30444096   3.596   5.749   2.887 -1.7632  1.5573 -1.1671
  137MOL   H30544097   3.651   5.818   3.028  1.7886  0.4152 -0.4996
  137MOL   C30644098   3.298   5.890   3.240  0.1479 -0.1774  0.3579
  137MOL   C30744099   3.443   5.906   3.298 -0.2034  0.3021  0.2248
  137MOL   C30844100   3.454   5.883   3.445 -0.0431 -0.5000  0.5998
  137MOL   O30944101   3.348   5.861   3.504 -0.0925  0.2664 -0.3251
  137MOL   N31044102   3.574   5.890   3.510 -0.4453  0.2024 -0.4321
  137MOL   C31144103   3.692   5.931   3.433 -0.4587  0.6509 -0.2715
  137MOL   C31244104   3.599   5.826   3.640  0.0645 -0.6368  0.2841
  137MOL   H31344105   3.240   5.956   3.304  0.8691  0.5419  0.2812
  137MOL   H31444106   3.251   5.793   3.258 -0.7681 -0.1644 -1.8845
  137MOL   H31544107   3.512   5.836   3.252  1.7548 -0.1227  3.6740
  137MOL   H31644108   3.682   5.995   3.345 -0.4056  2.9205  1.3233
  137MOL   H31744109   3.751   5.989   3.504  0.9642 -0.2377 -0.7030
  137MOL   H31844110   3.756   5.852   3.396 -2.2327 -0.4283 -1.1039
  137MOL   H31944111   3.696   5.860   3.677 -0.0923  2.3092 -1.7905
  137MOL   H32044112   3.596   5.718   3.629  2.0113 -1.0504  3.2489
  137MOL   H32144113   3.526   5.862   3.713  1.5251  0.9110  1.0242
  137MOL   H32244114   3.471   6.008   3.270 -0.3457  0.8696  2.0596
  138MOL     C144115   4.248   4.264   5.922 -0.3148  0.1892  0.3929
  138MOL     C244116   4.359   4.189   5.834  0.2856  0.1299  0.2400
  138MOL     C344117   4.439   4.303   5.766  0.3509 -0.1322  0.2999
  138MOL     O444118   4.385   4.368   5.679  0.0984  0.5598 -0.0267
  138MOL     N544119   4.568   4.315   5.804 -0.1182  0.2179 -0.2649
  138MOL     C644120   4.622   4.256   5.929  0.0742  0.2951 -0.5414
  138MOL     C744121   4.648   4.427   5.740 -0.0767 -0.2310  0.2171
  138MOL     H844122   4.174   4.325   5.870  0.4144 -0.7647 -1.8505
  138MOL     H944123   4.282   4.325   6.006 -0.4633 -0.7316  1.1376
  138MOL    H1044124   4.412   4.123   5.903 -1.8366 -0.8333  0.9761
  138MOL    H1144125   4.724   4.292   5.937 -0.4998  1.7416  0.5064
  138MOL    H1244126   4.567   4.301   6.012 -0.5778  1.8390 -1.7838
  138MOL    H1344127   4.614   4.149   5.909 -2.8819  0.4282 -0.2750
  138MOL    H1444128   4.616   4.434   5.636  0.5124  1.2024  0.1190
  138MOL    H1544129   4.753   4.398   5.746 -0.2644 -0.8160  0.7263
  138MOL    H1644130   4.640   4.521   5.796 -0.2432 -0.6792  0.9578
  138MOL    H1744131   4.200   4.181   5.974  2.4783 -2.2447 -0.7971
  138MOL    C1844132   4.297   4.102   5.720 -0.0097  0.1886  0.3884
  138MOL    C1944133   4.216   3.980   5.760 -0.1327 -0.6785  0.1593
  138MOL    C2044134   4.293   3.866   5.841  0.1748  0.4629 -0.3997
  138MOL    O2144135   4.408   3.846   5.813  0.0599  0.2365 -0.0656
  138MOL    N2244136   4.237   3.804   5.946  0.8850 -0.4775  0.3014
  138MOL    C2344137   4.323   3.728   6.043  0.0212  0.7703 -0.2100
  138MOL    C2444138   4.092   3.829   5.985 -0.5154  0.0487 -0.1157
  138MOL    H2544139   4.241   4.160   5.646  0.5194 -0.6010 -0.6411
  138MOL    H2644140   4.384   4.066   5.665 -1.9564 -2.4503 -1.0857
  138MOL    H2744141   4.140   4.022   5.825  0.5608  1.1084 -0.1514
  138MOL    H2844142   4.280   3.721   6.143 -0.0272 -1.3341 -0.3598
  138MOL    H2944143   4.348   3.629   6.006 -1.7583  0.4708 -0.6783
  138MOL    H3044144   4.414   3.785   6.060 -0.2350  0.5321  2.1414
  138MOL    H3144145   4.025   3.814   5.901 -2.2571  1.2959  1.0150
  138MOL    H3244146   4.080   3.931   6.021  0.0567  0.2763 -0.5642
  138MOL    H3344147   4.055   3.756   6.057 -1.9950  1.2931  0.3897
  138MOL    C3444148   4.149   3.921   5.628  0.3211  0.6669 -0.0761
  138MOL    C3544149   4.241   3.842   5.533  0.4326 -0.0694 -0.3361
  138MOL    C3644150   4.209   3.876   5.384 -0.2087  0.3383  0.7421
  138MOL    O3744151   4.095   3.859   5.344 -0.0930  0.5125  0.8427
  138MOL    N3844152   4.311   3.937   5.309  0.4274  0.1095  0.9091
  138MOL    C3944153   4.275   4.006   5.187  0.1449  0.1675 -0.1316
  138MOL    C4044154   4.445   3.956   5.347 -0.2948 -0.0456 -0.1915
  138MOL    H4144155   4.060   3.865   5.655  0.6926 -0.0867 -0.4104
  138MOL    H4244156   4.121   4.014   5.578 -1.4037  1.1601  1.7128
  138MOL    H4344157   4.344   3.863   5.561  0.0322  3.2190 -1.1759
  138MOL    H4444158   4.356   4.009   5.115 -0.1222 -0.0285 -0.4386
  138MOL    H4544159   4.192   3.965   5.130  0.8037  0.4388 -1.2893
  138MOL    H4644160   4.235   4.106   5.204  0.5658  0.0728  1.5138
  138MOL    H4744161   4.451   4.011   5.440  1.0824  1.6182 -1.2243
  138MOL    H4844162   4.504   4.025   5.286 -0.8775  1.5448  1.0246
  138MOL    H4944163   4.472   3.852   5.366  1.6263  0.5694  0.4986
  138MOL    C5044164   4.212   3.689   5.557 -0.2744  0.1623  0.0796
  138MOL    C5144165   4.303   3.589   5.474  0.4814 -0.3090  0.7291
  138MOL    C5244166   4.243   3.449   5.473 -0.1768  0.5687 -0.1846
  138MOL    O5344167   4.235   3.387   5.578  0.2291  0.6841 -0.4097
  138MOL    N5444168   4.196   3.396   5.356  0.5033  0.0913 -0.1453
  138MOL    C5544169   4.168   3.253   5.351 -0.6554  0.6088 -0.7931
  138MOL    C5644170   4.177   3.474   5.233  0.2761  0.1335  0.1330
  138MOL    H5744171   4.222   3.674   5.665 -3.0988  1.1181  0.5064
  138MOL    H5844172   4.106   3.673   5.539 -0.3891 -0.8862  1.6108
  138MOL    H5944173   4.323   3.622   5.372  0.5342 -1.6647  0.2852
  138MOL    H6044174   4.138   3.227   5.453 -0.9594  2.3820 -0.4218
  138MOL    H6144175   4.091   3.227   5.279 -1.8588 -1.1401  1.0487
  138MOL    H6244176   4.265   3.206   5.333 -1.9451 -2.3151 -0.3071
  138MOL    H6344177   4.108   3.556   5.254 -0.0237  0.6500 -2.6152
  138MOL    H6444178   4.114   3.414   5.167  0.8622 -0.1053 -0.2087
  138MOL    H6544179   4.264   3.512   5.178  1.1176 -1.6896  0.1775
  138MOL    C6644180   4.448   3.586   5.531 -0.4481  0.0500 -0.2026
  138MOL    C6744181   4.562   3.512   5.443 -0.0710 -0.1095 -0.4528
  138MOL    C6844182   4.552   3.356   5.459 -0.1203  0.2491 -0.3547
  138MOL    O6944183   4.556   3.317   5.572 -0.3898  0.1986 -0.1204
  138MOL    N7044184   4.545   3.265   5.355 -0.5743 -0.1878  0.0253
  138MOL    C7144185   4.532   3.293   5.216 -0.2918 -0.0097 -0.5510
  138MOL    C7244186   4.561   3.125   5.386 -0.3401 -0.2499  0.2026
  138MOL    H7344187   4.469   3.693   5.532 -3.9193  0.7831  1.9174
  138MOL    H7444188   4.456   3.557   5.636  1.4446  2.2423  0.3118
  138MOL    H7544189   4.544   3.541   5.339 -1.8677 -0.8189 -0.3615
  138MOL    H7644190   4.474   3.381   5.192  1.4216  1.4196  0.4284
  138MOL    H7744191   4.628   3.304   5.165 -1.8277  0.4251 -3.4921
  138MOL    H7844192   4.481   3.208   5.169 -0.1080 -1.0720  1.1333
  138MOL    H7944193   4.642   3.097   5.453 -1.4920 -1.4768  1.1201
  138MOL    H8044194   4.564   3.055   5.302 -1.0989  0.7656 -0.6897
  138MOL    H8144195   4.472   3.094   5.442 -0.5520 -0.6956 -0.3768
  138MOL    C8244196   4.709   3.550   5.482  1.1380 -0.1859 -0.4437
  138MOL    C8344197   4.799   3.591   5.366  0.1069 -0.1590  0.7058
  138MOL    C8444198   4.825   3.475   5.262 -0.0433 -0.3422  0.7484
  138MOL    O8544199   4.845   3.362   5.305  0.0146 -1.0166  0.2983
  138MOL    N8644200   4.833   3.502   5.130  0.0710  0.5892 -0.1162
  138MOL    C8744201   4.877   3.401   5.039 -0.2769  1.4818  0.3492
  138MOL    C8844202   4.799   3.632   5.068  0.4506  0.3806 -0.3672
  138MOL    H8944203   4.703   3.631   5.554 -2.4702  0.0926 -0.9892
  138MOL    H9044204   4.752   3.470   5.544  1.0319  0.1832  0.1112
  138MOL    H9144205   4.753   3.678   5.320  2.7584  0.1285 -1.4913
  138MOL    H9244206   4.961   3.352   5.087 -0.6902 -1.2863 -1.6160
  138MOL    H9344207   4.800   3.332   5.003  1.4087 -0.8739  1.1634
  138MOL    H9444208   4.925   3.452   4.955  1.3233 -0.2246  0.1972
  138MOL    H9544209   4.830   3.640   4.964  0.3470  0.4278 -0.3947
  138MOL    H9644210   4.860   3.710   5.114  0.4202  0.4553 -0.4542
  138MOL    H9744211   4.695   3.662   5.081  0.0770 -1.5109  1.1516
  138MOL    C9844212   4.939   3.637   5.431 -0.9475  0.6049 -0.5206
  138MOL    C9944213   4.961   3.722   5.562  0.8479 -1.0546  0.6763
  138MOL   C10044214   4.881   3.855   5.543 -0.5697  0.0214 -0.1226
  138MOL   O10144215   4.912   3.919   5.438 -0.6831  0.9068  0.1464
  138MOL   N10244216   4.799   3.898   5.639  0.1237  0.0103  0.4892
  138MOL   C10344217   4.764   3.831   5.764  0.5836 -0.3511  0.3519
  138MOL   C10444218   4.743   4.038   5.634  0.4680 -0.0618 -0.4493
  138MOL   H10544219   4.976   3.538   5.456 -0.5756  0.9963  0.4696
  138MOL   H10644220   4.990   3.682   5.346 -0.6322  0.1763 -0.5577
  138MOL   H10744221   4.935   3.670   5.654 -0.7934 -0.0379  0.8109
  138MOL   H10844222   4.717   3.890   5.842  0.9323 -1.0529  1.1133
  138MOL   H10944223   4.683   3.763   5.740  0.3482 -0.3363  1.0732
  138MOL   H11044224   4.846   3.781   5.816  0.5971 -0.4881  0.1977
  138MOL   H11144225   4.784   4.085   5.724  0.5213 -0.4428 -0.2708
  138MOL   H11244226   4.636   4.034   5.657  0.2360 -1.3564 -1.7350
  138MOL   H11344227   4.733   4.091   5.540 -1.5494  0.6598  0.1298
  138MOL   C11444228   5.114   3.746   5.575 -0.9393 -0.8501 -0.2647
  138MOL   C11544229   5.189   3.783   5.711  0.4497  0.2199  0.4820
  138MOL   C11644230   5.144   3.687   5.817  0.2345  0.0080  0.4096
  138MOL   O11744231   5.049   3.719   5.888  0.3157  0.4245 -0.5670
  138MOL   N11844232   5.204   3.562   5.828  0.0420  0.3058 -0.3828
  138MOL   C11944233   5.317   3.512   5.749  1.0638  0.4548  0.7050
  138MOL   C12044234   5.136   3.463   5.915 -0.2784 -0.2630  0.4254
  138MOL   H12144235   5.153   3.646   5.554  3.4067  0.7564 -0.2630
  138MOL   H12244236   5.164   3.806   5.500  0.6018 -1.3195  0.3755
  138MOL   H12344237   5.294   3.759   5.698 -0.0921 -1.1676 -1.6022
  138MOL   H12444238   5.397   3.585   5.748  1.0065  0.5430  1.6164
  138MOL   H12544239   5.352   3.422   5.799 -1.7388 -1.4399 -0.6221
  138MOL   H12644240   5.293   3.468   5.652 -1.2690 -0.5145  1.6566
  138MOL   H12744241   5.126   3.497   6.018  1.9597  2.5125 -0.1934
  138MOL   H12844242   5.164   3.359   5.901 -1.2488 -0.4235 -0.3550
  138MOL   H12944243   5.035   3.460   5.876 -0.1403  0.9127 -0.0545
  138MOL   C13044244   5.178   3.934   5.743 -0.1724  0.0607  0.3140
  138MOL   C13144245   5.240   4.037   5.647 -0.1359 -0.2165 -0.0758
  138MOL   C13244246   5.396   4.028   5.650 -1.0060  0.4309 -0.0828
  138MOL   O13344247   5.457   4.059   5.752  0.1463  0.6875  0.0764
  138MOL   N13444248   5.464   3.997   5.535 -0.0430  0.5819 -0.3857
  138MOL   C13544249   5.411   3.945   5.408  0.0766 -0.5380  0.0769
  138MOL   C13644250   5.606   4.014   5.546  0.0773 -0.2354  0.4636
  138MOL   H13744251   5.074   3.952   5.770  0.2523 -0.8027  2.6600
  138MOL   H13844252   5.230   3.947   5.838 -1.3050  2.8664  0.5774
  138MOL   H13944253   5.208   4.013   5.546  0.0129  0.9514 -0.4147
  138MOL   H14044254   5.394   3.838   5.422 -2.1040 -0.4318 -1.5284
  138MOL   H14144255   5.325   4.001   5.373  0.7264  1.9998  2.3751
  138MOL   H14244256   5.491   3.952   5.335  0.0247 -0.5241  0.0228
  138MOL   H14344257   5.653   4.009   5.644  3.2181 -1.5775 -1.0236
  138MOL   H14444258   5.640   4.105   5.497  0.3467 -0.3877  0.3616
  138MOL   H14544259   5.650   3.943   5.475  3.0474  3.1817 -1.2619
  138MOL   C14644260   5.180   4.182   5.654  1.0375 -1.0263 -0.0916
  138MOL   C14744261   5.200   4.259   5.791 -0.5473  0.0480 -0.2131
  138MOL   C14844262   5.098   4.208   5.901  0.1172  0.5314 -0.1008
  138MOL   O14944263   4.983   4.180   5.865 -0.3954 -0.0004  0.5492
  138MOL   N15044264   5.132   4.177   6.028 -0.2393 -0.0967 -0.1096
  138MOL   C15144265   5.036   4.119   6.119  0.3052  0.0633 -0.5788
  138MOL   C15244266   5.262   4.205   6.088 -0.6595  0.4535 -0.9782
  138MOL   H15344267   5.227   4.244   5.577 -1.5059  0.7219 -0.2810
  138MOL   H15444268   5.072   4.177   5.644  0.8092 -0.1367  1.7350
  138MOL   H15544269   5.303   4.233   5.816 -0.3036 -0.9914 -2.2340
  138MOL   H15644270   5.003   4.034   6.059 -1.7542  1.2405 -1.1533
  138MOL   H15744271   5.089   4.077   6.204 -0.1968  0.0288 -0.2825
  138MOL   H15844272   4.956   4.188   6.145  0.1603 -0.4299  0.3078
  138MOL   H15944273   5.260   4.312   6.108 -0.8029  0.0769  1.1351
  138MOL   H16044274   5.342   4.177   6.020 -0.1231  0.3214 -0.2890
  138MOL   H16144275   5.293   4.154   6.179 -1.3711  1.5869 -0.0928
  138MOL   C16244276   5.203   4.417   5.775  0.2771  0.4391  0.0091
  138MOL   C16344277   5.313   4.478   5.685  0.3639 -0.1558  0.0734
  138MOL   C16444278   5.448   4.470   5.760  0.3112  0.5393 -0.5938
  138MOL   O16544279   5.455   4.471   5.885 -0.2228 -0.2243  0.0649
  138MOL   N16644280   5.561   4.445   5.694  0.5418  0.0919 -0.2099
  138MOL   C16744281   5.579   4.480   5.550  0.1452 -0.6274  0.2513
  138MOL   C16844282   5.678   4.382   5.755  0.0319  0.7058  0.4755
  138MOL   H16944283   5.102   4.440   5.741  0.2993  1.8350  0.8398
  138MOL   H17044284   5.211   4.462   5.874 -0.5274  1.3211 -0.3244
  138MOL   H17144285   5.321   4.416   5.596 -0.2131  0.7674 -0.6183
  138MOL   H17244286   5.486   4.506   5.500  1.2620  1.3195 -0.8369
  138MOL   H17344287   5.644   4.567   5.542 -0.1603 -0.3439  0.7967
  138MOL   H17444288   5.626   4.404   5.488 -2.0554  0.5577 -3.0118
  138MOL   H17544289   5.660   4.376   5.863 -2.1974  2.0649  0.2043
  138MOL   H17644290   5.766   4.446   5.745  0.5862 -0.4655 -2.5408
  138MOL   H17744291   5.689   4.283   5.712  0.3312  0.9566 -0.0264
  138MOL   C17844292   5.278   4.628   5.653  0.4273 -0.2703  0.3289
  138MOL   C17944293   5.145   4.645   5.572  0.6318 -0.5922 -0.5816
  138MOL   C18044294   5.145   4.561   5.441  0.7306  0.4798 -0.1618
  138MOL   O18144295   5.249   4.566   5.376  0.1087 -0.3100  0.1027
  138MOL   N18244296   5.037   4.489   5.390  0.0732 -0.9012  0.3668
  138MOL   C18344297   4.904   4.477   5.455  0.3021 -0.0471  0.5459
  138MOL   C18444298   5.067   4.390   5.288  0.2821 -0.6096  0.7295
  138MOL   H18544299   5.275   4.691   5.742  0.2309 -1.7383  1.3830
  138MOL   H18644300   5.353   4.671   5.586 -2.0509  0.6823 -1.8862
  138MOL   H18744301   5.068   4.593   5.628  0.7165  0.5719  0.6330
  138MOL   H18844302   4.845   4.391   5.424  0.0428 -0.2019  1.4773
  138MOL   H18944303   4.908   4.474   5.564  0.6928 -1.1320  0.5074
  138MOL   H19044304   4.860   4.570   5.417  2.1230  0.1049 -1.3162
  138MOL   H19144305   4.982   4.323   5.274 -1.1461  1.4797 -0.9043
  138MOL   H19244306   5.148   4.324   5.316 -0.1324 -2.1204 -1.5138
  138MOL   H19344307   5.080   4.427   5.186  1.3431 -0.9989  0.7245
  138MOL   C19444308   5.093   4.790   5.537  0.3938 -0.0112  0.1513
  138MOL   C19544309   5.098   4.900   5.645  0.0269  0.7337 -0.5107
  138MOL   C19644310   5.029   4.837   5.779  0.4542 -0.7168  0.3024
  138MOL   O19744311   5.097   4.830   5.879  0.6681 -0.6859  0.1331
  138MOL   N19844312   4.907   4.778   5.782 -0.0189 -0.1516  0.5752
  138MOL   C19944313   4.805   4.768   5.680  0.7085 -0.4639  0.4560
  138MOL   C20044314   4.866   4.709   5.905 -0.0416  0.0448 -0.1451
  138MOL   H20144315   5.152   4.824   5.452 -0.4424  1.9392  0.3168
  138MOL   H20244316   4.994   4.787   5.492 -0.7691  1.5622  2.4823
  138MOL   H20344317   5.203   4.921   5.661  0.7426 -3.3761  0.7363
  138MOL   H20444318   4.775   4.666   5.654  1.0726 -0.3422 -0.4652
  138MOL   H20544319   4.716   4.821   5.713  0.8809 -0.7412  1.3649
  138MOL   H20644320   4.824   4.822   5.587  1.0166  1.3907  1.5903
  138MOL   H20744321   4.773   4.654   5.890 -0.4134  0.7714 -0.5341
  138MOL   H20844322   4.848   4.788   5.978  0.6675  0.6994 -0.6724
  138MOL   H20944323   4.939   4.642   5.952  0.2846  1.2989  1.2005
  138MOL   C21044324   5.034   5.033   5.604 -0.5094 -0.3526  1.1686
  138MOL   C21144325   5.098   5.156   5.676 -0.5575  1.0993  1.1158
  138MOL   C21244326   5.087   5.170   5.838  0.5022  0.4070 -0.1975
  138MOL   O21344327   4.977   5.198   5.882 -0.1894  0.2317  0.3629
  138MOL   N21444328   5.193   5.147   5.924  0.4844 -0.2648 -0.0381
  138MOL   C21544329   5.164   5.119   6.060  0.1786 -0.2445 -0.1869
  138MOL   C21644330   5.327   5.116   5.879 -0.9412  0.2983  0.0519
  138MOL   H21744331   5.054   5.042   5.497  0.7764 -0.5768  1.3821
  138MOL   H21844332   4.925   5.027   5.598 -0.4684 -2.0879  2.0043
  138MOL   H21944333   5.203   5.145   5.647 -0.4176 -0.8045  2.2649
  138MOL   H22044334   5.068   5.072   6.081  0.0918  1.0430  2.5886
  138MOL   H22144335   5.233   5.048   6.106 -0.3713 -0.9993 -0.5219
  138MOL   H22244336   5.154   5.209   6.122 -0.2051 -1.4153  1.4972
  138MOL   H22344337   5.330   5.040   5.800 -0.4270  0.5922 -0.2141
  138MOL   H22444338   5.379   5.069   5.963 -0.5913 -1.7719 -1.2785
  138MOL   H22544339   5.390   5.201   5.852  1.2555 -0.3015  3.0836
  138MOL   C22644340   5.041   5.284   5.614  0.0333  0.1018 -0.2592
  138MOL   C22744341   5.097   5.419   5.670 -0.1252 -0.7585  0.1296
  138MOL   C22844342   4.987   5.529   5.646 -0.3515  0.1402 -0.1272
  138MOL   O22944343   4.964   5.562   5.528 -0.2407  0.4032 -0.3859
  138MOL   N23044344   4.926   5.587   5.754  0.3880 -0.6676  0.7323
  138MOL   C23144345   4.967   5.566   5.888 -0.2242 -0.1249 -0.1853
  138MOL   C23244346   4.838   5.703   5.736  0.8359  0.3313  0.1113
  138MOL   H23344347   5.057   5.285   5.506  0.9386 -1.9161 -0.1761
  138MOL   H23444348   4.937   5.293   5.646  0.3382  0.7005  0.5857
  138MOL   H23544349   5.133   5.415   5.773  1.1254 -0.3088 -0.2835
  138MOL   H23644350   5.061   5.620   5.901 -0.7413  0.4987  1.1252
  138MOL   H23744351   4.903   5.600   5.969 -2.1522 -2.3448 -0.7318
  138MOL   H23844352   4.966   5.458   5.899 -0.9027 -0.2212 -1.1453
  138MOL   H23944353   4.891   5.775   5.799 -0.4472 -0.6808  2.4370
  138MOL   H24044354   4.743   5.688   5.788 -0.0250 -0.9848 -1.7910
  138MOL   H24144355   4.833   5.735   5.632 -1.8857 -2.7213 -0.7877
  138MOL   C24244356   5.227   5.449   5.591  0.7567  0.1470 -0.3070
  138MOL   C24344357   5.328   5.555   5.633  0.2702 -0.2438 -0.7231
  138MOL   C24444358   5.408   5.511   5.757  0.0241 -0.0898  0.3326
  138MOL   O24544359   5.339   5.489   5.859  0.1846  0.4285  0.6626
  138MOL   N24644360   5.537   5.476   5.748  0.3972 -0.3325  0.1432
  138MOL   C24744361   5.616   5.458   5.868 -0.1892  0.1017  0.4364
  138MOL   C24844362   5.623   5.475   5.624 -0.3503 -0.5282 -0.3397
  138MOL   H24944363   5.286   5.359   5.575 -0.7951 -0.7559 -1.0477
  138MOL   H25044364   5.199   5.471   5.488 -1.0895  1.1917  0.3956
  138MOL   H25144365   5.392   5.564   5.545  0.5842 -0.1770 -0.4869
  138MOL   H25244366   5.693   5.385   5.845 -0.7289  0.4072 -2.4550
  138MOL   H25344367   5.667   5.550   5.897 -0.3082 -0.8127  3.7950
  138MOL   H25444368   5.552   5.423   5.949 -0.7717 -1.3971 -0.6587
  138MOL   H25544369   5.728   5.456   5.645 -0.1718  1.7853  0.9824
  138MOL   H25644370   5.617   5.573   5.577  1.3934  0.6957  1.8496
  138MOL   H25744371   5.579   5.403   5.555 -0.6215  0.8124 -1.5818
  138MOL   C25844372   5.267   5.696   5.655 -0.5390 -0.5084 -0.6079
  138MOL   C25944373   5.362   5.814   5.617 -0.5486 -0.4553  0.5764
  138MOL   C26044374   5.335   5.937   5.707 -0.8921  0.8469 -0.5653
  138MOL   O26144375   5.264   6.024   5.661 -0.1338 -0.5358 -0.3932
  138MOL   N26244376   5.398   5.953   5.826 -0.0582 -0.1554  0.2094
  138MOL   C26344377   5.385   6.077   5.896 -0.2406 -0.4212 -0.7017
  138MOL   C26444378   5.464   5.845   5.901 -0.2673  0.0022  0.1254
  138MOL   H26544379   5.177   5.700   5.595 -2.4656  1.5645  2.2851
  138MOL   H26644380   5.232   5.715   5.757  1.2512  1.1574 -0.2777
  138MOL   H26744381   5.465   5.788   5.638 -0.3100 -0.1364 -0.1781
  138MOL   H26844382   5.454   6.091   5.979  2.8903 -2.5735 -2.8320
  138MOL   H26944383   5.407   6.162   5.831 -3.2223 -0.0549 -1.3257
  138MOL   H27044384   5.283   6.097   5.931 -0.0652 -1.6105  0.4986
  138MOL   H27144385   5.414   5.749   5.907  0.5213 -0.5117 -1.2050
  138MOL   H27244386   5.496   5.883   5.998  0.8049 -1.5296  0.3868
  138MOL   H27344387   5.562   5.831   5.854  0.1709  1.6109  0.5141
  138MOL   C27444388   5.351   5.848   5.456  0.0101  0.1069  0.2623
  138MOL   C27544389   5.467   5.934   5.402 -0.1421 -0.3207  0.0447
  138MOL   C27644390   5.422   6.004   5.272  0.6986  0.5613 -0.6975
  138MOL   O27744391   5.368   5.931   5.184  0.2302  0.3049  0.3976
  138MOL   N27844392   5.438   6.134   5.252 -0.1909  0.2581 -0.3462
  138MOL   C27944393   5.466   6.241   5.354  0.3888  1.0447  0.1327
  138MOL   C28044394   5.394   6.190   5.128  0.5977  0.1277  0.3673
  138MOL   H28144395   5.325   5.759   5.399  1.4890  1.1998 -2.2024
  138MOL   H28244396   5.262   5.908   5.441 -0.6328 -1.2411 -1.4688
  138MOL   H28344397   5.492   6.007   5.478  2.4703 -0.6448 -0.4625
  138MOL   H28444398   5.450   6.205   5.456  1.4857  0.6359  0.1674
  138MOL   H28544399   5.565   6.285   5.349  0.6495  0.5703  0.9869
  138MOL   H28644400   5.386   6.314   5.345  0.1894  0.6504 -1.4586
  138MOL   H28744401   5.396   6.128   5.039 -2.9534  1.0797 -0.4728
  138MOL   H28844402   5.455   6.278   5.109 -1.4530  1.4198 -0.4630
  138MOL   H28944403   5.290   6.224   5.132  0.8828  1.2048 -1.1724
  138MOL   C29044404   5.596   5.859   5.373 -0.3509 -0.3623  0.1289
  138MOL   C29144405   5.718   5.897   5.469 -0.6472 -0.5883 -0.2166
  138MOL   C29244406   5.774   6.037   5.452 -0.1097  0.6493  0.0758
  138MOL   O29344407   5.828   6.064   5.346 -0.3631 -0.4725 -0.9099
  138MOL   N29444408   5.779   6.132   5.541  0.0275 -0.6608 -0.3964
  138MOL   C29544409   5.702   6.132   5.676 -1.0460 -0.2802  0.1273
  138MOL   C29644410   5.847   6.261   5.524  0.3478 -0.8913 -0.1215
  138MOL   H29744411   5.572   5.753   5.388 -0.3109 -0.4972 -0.7022
  138MOL   H29844412   5.631   5.882   5.273 -0.2297 -1.5719 -0.1225
  138MOL   H29944413   5.682   5.892   5.571 -1.6764  1.5544 -0.4586
  138MOL   H30044414   5.604   6.178   5.660 -0.5280  0.8846  0.2304
  138MOL   H30144415   5.671   6.038   5.722 -0.7477  0.4319  1.8246
  138MOL   H30244416   5.731   6.197   5.758 -0.7623  0.5189 -0.5967
  138MOL   H30344417   5.874   6.282   5.421  1.7764 -2.6744 -0.1428
  138MOL   H30444418   5.935   6.261   5.589 -0.1949 -0.4273  0.6358
  138MOL   H30544419   5.783   6.344   5.555 -0.8002 -1.1559 -1.7172
  138MOL   C30644420   5.826   5.794   5.444  0.5623  0.8421 -0.1410
  138MOL   C30744421   5.952   5.790   5.532  0.0374  0.1444 -0.8676
  138MOL   C30844422   5.925   5.794   5.686  0.1693 -0.2665  0.4953
  138MOL   O30944423   5.851   5.706   5.733  0.5194 -0.2560  0.7320
  138MOL   N31044424   5.973   5.897   5.764  0.1684  0.1046  0.2012
  138MOL   C31144425   5.916   5.912   5.896 -0.2495  0.8829 -1.2493
  138MOL   C31244426   6.079   5.986   5.716 -0.4362  0.2381 -0.5172
  138MOL   H31344427   5.774   5.700   5.465 -1.7861  1.5452 -2.5931
  138MOL   H31444428   5.858   5.798   5.340  0.2210  1.8057 -0.2094
  138MOL   H31544429   6.005   5.697   5.512 -0.9551 -0.6310  0.0056
  138MOL   H31644430   5.931   6.015   5.928 -0.9031  1.0118 -1.3368
  138MOL   H31744431   5.808   5.895   5.899 -0.0300 -0.5121 -0.8480
  138MOL   H31844432   5.963   5.854   5.974 -1.0448 -0.6220 -1.8589
  138MOL   H31944433   6.033   6.050   5.640  0.2868  0.6698 -0.5970
  138MOL   H32044434   6.164   5.927   5.683  1.7821  2.7539  0.5686
  138MOL   H32144435   6.120   6.050   5.794  0.5733  0.3867 -1.1664
  138MOL   H32244436   6.024   5.868   5.508  0.7506 -0.2747 -0.1122
  139MOL     C144437   3.749   1.087   4.814  0.1123  0.2282 -0.5241
  139MOL     C244438   3.810   0.966   4.734 -0.2908  0.1280 -0.4755
  139MOL     C344439   3.953   0.943   4.798  0.3770 -0.9457 -0.0964
  139MOL     O444440   4.044   1.013   4.756  0.1313  0.0545  0.7175
  139MOL     N544441   3.963   0.853   4.900  0.1565 -0.0282  0.4438
  139MOL     C644442   3.847   0.773   4.947  0.5161  0.5672 -0.8156
  139MOL     C744443   4.085   0.821   4.951 -0.1375  0.2298 -0.8404
  139MOL     H844444   3.681   1.131   4.742  0.0945  1.6597  0.3519
  139MOL     H944445   3.819   1.168   4.831 -0.8325  0.8826  0.2843
  139MOL    H1044446   3.740   0.883   4.747 -0.5610  0.6917  1.8360
  139MOL    H1144447   3.766   0.842   4.971  2.0361  1.9955  0.3364
  139MOL    H1244448   3.799   0.705   4.877  2.0332 -0.8330 -0.5338
  139MOL    H1344449   3.872   0.715   5.036  1.2109  1.6764 -0.2639
  139MOL    H1444450   4.169   0.891   4.947 -1.0018  1.3447 -0.1014
  139MOL    H1544451   4.116   0.718   4.934 -1.4716  0.0371 -2.1488
  139MOL    H1644452   4.066   0.826   5.059  1.4021  1.1957 -0.5857
  139MOL    H1744453   3.713   1.055   4.912  0.3319  2.5392  0.3352
  139MOL    C1844454   3.816   0.991   4.583 -0.2135 -0.3365 -0.1877
  139MOL    C1944455   3.861   0.874   4.493 -0.2269 -0.2131 -0.9147
  139MOL    C2044456   3.874   0.930   4.349  0.0443  0.3418  0.0754
  139MOL    O2144457   3.773   0.937   4.277  0.2053  0.0914 -0.2457
  139MOL    N2244458   3.992   0.959   4.302  0.3248  0.5249 -0.1988
  139MOL    C2344459   4.118   0.980   4.383 -0.4922  0.3877  0.1812
  139MOL    C2444460   4.012   0.992   4.161 -0.3927 -0.0027  0.2903
  139MOL    H2544461   3.712   1.015   4.557 -0.4402  0.8106  1.6849
  139MOL    H2644462   3.883   1.074   4.562  0.5307 -0.6963  0.7552
  139MOL    H2744463   3.959   0.845   4.530 -0.3588  2.1168  1.4246
  139MOL    H2844464   4.086   1.011   4.482 -2.3252  1.5672 -0.7471
  139MOL    H2944465   4.179   0.891   4.398  1.5567  1.9239  1.2133
  139MOL    H3044466   4.188   1.059   4.355 -0.0062  0.6753  2.1630
  139MOL    H3144467   4.115   0.971   4.130  0.1798  0.0938  2.0580
  139MOL    H3244468   3.996   1.099   4.149 -0.2676  0.1783  1.5841
  139MOL    H3344469   3.947   0.935   4.095 -1.9532  0.2857  1.5580
  139MOL    C3444470   3.762   0.754   4.498 -0.2322 -0.8277  0.5885
  139MOL    C3544471   3.811   0.617   4.442 -0.6878 -0.2123  0.7733
  139MOL    C3644472   3.909   0.556   4.546  0.3645 -0.0565  0.5590
  139MOL    O3744473   4.006   0.620   4.572 -0.3022  0.2531 -0.0081
  139MOL    N3844474   3.888   0.436   4.610  0.0635 -0.3201  0.0153
  139MOL    C3944475   3.774   0.340   4.580  0.4464 -0.4904  0.3022
  139MOL    C4044476   3.971   0.392   4.722  0.4376  0.6135 -0.3869
  139MOL    H4144477   3.731   0.730   4.600 -0.0581 -0.1191  0.8163
  139MOL    H4244478   3.667   0.783   4.453  0.3692 -1.9174 -1.4617
  139MOL    H4344479   3.724   0.554   4.421  0.0721 -0.5342 -1.5738
  139MOL    H4444480   3.683   0.370   4.632  1.7173  0.5066  2.0539
  139MOL    H4544481   3.761   0.341   4.472 -2.1122  2.4328  0.5699
  139MOL    H4644482   3.792   0.238   4.614 -0.0405 -0.1568  1.5938
  139MOL    H4744483   3.991   0.475   4.789  1.0893 -1.4443  2.0727
  139MOL    H4844484   4.059   0.337   4.687  0.2194  0.7708 -1.1980
  139MOL    H4944485   3.917   0.323   4.787  1.0630  0.8274  0.3561
  139MOL    C5044486   3.890   0.624   4.308  0.2359 -0.5415 -0.4869
  139MOL    C5144487   3.941   0.493   4.242  0.4056  1.1141  0.6281
  139MOL    C5244488   4.060   0.522   4.149 -0.1042  0.5107 -0.0034
  139MOL    O5344489   4.041   0.579   4.043 -0.1198  0.1789 -0.4612
  139MOL    N5444490   4.187   0.488   4.186 -0.2019  0.0542 -0.3245
  139MOL    C5544491   4.238   0.443   4.321 -1.0591  0.1627  0.9400
  139MOL    C5644492   4.295   0.492   4.089  0.1079  0.4974  0.0780
  139MOL    H5744493   3.835   0.677   4.230  1.2082  0.3059 -0.6099
  139MOL    H5844494   3.982   0.681   4.325 -0.1072  0.4891 -2.0335
  139MOL    H5944495   3.982   0.427   4.319 -1.6904 -0.1213  0.7190
  139MOL    H6044496   4.209   0.507   4.404  1.2408  1.9020  0.4411
  139MOL    H6144497   4.208   0.340   4.339  1.3906 -0.6261  0.5503
  139MOL    H6244498   4.347   0.443   4.320 -1.0589 -0.0449  0.4271
  139MOL    H6344499   4.358   0.582   4.091  1.2884 -0.2547 -2.0250
  139MOL    H6444500   4.264   0.486   3.985 -1.0542  1.2845  0.3646
  139MOL    H6544501   4.352   0.399   4.087 -0.4460  0.1429  0.6089
  139MOL    C6644502   3.821   0.423   4.170 -0.3627  0.1498 -0.4187
  139MOL    C6744503   3.846   0.302   4.078  0.6049  0.0993 -0.0183
  139MOL    C6844504   3.719   0.270   4.000  0.0215  0.9430 -0.4406
  139MOL    O6944505   3.620   0.229   4.063  0.1183  0.1392 -0.2161
  139MOL    N7044506   3.706   0.298   3.871 -0.3531 -0.2644 -0.8854
  139MOL    C7144507   3.799   0.377   3.781 -0.3210 -0.1341  0.1877
  139MOL    C7244508   3.591   0.254   3.795  0.2224 -0.2075 -0.3208
  139MOL    H7344509   3.755   0.383   4.246 -0.3514  1.6576  0.3981
  139MOL    H7444510   3.767   0.508   4.128 -0.3291 -0.6025 -2.0027
  139MOL    H7544511   3.930   0.323   4.011 -0.8169  3.0112 -0.9873
  139MOL    H7644512   3.744   0.444   3.715  0.3678  0.8457  0.6034
  139MOL    H7744513   3.878   0.427   3.837  0.2459  0.2162 -0.9025
  139MOL    H7844514   3.856   0.298   3.732 -1.4431 -0.0005 -1.3507
  139MOL    H7944515   3.612   0.229   3.691  2.0291  0.8974 -0.2524
  139MOL    H8044516   3.514   0.331   3.795 -0.0689 -0.4808  0.8948
  139MOL    H8144517   3.549   0.162   3.835 -0.7868 -0.1650 -1.2838
  139MOL    C8244518   3.897   0.180   4.163  0.0915 -0.0203  0.6095
  139MOL    C8344519   3.993   0.081   4.098 -0.3686  0.0143 -0.4586
  139MOL    C8444520   3.997   7.809   4.187 -0.3825 -0.1502  0.2077
  139MOL    O8544521   4.049   7.803   4.294  0.2692 -1.0026 -0.2061
  139MOL    N8644522   3.948   7.690   4.137  0.8438 -0.1605 -0.3964
  139MOL    C8744523   3.890   7.685   4.002 -0.3007  0.1788  0.9799
  139MOL    C8844524   3.955   7.563   4.212  0.3432 -0.6083 -0.3580
  139MOL    H8944525   3.935   0.214   4.260 -1.7785  0.5232  1.1626
  139MOL    H9044526   3.812   0.120   4.194  0.2124 -1.0251 -0.9599
  139MOL    H9144527   3.967   0.061   3.994  0.1234 -0.7566 -0.4358
  139MOL    H9244528   3.870   7.581   3.974  1.1813  0.5600 -1.6727
  139MOL    H9344529   3.802   7.747   3.988 -0.4125 -0.0975  0.4404
  139MOL    H9444530   3.972   7.710   3.935 -0.7479 -0.0700  0.3396
  139MOL    H9544531   3.896   7.482   4.170 -4.5166  1.8402  1.3175
  139MOL    H9644532   3.941   7.584   4.318 -0.8766  1.3943 -0.8936
  139MOL    H9744533   4.061   7.542   4.199  0.5455  0.1973 -0.0326
  139MOL    C9844534   4.142   0.125   4.093 -0.0018  0.4338  0.2988
  139MOL    C9944535   4.218   0.063   3.981 -0.2631 -0.2662  0.3423
  139MOL   C10044536   4.358   0.022   4.037 -0.4993 -0.1598 -0.0124
  139MOL   O10144537   4.434   0.114   4.073  0.4485  0.2482  0.0635
  139MOL   N10244538   4.390   7.748   4.052 -0.4358  0.2133 -0.1698
  139MOL   C10344539   4.513   7.700   4.108 -0.8441  0.8686 -0.4652
  139MOL   C10444540   4.314   7.633   4.017 -0.3310  0.0522  1.4101
  139MOL   H10544541   4.125   0.231   4.074 -2.2710  0.0449  0.0004
  139MOL   H10644542   4.194   0.117   4.188  0.0829 -0.3382  0.1967
  139MOL   H10744543   4.162   7.827   3.952 -0.1942 -1.4196  3.5160
  139MOL   H10844544   4.502   7.646   4.202  0.9729 -0.1644 -0.8232
  139MOL   H10944545   4.559   7.636   4.033 -1.8460 -0.8816  0.3961
  139MOL   H11044546   4.584   7.777   4.139 -1.9357  1.5649  0.3440
  139MOL   H11144547   4.230   7.624   4.086 -0.7226  0.3919  0.9867
  139MOL   H11244548   4.372   7.541   4.024 -0.0873 -0.1322 -2.1721
  139MOL   H11344549   4.267   7.627   3.919  0.9606 -1.5706  0.8807
  139MOL   C11444550   4.236   0.159   3.862  0.2062 -0.2164 -0.1506
  139MOL   C11544551   4.281   0.102   3.731 -0.4424  0.7875 -0.2797
  139MOL   C11644552   4.174   0.002   3.682  0.3072 -0.5342  0.3292
  139MOL   O11744553   4.179   7.739   3.711 -0.6139 -0.3504 -0.1559
  139MOL   N11844554   4.061   0.055   3.631 -0.8838 -0.0044 -0.0330
  139MOL   C11944555   3.944   7.826   3.606 -0.0870  0.1140  0.0281
  139MOL   C12044556   4.067   0.180   3.557 -0.8683  0.7588 -0.1983
  139MOL   H12144557   4.141   0.211   3.850  0.6879  0.9954  1.1286
  139MOL   H12244558   4.309   0.237   3.887  0.4474 -0.2400 -0.7701
  139MOL   H12344559   4.280   0.188   3.663 -0.2254 -0.5602 -2.0142
  139MOL   H12444560   3.905   7.845   3.506  0.8438 -2.2483 -0.7948
  139MOL   H12544561   3.964   7.719   3.613 -1.9493 -0.2575  0.0043
  139MOL   H12644562   3.853   7.852   3.662  1.0596  1.3533  1.3743
  139MOL   H12744563   4.085   0.269   3.617  0.0289  0.1958  0.3828
  139MOL   H12844564   3.970   0.189   3.508 -0.7331 -0.6479 -0.7667
  139MOL   H12944565   4.143   0.164   3.482 -1.9855 -1.8523 -0.8450
  139MOL   C13044566   4.420   0.045   3.722 -0.1100  0.4021 -0.0545
  139MOL   C13144567   4.473   0.002   3.578  0.3727  0.3235  0.3341
  139MOL   C13244568   4.614   7.791   3.582  0.5106  0.4714 -0.1658
  139MOL   O13344569   4.698   7.848   3.648  0.3184  0.1041 -0.4358
  139MOL   N13444570   4.643   7.673   3.520 -0.3626 -0.1023  0.3535
  139MOL   C13544571   4.778   7.621   3.513 -0.1517 -0.6742  0.2690
  139MOL   C13644572   4.556   7.616   3.416 -0.3323  0.6617 -0.5488
  139MOL   H13744573   4.484   0.097   3.793 -2.4895  1.6415  1.2534
  139MOL   H13844574   4.420   7.803   3.774 -0.5613 -0.9541 -2.4741
  139MOL   H13944575   4.402   7.779   3.546  0.3971  0.1492  0.6931
  139MOL   H14044576   4.867   7.668   3.554  0.4647 -1.5213 -0.0658
  139MOL   H14144577   4.778   7.517   3.547 -1.3995 -1.6593 -2.5800
  139MOL   H14244578   4.803   7.625   3.407  1.6175  0.8853  0.7141
  139MOL   H14344579   4.547   7.687   3.334  2.1692 -0.4875 -1.8429
  139MOL   H14444580   4.457   7.601   3.460  0.0102 -0.3992 -0.1189
  139MOL   H14544581   4.590   7.515   3.393 -1.6607 -0.5753  2.5569
  139MOL   C14644582   4.475   0.117   3.468  0.3967 -0.1724 -0.2457
  139MOL   C14744583   4.565   0.244   3.493 -0.5699  0.8018  0.2344
  139MOL   C14844584   4.483   0.354   3.572 -0.1125  0.2679  0.4600
  139MOL   O14944585   4.383   0.391   3.518 -0.1328 -0.4037 -0.6194
  139MOL   N15044586   4.536   0.419   3.678 -0.8918  0.4330  0.0460
  139MOL   C15144587   4.666   0.376   3.737  0.8311 -0.9270 -0.3692
  139MOL   C15244588   4.456   0.510   3.760  0.1372 -0.0647  0.0031
  139MOL   H15344589   4.502   0.067   3.375  1.6484 -1.5844  0.8522
  139MOL   H15444590   4.370   0.143   3.453  0.8569  0.8404 -1.8667
  139MOL   H15544591   4.649   0.208   3.552 -0.9094  0.5365  0.5590
  139MOL   H15644592   4.750   0.393   3.670 -1.0464  0.2252 -2.4875
  139MOL   H15744593   4.693   0.424   3.831 -0.3866 -2.2514  0.6980
  139MOL   H15844594   4.659   0.269   3.758 -0.0276 -0.3227  2.6751
  139MOL   H15944595   4.473   0.505   3.867  0.5476  0.2027 -0.0458
  139MOL   H16044596   4.356   0.506   3.718  1.1120  0.9709 -2.5655
  139MOL   H16144597   4.495   0.608   3.732  3.2161 -1.0137  0.8046
  139MOL   C16244598   4.618   0.294   3.359  0.0881  0.1676  0.3793
  139MOL   C16344599   4.750   0.236   3.303  0.1044  0.2460 -0.0901
  139MOL   C16444600   4.873   0.276   3.389  0.3807 -0.0176  0.3664
  139MOL   O16544601   4.866   0.391   3.436 -0.3249  0.3287  0.5099
  139MOL   N16644602   4.985   0.200   3.399 -0.5679  0.9724  0.2310
  139MOL   C16744603   5.107   0.244   3.465 -0.2939 -0.2048  0.6181
  139MOL   C16844604   4.987   0.060   3.358 -0.2926 -0.8830  0.2377
  139MOL   H16944605   4.545   0.281   3.279  0.1736  0.8228  0.1889
  139MOL   H17044606   4.619   0.403   3.369  0.1184  0.4196 -2.1280
  139MOL   H17144607   4.744   0.128   3.292  0.1891  0.2805 -0.4577
  139MOL   H17244608   5.087   0.252   3.572 -0.0865  2.3707  0.5067
  139MOL   H17344609   5.192   0.177   3.457 -0.3852  0.1223 -3.9466
  139MOL   H17444610   5.123   0.341   3.417 -1.4633  0.0397  0.6995
  139MOL   H17544611   4.916   0.005   3.420  1.4248 -3.2135  0.2039
  139MOL   H17644612   5.083   0.010   3.372  0.6147  0.7200 -0.2498
  139MOL   H17744613   4.949   0.035   3.259 -0.1282  2.8082 -0.8130
  139MOL   C17844614   4.781   0.293   3.161 -0.2119 -0.2746 -0.2457
  139MOL   C17944615   4.730   0.208   3.041  0.3220  0.4679  0.1795
  139MOL   C18044616   4.827   0.084   3.018 -0.0349 -0.0365 -0.3955
  139MOL   O18144617   4.936   0.113   2.973 -0.0967  0.0661  0.3843
  139MOL   N18244618   4.792   7.807   3.056 -0.5831 -0.3616  0.7358
  139MOL   C18344619   4.884   7.702   3.015  0.6496  0.5170  0.4372
  139MOL   C18444620   4.659   7.769   3.109 -0.5033  0.6320 -0.2981
  139MOL   H18544621   4.727   0.387   3.158 -0.2646 -0.3414 -2.4422
  139MOL   H18644622   4.881   0.329   3.142 -0.5200  1.8260  1.8722
  139MOL   H18744623   4.633   0.165   3.069  0.3002 -0.1110 -0.7738
  139MOL   H18844624   4.837   7.603   3.013 -0.1815  0.8855  1.3969
  139MOL   H18944625   4.919   7.726   2.914 -0.3373  2.7535  0.6126
  139MOL   H19044626   4.970   7.709   3.080  0.1513 -1.2677  1.3205
  139MOL   H19144627   4.575   7.787   3.042  0.7215  0.1778 -1.9966
  139MOL   H19244628   4.643   7.819   3.205  1.6731  0.7010  0.0575
  139MOL   H19344629   4.657   7.661   3.121  0.8488 -0.0372 -5.1098
  139MOL   C19444630   4.712   0.291   2.910 -0.0039  0.5360 -0.3072
  139MOL   C19544631   4.644   0.208   2.791  0.3183 -0.4800  0.7459
  139MOL   C19644632   4.676   0.275   2.643  0.4080  0.6844 -0.3962
  139MOL   O19744633   4.619   0.375   2.597  0.0404 -0.3084 -0.4912
  139MOL   N19844634   4.766   0.213   2.570  0.2273 -0.3067 -0.2961
  139MOL   C19944635   4.778   0.248   2.432 -0.0271 -0.3029  0.3297
  139MOL   C20044636   4.882   0.137   2.617  0.2366 -0.6771 -0.1166
  139MOL   H20144637   4.658   0.386   2.910 -1.7475 -0.4270  0.1768
  139MOL   H20244638   4.811   0.322   2.877  0.6779 -1.8333 -0.5700
  139MOL   H20344639   4.685   0.108   2.798  3.4163  0.5378 -1.7303
  139MOL   H20444640   4.885   0.250   2.411 -0.0215 -0.5656  0.3299
  139MOL   H20544641   4.734   0.178   2.361  0.9098 -0.3560 -0.1995
  139MOL   H20644642   4.748   0.347   2.398 -0.1297 -0.3474  0.2893
  139MOL   H20744643   4.942   0.202   2.679 -1.8389  1.7577 -0.5609
  139MOL   H20844644   4.947   0.102   2.536 -1.1454 -1.4270 -0.9414
  139MOL   H20944645   4.854   0.047   2.671  1.1063  0.1393  1.7055
  139MOL   C21044646   4.486   0.199   2.811  0.5028  0.6360  0.8185
  139MOL   C21144647   4.407   0.113   2.705 -0.6282  0.3070  0.1334
  139MOL   C21244648   4.260   0.137   2.733 -0.4901 -0.2912  0.1166
  139MOL   O21344649   4.209   0.079   2.827  0.3365 -0.5658 -0.1435
  139MOL   N21444650   4.192   0.219   2.653 -0.3959 -0.4598  0.4551
  139MOL   C21544651   4.060   0.252   2.695  0.0497 -1.0158 -0.0293
  139MOL   C21644652   4.254   0.297   2.539  0.1021  0.1571  0.2943
  139MOL   H21744653   4.474   0.165   2.914 -0.9211 -0.4144  0.3267
  139MOL   H21844654   4.447   0.300   2.798 -3.3595 -1.0194 -1.4466
  139MOL   H21944655   4.435   0.147   2.606 -1.2094  0.3356 -0.0179
  139MOL   H22044656   4.039   0.226   2.799  0.4969 -1.1737  0.0235
  139MOL   H22144657   4.042   0.356   2.667  1.1160 -1.6070 -3.0696
  139MOL   H22244658   3.981   0.216   2.630 -0.2982 -0.4546  0.0709
  139MOL   H22344659   4.173   0.341   2.482  0.7417  0.2922 -0.5224
  139MOL   H22444660   4.318   0.245   2.467  1.9833  1.4984  0.9487
  139MOL   H22544661   4.313   0.383   2.572  1.1637  0.0540 -1.2812
  139MOL   C22644662   4.453   7.820   2.694  0.5329  0.8198  0.7718
  139MOL   C22744663   4.390   7.740   2.583  0.3304  0.2244  0.1119
  139MOL   C22844664   4.407   7.598   2.626  0.0763 -0.1390  0.2029
  139MOL   O22944665   4.519   7.554   2.644  0.2418 -0.4643  0.0354
  139MOL   N23044666   4.300   7.515   2.641 -0.7082  0.2515 -0.0202
  139MOL   C23144667   4.315   7.369   2.638 -0.0609  0.2621 -1.4900
  139MOL   C23244668   4.166   7.569   2.650 -0.1310 -0.6340  0.3076
  139MOL   H23344669   4.559   7.815   2.670  0.4455  2.3351 -0.0334
  139MOL   H23444670   4.445   7.768   2.789  4.5608 -3.2103 -0.9271
  139MOL   H23544671   4.285   7.770   2.582 -0.4777 -2.4909  0.8222
  139MOL   H23644672   4.353   7.330   2.544 -0.0809  0.4326 -1.5674
  139MOL   H23744673   4.381   7.339   2.720 -1.1872 -0.7765 -0.9456
  139MOL   H23844674   4.218   7.323   2.656  1.1536 -1.7794  0.0488
  139MOL   H23944675   4.156   7.662   2.706  0.6286  1.4782 -2.9028
  139MOL   H24044676   4.100   7.495   2.695 -0.7754 -0.9718 -1.1660
  139MOL   H24144677   4.117   7.579   2.553 -1.4792 -2.5486  0.7630
  139MOL   C24244678   4.442   7.763   2.440  0.0126  0.2928 -0.1083
  139MOL   C24344679   4.357   7.724   2.313  0.1545 -0.3738 -0.0339
  139MOL   C24444680   4.226   7.800   2.315 -0.3649  0.3528  0.8561
  139MOL   O24544681   4.128   7.759   2.382 -0.3288  0.3810  0.1109
  139MOL   N24644682   4.217   0.069   2.253  0.5155 -0.7305 -0.0660
  139MOL   C24744683   4.321   0.132   2.172 -0.1436  0.8217  0.1591
  139MOL   C24844684   4.093   0.151   2.269  0.4031 -0.6998  0.2614
  139MOL   H24944685   4.464   0.015   2.421  0.5552 -0.0696 -1.5723
  139MOL   H25044686   4.539   7.715   2.445 -0.3129 -0.2507  1.0711
  139MOL   H25144687   4.416   7.748   2.224 -0.9827  1.8793 -0.2253
  139MOL   H25244688   4.384   0.069   2.109 -1.4418 -0.1148 -0.2344
  139MOL   H25344689   4.280   0.220   2.123 -0.3265  0.7997  0.2724
  139MOL   H25444690   4.383   0.179   2.248  0.5166  0.2513 -0.0236
  139MOL   H25544691   4.027   0.133   2.184 -0.9768  1.7771  0.7651
  139MOL   H25644692   4.120   0.255   2.282 -0.3752 -0.4134 -0.3794
  139MOL   H25744693   4.041   0.131   2.363  4.0930  0.2154  2.6116
  139MOL   C25844694   4.331   7.575   2.307 -0.8000  0.1474  0.6346
  139MOL   C25944695   4.303   7.503   2.174  0.1580  0.3272  0.9940
  139MOL   C26044696   4.172   7.550   2.110 -0.2919  0.5595  0.0362
  139MOL   O26144697   4.066   7.493   2.139 -0.2998 -0.0541  0.3695
  139MOL   N26244698   4.177   7.641   2.010 -0.1806  0.0046  0.4036
  139MOL   C26344699   4.049   7.666   1.940  0.2357 -0.4004 -0.3765
  139MOL   C26444700   4.287   7.724   1.959  0.0567  0.5265 -0.1534
  139MOL   H26544701   4.421   7.531   2.351 -0.6020 -1.4299 -1.2736
  139MOL   H26644702   4.247   7.550   2.371 -1.8518 -0.6394 -1.0272
  139MOL   H26744703   4.387   7.516   2.106  0.6190 -1.5567  1.1732
  139MOL   H26844704   4.066   7.690   1.836 -0.7155 -0.9468 -0.6691
  139MOL   H26944705   3.991   7.573   1.938  0.5500 -0.6347  0.9825
  139MOL   H27044706   3.987   7.747   1.978 -0.1964  0.3424 -2.5938
  139MOL   H27144707   4.316   7.701   1.857 -0.4157 -1.1080  0.0608
  139MOL   H27244708   4.374   7.720   2.025 -0.7261  1.8730  0.9800
  139MOL   H27344709   4.250   7.826   1.954 -1.1719  0.2882  2.9668
  139MOL   C27444710   4.296   7.354   2.193 -0.4202  0.2934 -0.5057
  139MOL   C27544711   4.354   7.268   2.079  0.2508 -0.1369  0.6803
  139MOL   C27644712   4.258   7.252   1.964 -0.5593  0.1581  0.5739
  139MOL   O27744713   4.159   7.181   1.986  0.2557 -0.0844 -0.3527
  139MOL   N27844714   4.294   7.292   1.840  0.0324 -1.1912  0.4185
  139MOL   C27944715   4.218   7.252   1.715 -0.6167  0.2585  0.6961
  139MOL   C28044716   4.390   7.394   1.804 -0.3409 -0.5037 -0.4030
  139MOL   H28144717   4.359   7.341   2.282 -1.3902 -2.1102 -0.1077
  139MOL   H28244718   4.198   7.327   2.234  0.8097  0.3705  2.6259
  139MOL   H28344719   4.443   7.320   2.043  0.7153 -0.4313  1.3859
  139MOL   H28444720   4.113   7.254   1.744 -0.5287 -1.6360  1.2134
  139MOL   H28544721   4.235   7.319   1.630  0.6753  0.7818  1.3571
  139MOL   H28644722   4.223   7.150   1.677  1.1938  0.5082  0.2373
  139MOL   H28744723   4.406   7.457   1.891 -1.1231  0.7004 -1.1214
  139MOL   H28844724   4.358   7.471   1.735  2.5316 -0.1263 -1.3737
  139MOL   H28944725   4.487   7.360   1.769 -1.4548 -1.8109 -2.2857
  139MOL   C29044726   4.387   7.125   2.139  0.8429 -0.3053 -0.2272
  139MOL   C29144727   4.468   7.021   2.044  0.9143  0.1367 -0.0854
  139MOL   C29244728   4.405   6.875   2.043  0.5792 -1.0376 -0.0659
  139MOL   O29344729   4.416   6.816   2.151 -0.3541 -0.2459  0.2816
  139MOL   N29444730   4.371   6.812   1.932  0.1386  0.4511 -0.1951
  139MOL   C29544731   4.359   6.666   1.939  0.2112  0.3026  0.1967
  139MOL   C29644732   4.371   6.877   1.799 -0.2518  0.3638  0.8671
  139MOL   H29744733   4.430   7.135   2.239 -0.0237  0.0376  0.1202
  139MOL   H29844734   4.289   7.084   2.164  0.9008 -0.8832 -0.9482
  139MOL   H29944735   4.463   7.056   1.941 -1.2452  0.4455  0.1009
  139MOL   H30044736   4.417   6.619   1.859  0.6863 -0.2476  0.8611
  139MOL   H30144737   4.407   6.618   2.024  1.4622 -0.8418 -1.1299
  139MOL   H30244738   4.258   6.625   1.948 -0.2748  1.8226  1.8517
  139MOL   H30344739   4.345   6.801   1.725  0.1781  0.6317  0.4414
  139MOL   H30444740   4.466   6.911   1.759 -0.4170 -1.2071 -0.9347
  139MOL   H30544741   4.288   6.944   1.779 -1.2974 -1.3631 -0.8088
  139MOL   C30644742   4.616   7.012   2.082 -0.2967  0.8493 -0.2113
  139MOL   C30744743   4.694   7.137   2.112  0.9941 -0.2433  0.1026
  139MOL   C30844744   4.693   7.245   1.997 -0.0403 -0.6247  0.6610
  139MOL   O30944745   4.664   7.209   1.885 -0.1494  0.6577 -0.5427
  139MOL   N31044746   4.709   7.376   2.030  0.3345 -1.0466 -0.4152
  139MOL   C31144747   4.697   7.427   2.166 -0.9194  0.3927 -0.1786
  139MOL   C31244748   4.717   7.473   1.928 -0.5618  0.2024  0.3005
  139MOL   H31344749   4.626   6.940   2.162 -0.3231  1.9875  0.8355
  139MOL   H31444750   4.669   6.974   1.995 -0.5620  1.3529 -0.6025
  139MOL   H31544751   4.652   7.184   2.200  3.4845 -0.5334  1.4731
  139MOL   H31644752   4.723   7.532   2.178 -0.1931  0.2369 -0.3911
  139MOL   H31744753   4.595   7.424   2.205 -0.8945 -0.3967 -0.1783
  139MOL   H31844754   4.750   7.377   2.246  0.8281  1.6101 -0.5423
  139MOL   H31944755   4.741   7.426   1.832 -0.0541 -0.5617  0.7962
  139MOL   H32044756   4.803   7.537   1.952  1.2234 -1.9109 -0.2840
  139MOL   H32144757   4.635   7.542   1.910 -1.2586 -0.5984  0.4127
  139MOL   H32244758   4.797   7.108   2.131  1.0221  0.9346  1.8205
  140MOL     C144759   2.207   3.384   5.020  0.1188 -0.0332  0.5363
  140MOL     C244760   2.106   3.268   5.019 -0.1115 -0.3916  0.4623
  140MOL     C344761   2.073   3.220   4.878 -0.3767  0.6273 -0.5314
  140MOL     O444762   1.979   3.271   4.825 -0.1586 -0.5171 -0.5084
  140MOL     N544763   2.137   3.116   4.817 -0.1921 -0.6303 -0.4348
  140MOL     C644764   2.104   3.059   4.686  0.4043 -0.6633 -0.2274
  140MOL     C744765   2.265   3.071   4.865  0.0492 -0.2993 -0.2518
  140MOL     H844766   2.308   3.359   5.050  1.3302  1.1928 -2.3497
  140MOL     H944767   2.165   3.451   5.095 -0.7899  2.2584 -1.9385
  140MOL    H1044768   2.153   3.186   5.074  1.0694 -1.8002 -2.5306
  140MOL    H1144769   2.186   3.047   4.614 -0.0766 -2.2413 -0.5091
  140MOL    H1244770   2.058   2.961   4.697 -0.2231 -0.4679 -1.0742
  140MOL    H1344771   2.038   3.129   4.635 -1.4451 -1.2656  1.2804
  140MOL    H1444772   2.320   3.000   4.802  1.1593  0.7683 -0.4962
  140MOL    H1544773   2.247   3.027   4.963  1.5975 -1.0731 -0.2956
  140MOL    H1644774   2.335   3.154   4.866 -0.0348 -0.2429  1.0884
  140MOL    H1744775   2.223   3.429   4.922 -0.8362 -1.1371 -0.1333
  140MOL    C1844776   1.970   3.307   5.092 -0.5626 -0.1717 -0.1264
  140MOL    C1944777   1.872   3.186   5.124 -0.5072 -0.2188 -0.3559
  140MOL    C2044778   1.731   3.241   5.148  0.2359  0.2339  0.4443
  140MOL    O2144779   1.712   3.322   5.244 -0.1718 -0.2462  0.0123
  140MOL    N2244780   1.626   3.213   5.066 -0.1960  0.3987  0.1312
  140MOL    C2344781   1.619   3.107   4.957  0.0864 -0.6284 -0.0021
  140MOL    C2444782   1.500   3.280   5.096  0.0497  0.0690 -0.4836
  140MOL    H2544783   2.008   3.345   5.187 -1.4511 -3.0303  1.4294
  140MOL    H2644784   1.915   3.379   5.032 -1.1171 -0.1639  0.3873
  140MOL    H2744785   1.861   3.113   5.044 -2.7888  1.0879 -1.2613
  140MOL    H2844786   1.653   3.018   5.010 -0.7316 -0.2804  1.1404
  140MOL    H2944787   1.519   3.094   4.915 -0.5008 -1.3263  1.5852
  140MOL    H3044788   1.698   3.111   4.882 -1.7256 -0.2840 -1.9469
  140MOL    H3144789   1.425   3.266   5.017  0.5335  0.4291 -1.0111
  140MOL    H3244790   1.521   3.386   5.108  1.3723 -0.2145 -0.2547
  140MOL    H3344791   1.451   3.259   5.191  0.9679  0.9326  0.1926
  140MOL    C3444792   1.925   3.108   5.248  0.1570  0.1004  0.6930
  140MOL    C3544793   1.885   2.958   5.258  0.3511  0.1889  0.0029
  140MOL    C3644794   1.896   2.913   5.403 -0.0231  0.8386  0.1791
  140MOL    O3744795   2.010   2.908   5.454  0.1557 -0.3150 -0.0983
  140MOL    N3844796   1.793   2.873   5.478 -0.3534 -0.4951  0.2988
  140MOL    C3944797   1.658   2.907   5.444  0.4262  0.4565  0.7002
  140MOL    C4044798   1.809   2.779   5.587 -0.3632 -0.0185 -0.2611
  140MOL    H4144799   2.033   3.118   5.253  0.4853 -2.6535  0.0142
  140MOL    H4244800   1.884   3.162   5.334  0.1856  1.1222  0.0810
  140MOL    H4344801   1.779   2.953   5.231  0.1319 -2.3006  1.2208
  140MOL    H4444802   1.590   2.900   5.529  0.6286  0.3119  0.8521
  140MOL    H4544803   1.664   3.010   5.410 -0.2226  0.0893 -0.5516
  140MOL    H4644804   1.625   2.842   5.363 -2.0205  0.6775  1.4836
  140MOL    H4744805   1.908   2.782   5.633 -0.7005 -1.0636  0.5470
  140MOL    H4844806   1.776   2.676   5.571 -1.1448 -0.0260  1.3297
  140MOL    H4944807   1.755   2.830   5.666  0.1766  2.0238 -1.1815
  140MOL    C5044808   1.975   2.870   5.166 -0.4231  0.5054 -0.8560
  140MOL    C5144809   1.918   2.732   5.114  0.3018 -0.5526  0.0258
  140MOL    C5244810   1.821   2.754   4.999 -0.4456 -0.8817 -0.6696
  140MOL    O5344811   1.705   2.765   5.031  0.1138  0.0418  0.0836
  140MOL    N5444812   1.866   2.750   4.874 -0.5495  0.0897 -0.7479
  140MOL    C5544813   2.011   2.729   4.842 -1.1394  0.2027  0.1393
  140MOL    C5644814   1.782   2.758   4.756 -0.4165 -0.3167  0.3915
  140MOL    H5744815   2.005   2.928   5.079  2.1420 -0.5518 -0.7319
  140MOL    H5844816   2.069   2.848   5.216 -0.1788  0.7572 -1.2016
  140MOL    H5944817   2.001   2.672   5.079  1.1018 -0.1546  1.1915
  140MOL    H6044818   2.040   2.625   4.846  1.0242  0.5799 -3.2983
  140MOL    H6144819   2.024   2.756   4.737 -0.6224 -1.3844 -0.2159
  140MOL    H6244820   2.080   2.796   4.893 -1.5815 -0.5173  1.6965
  140MOL    H6344821   1.813   2.702   4.669 -0.4144 -0.3034  0.3835
  140MOL    H6444822   1.770   2.862   4.725  2.0752 -1.1098 -3.4771
  140MOL    H6544823   1.680   2.722   4.774 -0.3095 -2.1623 -2.4759
  140MOL    C6644824   1.859   2.644   5.226 -0.1062  0.0100 -0.3725
  140MOL    C6744825   1.841   2.487   5.188 -0.2795  0.3161 -0.4366
  140MOL    C6844826   1.703   2.462   5.116  0.0492  0.3760  0.3767
  140MOL    O6944827   1.606   2.490   5.182 -0.3144  0.1489  0.4788
  140MOL    N7044828   1.696   2.392   4.999 -0.1517 -0.2784 -0.4378
  140MOL    C7144829   1.816   2.373   4.910  0.0497 -0.2448 -0.5607
  140MOL    C7244830   1.564   2.343   4.954  0.4891  0.5308  0.2084
  140MOL    H7344831   1.939   2.649   5.300 -0.9188  0.1456  0.5032
  140MOL    H7444832   1.781   2.684   5.291 -1.5140 -1.1834 -1.3141
  140MOL    H7544833   1.931   2.461   5.132  1.9774  3.2055  1.6993
  140MOL    H7644834   1.806   2.388   4.803 -0.1508 -2.6428 -0.9229
  140MOL    H7744835   1.893   2.448   4.928  0.1903 -0.3584 -0.6887
  140MOL    H7844836   1.862   2.276   4.931  1.1714  0.1385 -1.2638
  140MOL    H7944837   1.512   2.374   4.863  0.0241 -3.3595 -0.9371
  140MOL    H8044838   1.492   2.320   5.032  0.6560 -1.6645 -0.2723
  140MOL    H8144839   1.587   2.238   4.936  2.1060  0.5476  2.0615
  140MOL    C8244840   1.833   2.413   5.325  0.0355 -0.1610 -0.0317
  140MOL    C8344841   1.815   2.258   5.329 -0.1394 -0.5084  0.0516
  140MOL    C8444842   1.724   2.214   5.452  0.3742 -0.4649  0.2241
  140MOL    O8544843   1.780   2.212   5.559 -0.0953 -0.5291  0.8453
  140MOL    N8644844   1.600   2.168   5.447 -0.1544  0.4370 -0.3252
  140MOL    C8744845   1.527   2.114   5.566  0.3375 -0.4365 -0.1997
  140MOL    C8844846   1.533   2.146   5.313 -0.5301 -0.1565  0.7846
  140MOL    H8944847   1.924   2.431   5.382  0.6421 -1.8876 -0.4137
  140MOL    H9044848   1.759   2.458   5.391  0.3675  1.1505 -0.5486
  140MOL    H9144849   1.761   2.227   5.240  0.1576 -2.8579  0.6568
  140MOL    H9244850   1.419   2.101   5.563 -0.0200  1.8729  1.6861
  140MOL    H9344851   1.560   2.010   5.565 -1.1897 -0.9199 -0.8526
  140MOL    H9444852   1.559   2.164   5.657  1.9926 -0.3876 -0.7906
  140MOL    H9544853   1.520   2.231   5.246 -2.3747 -0.2816  0.9642
  140MOL    H9644854   1.431   2.112   5.329 -0.5476 -0.6269 -0.2786
  140MOL    H9744855   1.588   2.068   5.261 -2.0497  0.3167 -1.5994
  140MOL    C9844856   1.958   2.190   5.330 -0.4056  0.2286 -0.3020
  140MOL    C9944857   1.960   2.035   5.318  0.4755 -0.1292 -0.5052
  140MOL   C10044858   2.078   1.978   5.405  0.0843 -0.5102  0.0253
  140MOL   O10144859   2.186   1.981   5.355  0.0434  0.7654  0.4801
  140MOL   N10244860   2.057   1.922   5.525  0.0284  0.0914 -0.2201
  140MOL   C10344861   2.159   1.862   5.604 -0.5285 -0.0801 -0.8396
  140MOL   C10444862   1.924   1.921   5.598 -0.3345 -0.3919 -0.4453
  140MOL   H10544863   2.005   2.219   5.236 -0.8465  0.8693 -0.3262
  140MOL   H10644864   2.023   2.216   5.414 -2.4420 -1.7159  1.9659
  140MOL   H10744865   1.868   1.990   5.356 -0.0958  1.1328 -0.3521
  140MOL   H10844866   2.176   1.756   5.584  3.1295  0.6054 -1.7180
  140MOL   H10944867   2.253   1.914   5.589  0.0089  0.2071  3.1264
  140MOL   H11044868   2.150   1.881   5.711  0.2683 -1.1716 -0.5710
  140MOL   H11144869   1.844   1.980   5.552  1.5844  2.1128 -0.6761
  140MOL   H11244870   1.939   1.971   5.694 -1.5036 -0.1588 -0.3649
  140MOL   H11344871   1.896   1.817   5.609  1.8497 -0.9493 -0.0053
  140MOL   C11444872   1.973   1.998   5.168 -0.3467 -0.6880  0.4590
  140MOL   C11544873   1.931   1.856   5.119  0.1657  0.1004  0.9030
  140MOL   C11644874   1.784   1.818   5.149 -0.4903  0.5818 -0.4416
  140MOL   O11744875   1.770   1.755   5.255 -0.0816 -0.3026  0.1027
  140MOL   N11844876   1.681   1.865   5.070 -0.4076 -0.3497  0.4966
  140MOL   C11944877   1.542   1.842   5.105  0.4265  0.1820 -0.8122
  140MOL   C12044878   1.694   1.958   4.957 -0.3050  0.4551 -0.2755
  140MOL   H12144879   1.913   2.059   5.101 -1.8762  0.2172  2.5848
  140MOL   H12244880   2.080   2.001   5.144 -0.5986  1.1286 -0.4575
  140MOL   H12344881   1.928   1.850   5.010  0.1626 -1.3484  0.9768
  140MOL   H12444882   1.486   1.934   5.125 -1.5420 -1.0101 -0.7283
  140MOL   H12544883   1.491   1.796   5.020 -0.3031  1.2562 -0.9735
  140MOL   H12644884   1.524   1.771   5.185  1.4715 -0.4687 -1.1461
  140MOL   H12744885   1.752   2.046   4.987  1.0621 -0.9331  1.2403
  140MOL   H12844886   1.599   1.972   4.905 -0.0676  2.8270 -0.1241
  140MOL   H12944887   1.761   1.906   4.889 -1.5263  0.4227 -1.4774
  140MOL   C13044888   2.023   1.745   5.176  0.2996  0.1077  0.2301
  140MOL   C13144889   2.165   1.731   5.125  0.6004  0.4603  0.6312
  140MOL   C13244890   2.185   1.681   4.972  0.1777  0.0254 -0.1971
  140MOL   O13344891   2.147   1.565   4.953 -0.2884  0.4462  0.2507
  140MOL   N13444892   2.235   1.755   4.869 -0.6575  0.1622 -0.0692
  140MOL   C13544893   2.270   1.899   4.890  0.2959  0.5243  0.1213
  140MOL   C13644894   2.277   1.700   4.737  0.6144 -1.0306  0.0992
  140MOL   H13744895   2.024   1.764   5.284 -0.2964  1.1858  0.0492
  140MOL   H13844896   1.965   1.654   5.167  0.6198  0.0677 -1.5319
  140MOL   H13944897   2.216   1.827   5.134  1.5598 -0.2130  2.5427
  140MOL   H14044898   2.184   1.963   4.910 -0.2141 -0.1054 -0.0587
  140MOL   H14144899   2.343   1.908   4.971  0.8561  0.4819 -0.3752
  140MOL   H14244900   2.319   1.941   4.802  0.6332 -1.0143 -0.4357
  140MOL   H14344901   2.301   1.775   4.662 -0.1233 -1.1038 -0.2100
  140MOL   H14444902   2.203   1.640   4.684 -0.0201  0.6254 -0.9543
  140MOL   H14544903   2.363   1.634   4.750  3.4715  2.4705 -0.2225
  140MOL   C14644904   2.244   1.652   5.234  0.4109  0.0190  0.7457
  140MOL   C14744905   2.393   1.612   5.223  0.4826  0.3827 -0.7446
  140MOL   C14844906   2.483   1.724   5.161 -1.1126  0.1170  0.2008
  140MOL   O14944907   2.507   1.719   5.040 -0.1703 -0.2132 -0.2185
  140MOL   N15044908   2.546   1.817   5.240  1.2678  0.2131 -0.0141
  140MOL   C15144909   2.524   1.828   5.380  0.0855  0.8640  0.0232
  140MOL   C15244910   2.624   1.929   5.195  0.6311 -0.0409  0.6614
  140MOL   H15344911   2.240   1.707   5.328 -0.4571  0.4002  0.4976
  140MOL   H15444912   2.182   1.565   5.257  0.9793 -0.2331  1.3293
  140MOL   H15544913   2.419   1.602   5.329  2.5243  0.5537 -1.2170
  140MOL   H15644914   2.602   1.778   5.438 -0.5234  0.4223  0.4657
  140MOL   H15744915   2.533   1.934   5.403 -3.9628  1.5682 -1.2681
  140MOL   H15844916   2.432   1.790   5.422  0.1223  1.2611  0.4630
  140MOL   H15944917   2.724   1.915   5.238  1.1122  0.6835 -0.2014
  140MOL   H16044918   2.568   2.019   5.217 -1.1949 -0.7612 -0.8905
  140MOL   H16144919   2.649   1.922   5.089 -1.9649  0.0987  0.0192
  140MOL   C16244920   2.397   1.472   5.150 -0.1631  0.1065 -0.3613
  140MOL   C16344921   2.518   1.384   5.192 -0.3603  0.2563  0.1467
  140MOL   C16444922   2.625   1.384   5.091  0.8050 -0.5491  0.9804
  140MOL   O16544923   2.610   1.324   4.984  0.5079  0.2892  0.3595
  140MOL   N16644924   2.750   1.435   5.125  0.0697 -0.4775  0.1256
  140MOL   C16744925   2.858   1.428   5.023 -0.9895 -0.5618 -0.2652
  140MOL   C16844926   2.784   1.512   5.242  0.4415 -0.2164 -0.0511
  140MOL   H16944927   2.305   1.413   5.158  0.1763 -0.1366  2.1655
  140MOL   H17044928   2.410   1.485   5.043  0.8317 -0.1645 -0.2805
  140MOL   H17144929   2.558   1.426   5.285 -1.4253  0.7409  0.3927
  140MOL   H17244930   2.946   1.401   5.080 -1.2806  0.9185  0.8975
  140MOL   H17344931   2.851   1.350   4.947 -0.5899 -2.4185  1.5459
  140MOL   H17444932   2.877   1.515   4.960  1.5913  0.1711  1.4897
  140MOL   H17544933   2.869   1.580   5.233 -0.8524  1.2826 -1.1071
  140MOL   H17644934   2.818   1.444   5.320  1.6061 -0.2586 -0.5806
  140MOL   H17744935   2.705   1.576   5.280  0.9940 -0.2364  1.1676
  140MOL   C17844936   2.484   1.234   5.226 -0.0177  0.1677 -0.7309
  140MOL   C17944937   2.383   1.214   5.342  0.0749  0.9540 -0.0885
  140MOL   C18044938   2.414   1.301   5.463  0.3290 -0.3753 -0.8370
  140MOL   O18144939   2.534   1.307   5.498  0.1481 -0.0862  0.0824
  140MOL   N18244940   2.312   1.371   5.526 -0.4587 -0.2501  0.0260
  140MOL   C18344941   2.347   1.477   5.617 -0.7275 -0.2651 -0.1122
  140MOL   C18444942   2.168   1.348   5.501  0.5542  0.3391 -0.0927
  140MOL   H18544943   2.442   1.183   5.139  0.9853 -2.2722  0.1571
  140MOL   H18644944   2.581   1.187   5.242  0.2052  0.4751 -1.1669
  140MOL   H18744945   2.283   1.244   5.310  0.6653  1.7843 -1.1667
  140MOL   H18844946   2.253   1.484   5.671 -1.4630 -0.5134 -1.3423
  140MOL   H18944947   2.416   1.426   5.685  1.9357  2.6703 -0.5056
  140MOL   H19044948   2.374   1.571   5.570 -1.2578 -0.4805 -0.8418
  140MOL   H19144949   2.123   1.393   5.413 -0.6286 -1.8381 -0.6382
  140MOL   H19244950   2.109   1.371   5.590 -1.3373  3.8972 -2.1730
  140MOL   H19344951   2.145   1.244   5.479 -0.0608 -0.2123  2.9063
  140MOL   C19444952   2.382   1.063   5.383 -1.1669 -1.1939 -0.3622
  140MOL   C19544953   2.308   0.959   5.291  0.0373  0.4815  0.1608
  140MOL   C19644954   2.157   0.989   5.284 -0.2891  0.3343  0.1792
  140MOL   O19744955   2.090   0.962   5.388 -0.1260 -0.2169 -0.9826
  140MOL   N19844956   2.095   1.030   5.173 -0.0286  0.8659  0.5539
  140MOL   C19944957   2.165   1.066   5.046 -0.6692 -0.3793 -0.4592
  140MOL   C20044958   1.951   1.016   5.148  0.3058  0.7261  0.1875
  140MOL   H20144959   2.486   1.038   5.404 -1.0479  1.1066  1.9824
  140MOL   H20244960   2.341   1.048   5.483 -1.5150  3.5134  0.3402
  140MOL   H20344961   2.348   0.976   5.191  0.1303  0.9319  0.2699
  140MOL   H20444962   2.239   1.139   5.078 -1.3605  0.8090 -1.5320
  140MOL   H20544963   2.217   0.993   4.984  1.2029  1.0951 -0.6787
  140MOL   H20644964   2.108   1.110   4.965  1.4965  1.5892 -0.9735
  140MOL   H20744965   1.928   1.070   5.056  2.4783 -1.1098 -1.4945
  140MOL   H20844966   1.902   1.065   5.232  0.4552 -1.9541  1.8896
  140MOL   H20944967   1.904   0.918   5.153  0.9167  0.3994 -0.3771
  140MOL   C21044968   2.339   0.810   5.331 -0.7114 -0.6384  0.1447
  140MOL   C21144969   2.465   0.741   5.268  0.2454 -0.4917 -0.0362
  140MOL   C21244970   2.482   0.774   5.118  0.1762  0.4154  0.4731
  140MOL   O21344971   2.391   0.728   5.045  0.4287 -0.4704  0.2046
  140MOL   N21444972   2.593   0.843   5.081 -0.7019 -0.3383  1.1159
  140MOL   C21544973   2.692   0.897   5.169 -0.4684  0.3601 -0.3207
  140MOL   C21644974   2.626   0.864   4.935  1.6098  0.1047  0.3089
  140MOL   H21744975   2.353   0.798   5.439  2.1469  1.1837  0.0317
  140MOL   H21844976   2.253   0.746   5.312  1.0943 -2.3672 -2.6671
  140MOL   H21944977   2.535   0.795   5.333  0.8826 -1.0127 -0.2792
  140MOL   H22044978   2.746   0.814   5.215  0.7576  0.1165 -2.1322
  140MOL   H22144979   2.761   0.957   5.109  0.2596 -0.5340 -0.3970
  140MOL   H22244980   2.660   0.962   5.250 -0.4463  1.9502 -1.5450
  140MOL   H22344981   2.532   0.882   4.882  0.1658 -0.1648  2.7049
  140MOL   H22444982   2.660   0.767   4.900  0.5324 -0.1096 -0.1698
  140MOL   H22544983   2.697   0.940   4.904  2.1496 -0.8987 -0.9409
  140MOL   C22644984   2.473   0.595   5.296  0.4831  0.1030 -0.4029
  140MOL   C22744985   2.614   0.534   5.263 -0.6123 -0.4323  0.0740
  140MOL   C22844986   2.598   0.392   5.221 -0.9640  0.0411 -0.8406
  140MOL   O22944987   2.532   0.320   5.300 -0.3045  0.2891  0.3631
  140MOL   N23044988   2.646   0.350   5.106 -0.3285  0.2560 -0.8386
  140MOL   C23144989   2.736   0.429   5.021 -0.2154 -0.1932  0.0769
  140MOL   C23244990   2.622   0.213   5.057  0.7617 -0.0188  0.7808
  140MOL   H23344991   2.444   0.582   5.401 -0.0349  0.4655 -0.5012
  140MOL   H23444992   2.400   0.533   5.243 -0.7108  0.1431  1.1440
  140MOL   H23544993   2.667   0.597   5.192 -1.0887  0.9584  0.9222
  140MOL   H23644994   2.833   0.378   5.025 -0.6373 -0.9416  0.8751
  140MOL   H23744995   2.702   0.416   4.919  0.0158  3.1495 -0.4682
  140MOL   H23844996   2.753   0.537   5.021  0.3151 -0.2734  0.1898
  140MOL   H23944997   2.522   0.175   5.078 -0.0243  2.2663  1.3622
  140MOL   H24044998   2.688   0.142   5.108 -0.9745 -0.9664  1.7649
  140MOL   H24144999   2.649   0.196   4.953  1.3404 -1.0632  1.0942
  140MOL   C24245000   2.704   0.531   5.388 -0.4596 -0.5870 -0.6901
  140MOL   C24345001   2.850   0.479   5.360  1.0764  1.0956 -0.1704
  140MOL   C24445002   2.921   0.427   5.484 -0.4629 -0.4319 -0.1978
  140MOL   O24545003   2.981   0.507   5.558  0.3349 -0.0812  0.5578
  140MOL   N24645004   2.928   0.293   5.511  0.9108  0.1439 -0.1551
  140MOL   C24745005   2.993   0.240   5.628  0.6703 -0.4708  0.0533
  140MOL   C24845006   2.864   0.191   5.428  0.2232  0.3919  0.1538
  140MOL   H24945007   2.704   0.638   5.408  0.8210  0.0612 -3.9363
  140MOL   H25045008   2.656   0.484   5.474  1.8742  0.1734  1.0636
  140MOL   H25145009   2.833   0.389   5.302 -1.4002  0.3702  1.5760
  140MOL   H25245010   2.964   0.137   5.649  2.4389 -0.9005  0.4324
  140MOL   H25345011   3.100   0.257   5.622  0.0863  3.8385 -0.0940
  140MOL   H25445012   2.954   0.278   5.722  0.6599 -0.7124  0.1466
  140MOL   H25545013   2.763   0.209   5.394  0.1125 -0.8316 -0.1946
  140MOL   H25645014   2.864   0.092   5.475 -2.7226  0.3581  0.1244
  140MOL   H25745015   2.930   0.194   5.341  1.7787  0.8292  1.3281
  140MOL   C25845016   2.943   0.572   5.281  0.1127  0.0199  0.3468
  140MOL   C25945017   3.058   0.512   5.203  0.3864  0.6295  0.2696
  140MOL   C26045018   3.190   0.492   5.283 -0.5191 -0.0059 -0.3311
  140MOL   O26145019   3.233   0.585   5.353  0.4782 -0.5300  0.0721
  140MOL   N26245020   3.261   0.376   5.282 -0.3240 -0.1950 -0.1017
  140MOL   C26345021   3.226   0.267   5.185 -0.7919 -0.7863  0.7625
  140MOL   C26445022   3.361   0.354   5.384  0.1635 -0.0159 -0.3532
  140MOL   H26545023   2.882   0.632   5.214  0.3222 -0.4703 -0.2901
  140MOL   H26645024   2.977   0.656   5.342  0.1732  0.3653 -0.1536
  140MOL   H26745025   3.026   0.411   5.176  2.4000  0.7369 -2.6784
  140MOL   H26845026   3.130   0.220   5.207 -1.4987  0.3664  0.1553
  140MOL   H26945027   3.198   0.309   5.088 -0.2327  0.5595  1.1820
  140MOL   H27045028   3.302   0.188   5.179 -0.1287  0.0236 -2.1924
  140MOL   H27145029   3.314   0.374   5.480  0.9316  1.4962 -0.2722
  140MOL   H27245030   3.443   0.423   5.363  0.0228  0.0286 -0.7535
  140MOL   H27345031   3.411   0.257   5.379  2.8702  1.3436 -0.4638
  140MOL   C27445032   3.083   0.573   5.066  0.4845 -0.2498  0.0120
  140MOL   C27545033   3.155   0.711   5.057  0.2719 -1.0233  0.2018
  140MOL   C27645034   3.057   0.833   5.064  0.0855  0.0166  0.4412
  140MOL   O27745035   2.956   0.829   4.993 -0.0624 -0.4138 -0.3730
  140MOL   N27845036   3.081   0.946   5.138  0.1460  0.2069  0.2596
  140MOL   C27945037   3.000   1.070   5.132 -0.0268  0.1833  0.4527
  140MOL   C28045038   3.207   0.965   5.207 -1.0559 -0.2232 -0.0438
  140MOL   H28145039   3.137   0.492   5.019 -0.5494 -1.1917  0.4238
  140MOL   H28245040   2.985   0.581   5.019 -0.5741  0.2442  2.2240
  140MOL   H28345041   3.223   0.729   5.140  0.6651  0.3207 -0.3991
  140MOL   H28445042   2.947   1.084   5.038  1.4860  0.3028 -0.3955
  140MOL   H28545043   2.922   1.065   5.208 -1.2359 -0.6610 -0.8212
  140MOL   H28645044   3.054   1.164   5.140 -0.3023  0.4011 -0.1820
  140MOL   H28745045   3.294   0.938   5.148 -0.5734  0.1810  0.4755
  140MOL   H28845046   3.208   0.892   5.288 -1.6598  0.3019  0.4444
  140MOL   H28945047   3.221   1.071   5.227 -0.1046 -0.4768  0.6810
  140MOL   C29045048   3.228   0.728   4.929 -0.6096 -0.1120 -0.1214
  140MOL   C29145049   3.356   0.636   4.919  0.8881 -0.1700 -0.3142
  140MOL   C29245050   3.473   0.657   5.023 -1.0034 -0.4770  0.2147
  140MOL   O29345051   3.511   0.772   5.038  0.3251  0.0800 -0.9587
  140MOL   N29445052   3.514   0.552   5.099  0.1173  0.3092 -0.0712
  140MOL   C29545053   3.536   0.419   5.044 -0.6891  0.1699 -0.2309
  140MOL   C29645054   3.586   0.584   5.228  0.3035  0.7210  0.1140
  140MOL   H29745055   3.159   0.714   4.846 -0.2381  0.8469 -0.5963
  140MOL   H29845056   3.258   0.833   4.927  2.0488 -0.7743  1.9411
  140MOL   H29945057   3.319   0.535   4.940  1.3344 -0.0347  1.1559
  140MOL   H30045058   3.560   0.409   4.938  1.7910 -1.2750  0.4155
  140MOL   H30145059   3.626   0.382   5.093  0.0147  3.1034  0.8021
  140MOL   H30245060   3.458   0.347   5.067  1.1461 -1.4137  1.2499
  140MOL   H30345061   3.640   0.500   5.272 -1.0988 -0.8032 -1.0200
  140MOL   H30445062   3.534   0.648   5.299  0.1782 -0.2815  0.9451
  140MOL   H30545063   3.674   0.642   5.198  1.1639 -0.8322 -0.4298
  140MOL   C30645064   3.409   0.647   4.776 -0.1698  0.3885  0.7503
  140MOL   C30745065   3.318   0.597   4.662  0.2177  0.2784 -0.7111
  140MOL   C30845066   3.390   0.560   4.531 -0.1407  0.6696  0.0785
  140MOL   O30945067   3.497   0.501   4.534 -0.5246 -0.1379 -0.2736
  140MOL   N31045068   3.330   0.580   4.411  0.4039  0.1965 -0.2325
  140MOL   C31145069   3.386   0.527   4.278 -0.1761 -0.4491  0.4454
  140MOL   C31245070   3.200   0.644   4.399 -0.0263  0.3032 -0.6739
  140MOL   H31345071   3.427   0.753   4.760  0.0557  0.2179 -0.1312
  140MOL   H31445072   3.503   0.593   4.760  0.4216  2.2806 -2.5374
  140MOL   H31545073   3.267   0.503   4.679  0.1358  0.5011  0.3053
  140MOL   H31645074   3.420   0.609   4.215 -0.6665 -0.3589  0.2984
  140MOL   H31745075   3.470   0.460   4.298 -0.7668 -0.3045  3.6794
  140MOL   H31845076   3.310   0.476   4.220 -2.7873  2.2669  1.3711
  140MOL   H31945077   3.207   0.740   4.450 -3.5849  0.5397 -0.4967
  140MOL   H32045078   3.126   0.577   4.442  1.6037 -1.0170  0.1136
  140MOL   H32145079   3.181   0.677   4.297 -0.9913 -0.2745 -0.6885
  140MOL   H32245080   3.232   0.664   4.650 -0.4282 -0.1988  1.0685
  141MOL     C145081   1.064   0.432   2.724 -0.7393 -0.7973  0.0793
  141MOL     C245082   1.087   0.501   2.854  0.0153  0.5822 -0.4250
  141MOL     C345083   1.135   0.641   2.824  0.2164  0.6774  0.3866
  141MOL     O445084   1.222   0.654   2.736  0.1291  0.0552 -0.2102
  141MOL     N545085   1.102   0.746   2.904  0.3690  0.0680 -1.1849
  141MOL     C645086   1.149   0.888   2.881  0.4271  0.1781 -0.3497
  141MOL     C745087   0.983   0.733   3.001  0.0941  0.0272  0.1873
  141MOL     H845088   0.986   0.356   2.719 -0.0094 -1.6413  1.3995
  141MOL     H945089   1.153   0.385   2.684 -0.4484  0.3206 -0.6063
  141MOL    H1045090   0.996   0.505   2.913  0.0630  2.2299 -0.4442
  141MOL    H1145091   1.206   0.891   2.788  2.1570  1.5896  0.7124
  141MOL    H1245092   1.060   0.949   2.865  0.0911 -0.1715  0.1649
  141MOL    H1345093   1.211   0.919   2.965 -0.7650 -0.3105  0.7230
  141MOL    H1445094   0.889   0.722   2.947 -0.9458  2.9978  1.3027
  141MOL    H1545095   0.964   0.823   3.059 -0.3310  0.4643 -0.6184
  141MOL    H1645096   0.996   0.648   3.068 -0.2222 -1.1415 -1.2144
  141MOL    H1745097   1.038   0.504   2.646  0.4014 -1.2033 -0.6835
  141MOL    C1845098   1.188   0.433   2.946 -0.1894  0.0701  0.7608
  141MOL    C1945099   1.161   0.283   3.001 -0.4400 -0.6680  1.4280
  141MOL    C2045100   1.029   0.288   3.076  0.4143  0.2031  0.6704
  141MOL    O2145101   1.024   0.377   3.163 -0.0964 -0.3853  0.0753
  141MOL    N2245102   0.924   0.212   3.051  0.2978  1.1547  0.8548
  141MOL    C2345103   0.919   0.126   2.924  0.6492  0.3413  0.0098
  141MOL    C2445104   0.805   0.196   3.144 -0.0387  0.3291 -0.2393
  141MOL    H2545105   1.280   0.436   2.888 -1.1143 -2.1731 -0.9061
  141MOL    H2645106   1.203   0.497   3.033 -1.1858  0.2486  0.8155
  141MOL    H2745107   1.147   0.220   2.914 -1.4268  1.3914  0.0688
  141MOL    H2845108   0.901   0.181   2.831 -0.1156 -0.0307 -0.0625
  141MOL    H2945109   1.000   0.054   2.913  0.4095  0.4693 -2.9910
  141MOL    H3045110   0.836   0.059   2.902  1.8107 -0.6255 -1.4821
  141MOL    H3145111   0.760   0.097   3.143 -0.0659  0.1956  4.2859
  141MOL    H3245112   0.741   0.279   3.115  2.4497  2.7825  0.9523
  141MOL    H3345113   0.833   0.226   3.245 -2.3109 -0.5520  0.6787
  141MOL    C3445114   1.282   0.244   3.097  0.2537  0.2118  0.8001
  141MOL    C3545115   1.292   0.097   3.154  0.2154  0.2130 -0.2379
  141MOL    C3645116   1.338   7.843   3.056  0.0932 -0.2723 -0.0711
  141MOL    O3745117   1.244   7.789   2.995  0.1159 -0.0564  0.3615
  141MOL    N3845118   1.470   7.798   3.046 -1.0580 -0.6178  0.6274
  141MOL    C3945119   1.579   0.021   3.095 -0.5094 -0.3805  0.5697
  141MOL    C4045120   1.502   7.662   3.000  0.2335  0.5601 -0.3393
  141MOL    H4145121   1.375   0.258   3.042  0.1805  2.3745  1.2026
  141MOL    H4245122   1.280   0.319   3.176  1.6261  1.6904 -0.5229
  141MOL    H4345123   1.370   0.098   3.230  0.1956  0.1466 -0.2161
  141MOL    H4445124   1.675   7.829   3.073 -0.3495 -0.0565  0.6015
  141MOL    H4545125   1.579   0.123   3.057 -0.8348 -0.7336 -0.3901
  141MOL    H4645126   1.567   0.015   3.203 -0.8463 -1.2629  0.4893
  141MOL    H4745127   1.529   7.658   2.895  1.2301  1.0821 -0.1075
  141MOL    H4845128   1.417   7.593   2.997  0.0061  0.8543 -0.6524
  141MOL    H4945129   1.569   7.607   3.066  1.2136 -0.4720 -2.1447
  141MOL    C5045130   1.157   0.041   3.223  0.6545 -0.7820  0.0831
  141MOL    C5145131   1.159   7.753   3.287  0.1786 -0.3778  0.2617
  141MOL    C5245132   1.021   7.711   3.333  0.5659 -0.5537  0.6470
  141MOL    O5345133   0.996   7.722   3.451 -0.0878  0.1282  0.4253
  141MOL    N5445134   0.932   7.650   3.247  0.4721 -0.1377 -0.4115
  141MOL    C5545135   0.795   7.600   3.283 -1.1515  0.1246 -0.1901
  141MOL    C5645136   0.952   7.642   3.098 -0.3116  0.2662 -0.7739
  141MOL    H5745137   1.141   0.120   3.297 -0.1511  0.6448 -1.5887
  141MOL    H5845138   1.076   0.041   3.151 -0.2300 -1.3452  1.0579
  141MOL    H5945139   1.184   7.681   3.210  1.6608 -1.0602  1.3579
  141MOL    H6045140   0.725   7.643   3.211 -1.7749 -3.7083 -1.9885
  141MOL    H6145141   0.799   7.492   3.269  0.6179  0.1790 -0.1898
  141MOL    H6245142   0.774   7.629   3.386 -2.5144  1.0043 -0.7100
  141MOL    H6345143   0.944   7.745   3.064  0.8330  0.6855  0.2120
  141MOL    H6445144   0.878   7.584   3.043  0.4751  0.7857 -2.4006
  141MOL    H6545145   1.054   7.618   3.070  0.0017  0.1034  0.4811
  141MOL    C6645146   1.260   7.754   3.406 -0.2456 -0.5243  0.1432
  141MOL    C6745147   1.306   7.620   3.460 -0.2743  0.1523 -0.0502
  141MOL    C6845148   1.361   7.644   3.609 -0.2530  0.0856  0.2593
  141MOL    O6945149   1.471   7.689   3.622  0.1381  0.3088  0.8036
  141MOL    N7045150   1.286   7.600   3.711 -0.2246  0.2535 -0.1009
  141MOL    C7145151   1.346   7.600   3.848  0.7193 -0.2412 -0.2646
  141MOL    C7245152   1.151   7.533   3.707 -0.5636 -0.1863 -0.1455
  141MOL    H7345153   1.347   7.812   3.374 -1.6862  1.2444 -0.6924
  141MOL    H7445154   1.224   7.826   3.479 -0.1242  0.5180 -0.8109
  141MOL    H7545155   1.215   7.560   3.460 -0.1130 -0.1187  1.5721
  141MOL    H7645156   1.433   7.658   3.878  0.5777 -0.4642  0.5906
  141MOL    H7745157   1.268   7.639   3.913 -1.2353 -0.8719 -2.1511
  141MOL    H7845158   1.364   7.494   3.867 -0.6421 -1.0708 -3.1808
  141MOL    H7945159   1.122   7.494   3.804 -1.1688 -1.2418 -0.7461
  141MOL    H8045160   1.146   7.454   3.632  0.5864  1.1802 -1.7055
  141MOL    H8145161   1.081   7.607   3.666 -2.1275 -2.2122 -1.2377
  141MOL    C8245162   1.401   7.552   3.354  0.1668 -0.4497  0.1925
  141MOL    C8345163   1.469   7.428   3.414  0.2131  0.0266 -0.3943
  141MOL    C8445164   1.596   7.402   3.334 -0.0420 -0.4870  0.1504
  141MOL    O8545165   1.575   7.367   3.221  0.1470  0.0989  0.4121
  141MOL    N8645166   1.718   7.413   3.389 -0.2836  0.6202 -0.3093
  141MOL    C8745167   1.740   7.456   3.526 -0.0421 -0.0241  0.0364
  141MOL    C8845168   1.836   7.374   3.313  0.0794  0.4461  0.2157
  141MOL    H8945169   1.353   7.520   3.262  0.6246  1.2137 -0.6542
  141MOL    H9045170   1.469   7.632   3.323  1.5709 -1.4422  0.6975
  141MOL    H9145171   1.497   7.457   3.515 -0.6028  0.0870 -0.1846
  141MOL    H9245172   1.838   7.433   3.567 -0.1879 -0.6223  0.0484
  141MOL    H9345173   1.718   7.562   3.543  1.2018  0.1584  0.5718
  141MOL    H9445174   1.685   7.399   3.601 -0.6386  2.9390  1.9394
  141MOL    H9545175   1.816   7.352   3.208  0.9015  1.7008 -0.2137
  141MOL    H9645176   1.871   7.273   3.336 -0.5783  0.2694  0.4492
  141MOL    H9745177   1.920   7.442   3.324  2.5202 -2.4984  0.4960
  141MOL    C9845178   1.378   7.307   3.420  0.3972 -0.5117 -0.3597
  141MOL    C9945179   1.439   7.192   3.505  0.6626  0.2982  0.5556
  141MOL   C10045180   1.395   7.048   3.455 -0.0861  0.2210 -0.5618
  141MOL   O10145181   1.276   7.008   3.483 -0.1326  0.3913 -0.0430
  141MOL   N10245182   1.482   6.968   3.386 -0.2699  0.7243  0.6082
  141MOL   C10345183   1.451   6.820   3.383  0.2618  0.5358 -0.1623
  141MOL   C10445184   1.610   7.000   3.322 -0.3425 -0.7068 -0.2299
  141MOL   H10545185   1.287   7.340   3.471  0.3834  0.7050 -1.1673
  141MOL   H10645186   1.338   7.275   3.324 -2.7802  0.0692  0.6986
  141MOL   H10745187   1.548   7.199   3.505  0.6243  0.8321 -0.2688
  141MOL   H10845188   1.449   6.777   3.483 -1.8242 -1.0068 -0.8461
  141MOL   H10945189   1.349   6.800   3.350 -0.8622  4.4269  0.6021
  141MOL   H11045190   1.510   6.764   3.311  0.5489  1.5250 -0.7147
  141MOL   H11145191   1.611   6.945   3.228 -2.4317 -0.6300 -0.3129
  141MOL   H11245192   1.693   6.977   3.389  1.1143  3.8919 -0.2113
  141MOL   H11345193   1.621   7.108   3.305 -0.4811 -0.6002  0.3566
  141MOL   C11445194   1.394   7.215   3.653 -0.2558 -0.4378 -0.2983
  141MOL   C11545195   1.449   7.130   3.768 -0.3332  0.2021  0.5516
  141MOL   C11645196   1.605   7.112   3.765  1.1498 -0.6244  0.0335
  141MOL   O11745197   1.645   7.003   3.725  0.5187  0.6017 -0.3764
  141MOL   N11845198   1.687   7.211   3.811 -0.1996 -0.6835  1.0170
  141MOL   C11945199   1.636   7.334   3.871 -0.2435  0.7393  0.1782
  141MOL   C12045200   1.830   7.195   3.804 -0.3506 -0.2632 -0.0874
  141MOL   H12145201   1.420   7.319   3.675 -2.1893 -0.1701  0.8569
  141MOL   H12245202   1.285   7.213   3.658 -0.2924  1.9661  0.7805
  141MOL   H12345203   1.418   7.187   3.855 -1.6424  1.5826 -0.7693
  141MOL   H12445204   1.561   7.306   3.946 -0.7616 -1.2640 -1.0469
  141MOL   H12545205   1.712   7.385   3.930 -1.3972  1.4951  1.0437
  141MOL   H12645206   1.609   7.408   3.796 -1.8772 -0.5939 -0.5852
  141MOL   H12745207   1.887   7.287   3.799  1.6220 -1.4168  0.9033
  141MOL   H12845208   1.860   7.137   3.717 -0.6179 -1.9707  0.9424
  141MOL   H12945209   1.857   7.139   3.893  0.2265  1.9630  1.1563
  141MOL   C13045210   1.375   6.995   3.790  0.5539  0.1454  0.9369
  141MOL   C13145211   1.220   6.996   3.813  0.2077 -0.1743 -0.2849
  141MOL   C13245212   1.185   7.088   3.929 -0.2838  0.3484 -0.3031
  141MOL   O13345213   1.247   7.073   4.032 -0.3811  0.1298  0.1642
  141MOL   N13445214   1.088   7.181   3.913 -0.3675  0.8870 -0.2753
  141MOL   C13545215   1.060   7.258   4.036 -0.0855  0.5806  0.8303
  141MOL   C13645216   1.014   7.211   3.798  0.2886 -0.5152  0.0071
  141MOL   H13745217   1.393   6.940   3.697 -1.2128 -0.5064  0.9558
  141MOL   H13845218   1.427   6.939   3.868  1.1777 -0.7331 -0.1025
  141MOL   H13945219   1.160   7.017   3.724  0.0067 -2.8024 -0.8309
  141MOL   H14045220   0.967   7.315   4.030 -0.0214  0.4625 -1.8491
  141MOL   H14145221   1.047   7.189   4.120 -1.6618 -1.5870 -1.1319
  141MOL   H14245222   1.136   7.332   4.057 -1.3089  2.1542 -0.2094
  141MOL   H14345223   0.964   7.308   3.806 -1.7719 -1.6484  1.6250
  141MOL   H14445224   0.943   7.133   3.772  0.6728 -0.2755 -1.8538
  141MOL   H14545225   1.074   7.225   3.708 -0.3510 -0.8987 -0.4855
  141MOL   C14645226   1.177   6.854   3.855 -0.1070 -0.3606 -0.0035
  141MOL   C14745227   1.152   6.748   3.741 -0.0413  0.5159  0.0032
  141MOL   C14845228   1.016   6.769   3.667  0.3382  0.3089 -0.2653
  141MOL   O14945229   0.920   6.803   3.731  0.4494  0.3393  0.1396
  141MOL   N15045230   1.006   6.724   3.536  0.7796 -0.0360  0.5545
  141MOL   C15145231   1.108   6.677   3.445  0.2458 -0.5369 -0.1057
  141MOL   C15245232   0.882   6.746   3.466  0.6992 -0.8000  0.4443
  141MOL   H15345233   1.248   6.812   3.927  1.2200  4.3409  1.5556
  141MOL   H15445234   1.083   6.849   3.910 -0.2567 -1.2319 -0.3136
  141MOL   H15545235   1.230   6.763   3.666  1.4317 -2.7421  0.7941
  141MOL   H15645236   1.139   6.761   3.384 -2.0605 -1.4679 -2.6556
  141MOL   H15745237   1.189   6.628   3.500 -0.8016 -0.7670  1.2761
  141MOL   H15845238   1.065   6.602   3.379  1.5714 -1.0110 -0.4472
  141MOL   H15945239   0.833   6.655   3.429  1.0675 -1.5563  1.7926
  141MOL   H16045240   0.885   6.819   3.385 -3.3521 -2.3751 -1.2788
  141MOL   H16145241   0.795   6.778   3.524 -1.5554 -1.5254 -2.3855
  141MOL   C16245242   1.142   6.594   3.802 -0.3158 -0.4524  0.0638
  141MOL   C16345243   1.289   6.543   3.832 -0.9705 -0.0810  0.5159
  141MOL   C16445244   1.340   6.480   3.702 -0.1638 -0.3470  0.4177
  141MOL   O16545245   1.264   6.385   3.659 -0.9900  0.0394  0.4301
  141MOL   N16645246   1.468   6.504   3.661  0.2253 -0.0410 -0.9737
  141MOL   C16745247   1.516   6.436   3.541  0.6937 -0.1983 -0.7002
  141MOL   C16845248   1.569   6.589   3.723  0.2746  0.4523  0.2941
  141MOL   H16945249   1.091   6.602   3.897  0.3502 -0.2507  0.4079
  141MOL   H17045250   1.083   6.529   3.737  0.3101 -0.2484 -0.7258
  141MOL   H17145251   1.348   6.624   3.874 -3.1990  1.8623 -0.0030
  141MOL   H17245252   1.435   6.390   3.486 -0.6043 -0.6045  1.4891
  141MOL   H17345253   1.571   6.509   3.481 -2.1134  1.5372 -1.2578
  141MOL   H17445254   1.585   6.354   3.562 -0.6908 -1.7309 -2.1151
  141MOL   H17545255   1.569   6.572   3.831  0.9296  1.7518  0.4967
  141MOL   H17645256   1.552   6.696   3.711  0.4181  0.6618  1.8489
  141MOL   H17745257   1.671   6.569   3.693 -0.8600 -2.5189 -1.9246
  141MOL   C17845258   1.290   6.432   3.948  0.2030 -0.5755 -0.3165
  141MOL   C17945259   1.274   6.505   4.087  0.8311  0.6183  0.1926
  141MOL   C18045260   1.408   6.544   4.147 -0.0418  0.3499  0.5545
  141MOL   O18145261   1.505   6.471   4.124 -0.0549  0.7133 -0.4677
  141MOL   N18245262   1.442   6.651   4.219 -0.4330 -0.7246 -0.6026
  141MOL   C18345263   1.335   6.745   4.255  0.5838  0.3066 -0.5256
  141MOL   C18445264   1.573   6.669   4.271  0.0152  0.3752 -0.5693
  141MOL   H18545265   1.211   6.359   3.930 -0.3756 -0.3284  1.1540
  141MOL   H18645266   1.385   6.380   3.947 -0.1098 -1.1505 -0.3946
  141MOL   H18745267   1.217   6.598   4.078  1.1405  0.8740  0.8259
  141MOL   H18845268   1.261   6.694   4.317  1.3659  0.2971  0.4153
  141MOL   H18945269   1.379   6.825   4.316 -0.1885  0.0438  0.3931
  141MOL   H19045270   1.300   6.790   4.162  0.9893  1.1573 -0.2773
  141MOL   H19145271   1.595   6.761   4.326 -0.1563 -0.8737  1.6573
  141MOL   H19245272   1.640   6.696   4.190  2.7847  1.7202  2.0408
  141MOL   H19345273   1.611   6.587   4.331  2.3710  1.3080 -0.7342
  141MOL   C19445274   1.186   6.429   4.181  0.3231 -0.0637  0.0158
  141MOL   C19545275   1.229   6.296   4.233 -0.3625 -1.2955 -0.2139
  141MOL   C19645276   1.220   6.181   4.131  0.3111  0.6904 -0.5981
  141MOL   O19745277   1.111   6.169   4.076 -0.3138  0.0515  0.6919
  141MOL   N19845278   1.326   6.108   4.103 -0.4735  0.1856 -0.5389
  141MOL   C19945279   1.316   6.007   4.004  1.0616 -0.3335 -0.4286
  141MOL   C20045280   1.451   6.109   4.186  0.4034 -0.1102  0.3714
  141MOL   H20145281   1.157   6.497   4.262  2.3054  0.7045  0.1093
  141MOL   H20245282   1.098   6.413   4.119 -0.7024  1.1769  1.1198
  141MOL   H20345283   1.327   6.313   4.279 -0.3394 -1.1757 -0.3090
  141MOL   H20445284   1.384   5.923   4.018  1.1372 -0.0620  0.9048
  141MOL   H20545285   1.218   5.966   3.985  0.2244 -1.2317  4.9219
  141MOL   H20645286   1.361   6.045   3.913  3.2982 -1.6851  0.0741
  141MOL   H20745287   1.518   6.027   4.163 -0.2801 -0.9755  1.4231
  141MOL   H20845288   1.435   6.112   4.294  1.0061 -0.2136  0.4670
  141MOL   H20945289   1.507   6.200   4.162  1.4654 -0.9376 -0.3256
  141MOL   C21045290   1.154   6.246   4.364 -0.4849  0.1670 -0.5249
  141MOL   C21145291   1.180   6.324   4.496  0.8917  0.5123 -0.5258
  141MOL   C21245292   1.326   6.308   4.556  1.0254 -0.0930 -0.2413
  141MOL   O21345293   1.372   6.191   4.562 -0.2600 -0.2221  0.5558
  141MOL   N21445294   1.389   6.415   4.609 -0.0878  0.0766  0.1033
  141MOL   C21545295   1.511   6.388   4.695 -0.4611 -0.9414 -0.1985
  141MOL   C21645296   1.339   6.547   4.625 -0.7966 -0.1743  0.3114
  141MOL   H21745297   1.049   6.259   4.339 -0.6107  2.6166  1.1378
  141MOL   H21845298   1.161   6.138   4.380  0.9910  0.3330  0.0983
  141MOL   H21945299   1.159   6.429   4.475 -4.4227 -0.5945 -1.3246
  141MOL   H22045300   1.580   6.326   4.639  1.9509 -1.0053  2.7319
  141MOL   H22145301   1.564   6.475   4.732 -0.4393 -2.1224  2.7156
  141MOL   H22245302   1.475   6.325   4.777 -1.3108 -3.1743 -2.2430
  141MOL   H22345303   1.256   6.583   4.564 -0.0177 -0.4336 -0.9039
  141MOL   H22445304   1.416   6.622   4.608 -0.0947 -0.7329  0.9965
  141MOL   H22545305   1.309   6.571   4.727  2.1928  2.9093  0.5678
  141MOL   C22645306   1.075   6.255   4.594  0.6383 -0.1349 -0.8207
  141MOL   C22745307   1.072   6.305   4.741  0.6407 -0.0008 -0.6814
  141MOL   C22845308   1.028   6.188   4.827  0.3843 -0.0221 -0.7728
  141MOL   O22945309   0.912   6.147   4.817 -0.1484 -0.0337 -0.1034
  141MOL   N23045310   1.114   6.134   4.917 -0.5400 -0.3327  0.4179
  141MOL   C23145311   1.059   6.056   5.026  0.3891  0.3335  0.1634
  141MOL   C23245312   1.265   6.153   4.916  0.6899 -0.2388 -0.0884
  141MOL   H23345313   0.981   6.281   4.545 -0.3271  0.6178  1.3659
  141MOL   H23445314   1.091   6.147   4.594  2.5169  0.0809  2.9155
  141MOL   H23545315   1.172   6.341   4.765  0.4459 -0.1403  0.3529
  141MOL   H23645316   0.993   5.978   4.990 -0.4467  0.9238  0.4106
  141MOL   H23745317   1.129   5.999   5.087 -0.6165  0.7387  1.7165
  141MOL   H23845318   1.011   6.120   5.100  0.8570  0.2870  0.5157
  141MOL   H23945319   1.288   6.258   4.933  1.4678 -0.5372  0.7143
  141MOL   H24045320   1.321   6.140   4.823 -1.2875  0.4831 -1.4232
  141MOL   H24145321   1.308   6.088   4.992 -3.9484 -0.6683  2.3361
  141MOL   C24245322   0.983   6.433   4.746 -0.4482  0.6897  0.6798
  141MOL   C24345323   0.974   6.520   4.881 -0.3860  0.3674 -0.5054
  141MOL   C24445324   1.114   6.570   4.938  0.2616  0.2516  0.1667
  141MOL   O24545325   1.190   6.483   4.980 -0.0415  0.5937  0.4033
  141MOL   N24645326   1.140   6.701   4.943  0.4164  0.0590  0.9615
  141MOL   C24745327   1.267   6.750   4.991 -0.4034  0.3286  0.3195
  141MOL   C24845328   1.052   6.806   4.885 -0.1533 -0.0670 -0.3473
  141MOL   H24945329   1.022   6.499   4.669 -2.2253  1.2818  0.2639
  141MOL   H25045330   0.881   6.415   4.710 -0.1238 -0.7628  0.4512
  141MOL   H25145331   0.909   6.606   4.865 -0.1142  1.1237  2.2563
  141MOL   H25245332   1.303   6.686   5.071  0.4434 -0.1245 -0.4095
  141MOL   H25345333   1.342   6.743   4.912 -1.6009 -1.6094 -0.6685
  141MOL   H25445334   1.263   6.856   5.016  0.8091  0.2831  0.7705
  141MOL   H25545335   1.016   6.792   4.784 -0.4113 -0.1875 -0.2397
  141MOL   H25645336   1.093   6.907   4.884 -1.3281  0.5027  2.8094
  141MOL   H25745337   0.959   6.820   4.941  0.0105  0.2145 -0.1416
  141MOL   C25845338   0.902   6.439   4.995  0.4459 -0.1633 -0.5057
  141MOL   C25945339   0.799   6.506   5.094 -0.3079  0.1419  0.2648
  141MOL   C26045340   0.866   6.616   5.174  0.5027  0.0508 -0.2203
  141MOL   O26145341   0.947   6.586   5.260 -0.0647  0.0520 -0.2358
  141MOL   N26245342   0.827   6.746   5.169  0.4076  0.7990 -0.4398
  141MOL   C26345343   0.887   6.847   5.274  0.9834  0.8710 -0.2074
  141MOL   C26445344   0.736   6.806   5.068  0.3477  0.3222  0.3540
  141MOL   H26545345   0.840   6.363   4.948  1.6091 -0.9178 -0.8374
  141MOL   H26645346   0.972   6.393   5.064  1.3731  0.7357 -0.8266
  141MOL   H26745347   0.718   6.545   5.031 -1.3871 -1.2492  0.7545
  141MOL   H26845348   0.865   6.805   5.372  0.9860 -1.7478 -1.2688
  141MOL   H26945349   0.993   6.851   5.250  1.4399 -2.0239  1.0353
  141MOL   H27045350   0.853   6.949   5.261 -0.0415  0.7630  1.4913
  141MOL   H27145351   0.767   6.910   5.056  0.1493  0.6430  2.4824
  141MOL   H27245352   0.636   6.805   5.113  0.1153 -0.2408 -0.1735
  141MOL   H27345353   0.736   6.751   4.974  2.4324 -2.3841  1.8593
  141MOL   C27445354   0.745   6.393   5.185  0.0113  0.3532 -0.0324
  141MOL   C27545355   0.591   6.392   5.201  0.6870  0.2268  0.1926
  141MOL   C27645356   0.541   6.515   5.275  0.2142 -0.1508 -0.0410
  141MOL   O27745357   0.607   6.566   5.369 -0.2354 -0.2843  1.0539
  141MOL   N27845358   0.434   6.589   5.220 -0.1486  0.2393  0.1810
  141MOL   C27945359   0.392   6.711   5.283 -0.4616  0.2574 -0.0654
  141MOL   C28045360   0.346   6.531   5.111  0.1225  0.0777 -0.3981
  141MOL   H28145361   0.776   6.304   5.132 -0.8795 -0.3848  0.6568
  141MOL   H28245362   0.795   6.402   5.282  1.0473 -0.7130 -0.4648
  141MOL   H28345363   0.545   6.373   5.104 -0.3023 -0.4546  0.7835
  141MOL   H28445364   0.310   6.765   5.234  0.1886  0.7953 -0.5774
  141MOL   H28545365   0.358   6.690   5.384  2.8605  3.0353  1.7327
  141MOL   H28645366   0.478   6.777   5.298  0.5002 -0.5378 -1.9367
  141MOL   H28745367   0.372   6.562   5.010  0.8762  1.0180  0.0744
  141MOL   H28845368   0.244   6.567   5.129  0.6563  1.3863  0.0399
  141MOL   H28945369   0.349   6.422   5.114  1.2906  0.1235  0.6147
  141MOL   C29045370   0.547   6.272   5.286  0.1128  0.1014  0.1834
  141MOL   C29145371   0.567   6.133   5.219 -0.4397 -0.0478  0.6834
  141MOL   C29245372   0.486   6.120   5.092  0.2442  0.1913  0.4302
  141MOL   O29345373   0.364   6.128   5.099 -0.6894  0.1645 -0.0407
  141MOL   N29445374   0.552   6.107   4.974 -0.1686 -0.1446  0.4975
  141MOL   C29545375   0.496   6.156   4.847  0.0664 -0.0800  0.5709
  141MOL   C29645376   0.662   6.007   4.956 -0.6760  0.2765 -0.5716
  141MOL   H29745377   0.599   6.262   5.382  1.2531 -0.6987 -0.5026
  141MOL   H29845378   0.441   6.277   5.311  0.1144 -0.4547  0.3301
  141MOL   H29945379   0.672   6.135   5.188 -0.8159 -2.8151 -0.9300
  141MOL   H30045380   0.428   6.240   4.863  1.7457  1.8176 -1.9431
  141MOL   H30145381   0.576   6.184   4.778 -0.4855 -0.4615 -0.2412
  141MOL   H30245382   0.435   6.075   4.806 -1.5459 -0.0107  2.7636
  141MOL   H30345383   0.693   6.008   4.852 -0.0835  1.2341 -0.3881
  141MOL   H30445384   0.639   5.907   4.992 -0.1117  0.3257 -0.0697
  141MOL   H30545385   0.737   6.048   5.023 -1.1869  2.3607 -1.2397
  141MOL   C30645386   0.529   6.023   5.319 -0.0998 -0.0735  0.6435
  141MOL   C30745387   0.606   5.890   5.304  0.5746  0.7183 -0.1889
  141MOL   C30845388   0.753   5.902   5.329  0.6143 -0.1525  0.6522
  141MOL   O30945389   0.798   6.010   5.372 -0.0012  0.1014  0.6078
  141MOL   N31045390   0.824   5.795   5.290 -0.1756  0.3870 -0.2234
  141MOL   C31145391   0.777   5.661   5.251  0.2692 -0.1193 -0.1200
  141MOL   C31245392   0.970   5.813   5.274 -0.0273  0.2165  0.1185
  141MOL   H31345393   0.549   6.057   5.421  2.6204  2.9987 -0.8006
  141MOL   H31445394   0.423   6.002   5.310 -0.1306  0.8327 -1.1220
  141MOL   H31545395   0.565   5.817   5.374  0.0616  0.4798 -0.7326
  141MOL   H31645396   0.693   5.665   5.182 -0.1178  1.3655  0.4025
  141MOL   H31745397   0.855   5.600   5.205 -0.1996 -0.6561 -0.1918
  141MOL   H31845398   0.747   5.610   5.342  0.0069  1.3402  0.6246
  141MOL   H31945399   1.008   5.915   5.276  1.4826 -0.3058 -0.5789
  141MOL   H32045400   0.997   5.760   5.183 -1.2267 -4.1382  2.1518
  141MOL   H32145401   1.033   5.772   5.354  0.8799  2.3118  0.5025
  141MOL   H32245402   0.585   5.844   5.207  0.8810 -1.9535  0.9557
  142MOL     C145403   6.235   3.364   1.529 -0.0531  1.0372  0.2877
  142MOL     C245404   6.249   3.458   1.401 -0.5033  0.0887  0.1674
  142MOL     C345405   6.339   3.414   1.288 -0.1224  0.1664 -0.7746
  142MOL     O445406   6.440   3.354   1.317 -0.0886  0.5018  0.1600
  142MOL     N545407   6.304   3.435   1.160 -0.1156  0.4976 -0.1271
  142MOL     C645408   6.390   3.382   1.050  0.2419 -0.4209 -0.3742
  142MOL     C745409   6.200   3.530   1.108 -0.7471 -0.3126 -0.6602
  142MOL     H845410   6.324   3.381   1.590  0.8782 -0.3903 -0.6398
  142MOL     H945411   6.236   3.256   1.516 -0.8908  0.9552  0.9012
  142MOL    H1045412   6.147   3.456   1.362 -0.7854 -0.6715  0.9305
  142MOL    H1145413   6.436   3.463   0.994  1.1790 -1.2612 -0.8453
  142MOL    H1245414   6.467   3.311   1.084 -0.0564 -0.7688 -0.4206
  142MOL    H1345415   6.319   3.330   0.986  0.0311  0.3627 -0.7687
  142MOL    H1445416   6.203   3.547   1.000 -1.4420 -0.5948 -0.7264
  142MOL    H1545417   6.191   3.622   1.165 -0.5981 -1.1127  0.6760
  142MOL    H1645418   6.110   3.472   1.129 -1.4331  1.3037  0.9577
  142MOL    H1745419   6.146   3.386   1.587 -0.7104  1.4444 -0.8752
  142MOL    C1845420   6.284   3.606   1.439  0.2393  0.7872  0.1352
  142MOL    C1945421   6.188   3.683   1.537 -0.4166 -0.4264 -0.0194
  142MOL    C2045422   6.056   3.711   1.464  0.2442  0.1179  0.4270
  142MOL    O2145423   6.056   3.746   1.344 -0.0927 -0.5432 -0.7078
  142MOL    N2245424   5.940   3.680   1.527 -0.2569 -0.1466 -0.3686
  142MOL    C2345425   5.813   3.696   1.452  0.8173  0.1510  0.5017
  142MOL    C2445426   5.930   3.608   1.659  0.2696 -0.3360 -0.1499
  142MOL    H2545427   6.379   3.601   1.493  0.4910 -0.0502 -0.3760
  142MOL    H2645428   6.310   3.656   1.346  3.0333  0.5936  0.7652
  142MOL    H2745429   6.176   3.629   1.631  1.9963  0.5939  0.9134
  142MOL    H2845430   5.801   3.635   1.362  0.0493  2.8349 -1.3077
  142MOL    H2945431   5.739   3.657   1.521  1.2918 -1.1587  0.2763
  142MOL    H3045432   5.785   3.800   1.431 -0.5053 -0.5607 -1.3350
  142MOL    H3145433   5.829   3.622   1.699  0.3614  0.5764 -0.2232
  142MOL    H3245434   5.993   3.625   1.746  0.8895 -1.0311 -0.4533
  142MOL    H3345435   5.945   3.501   1.644  2.4380 -0.3636  1.8530
  142MOL    C3445436   6.257   3.825   1.570 -1.1368 -0.2819  0.2964
  142MOL    C3545437   6.167   3.927   1.660  0.1927  0.0230  0.1341
  142MOL    C3645438   6.198   4.072   1.629  0.2937 -0.0078 -0.6822
  142MOL    O3745439   6.306   4.116   1.676  0.2418  0.0290 -0.7468
  142MOL    N3845440   6.127   4.148   1.545 -0.4221 -0.3092 -0.0521
  142MOL    C3945441   6.164   4.284   1.516  0.0854  0.1812 -0.2834
  142MOL    C4045442   6.029   4.101   1.449  0.3422  0.4403  0.2485
  142MOL    H4145443   6.356   3.804   1.610 -0.4121  1.9826 -0.2754
  142MOL    H4245444   6.284   3.869   1.474  1.0068 -0.4843  0.7978
  142MOL    H4345445   6.065   3.910   1.628  0.2161  2.7455 -1.4807
  142MOL    H4445446   6.262   4.314   1.555 -0.0582  0.4335 -0.1131
  142MOL    H4545447   6.177   4.291   1.408 -0.7331 -1.3547 -0.4812
  142MOL    H4645448   6.091   4.353   1.559 -0.2349 -0.2867 -0.0793
  142MOL    H4745449   6.069   4.048   1.363 -2.4778  1.4158 -1.7404
  142MOL    H4845450   5.981   4.190   1.408  0.8065 -0.1682 -1.6880
  142MOL    H4945451   5.957   4.042   1.505  0.1642 -0.8090 -1.2578
  142MOL    C5045452   6.180   3.887   1.804  0.3127 -0.2297  1.0228
  142MOL    C5145453   6.101   3.968   1.912 -0.1163 -0.2567  0.1494
  142MOL    C5245454   6.160   3.931   2.053  0.3302  0.9774 -0.0113
  142MOL    O5345455   6.129   3.823   2.104 -0.5373  0.6590 -0.1015
  142MOL    N5445456   6.247   4.010   2.116  0.3962  0.0889  0.2661
  142MOL    C5545457   6.304   3.971   2.244 -0.6192 -0.5166 -0.0096
  142MOL    C5645458   6.291   4.141   2.069  0.1740 -0.2463 -0.1326
  142MOL    H5745459   6.158   3.782   1.825 -0.3492 -0.0806  1.0508
  142MOL    H5845460   6.284   3.908   1.830 -0.2240  1.1313  2.1116
  142MOL    H5945461   6.098   4.076   1.897 -1.9707 -0.2437  0.5209
  142MOL    H6045462   6.229   3.948   2.320 -3.0497  1.9187 -1.6148
  142MOL    H6145463   6.370   3.886   2.229 -0.2342  0.0677 -1.6602
  142MOL    H6245464   6.371   4.051   2.276  0.4427 -0.9366 -1.1437
  142MOL    H6345465   6.205   4.208   2.068 -0.3344 -0.8635 -2.8795
  142MOL    H6445466   6.321   4.143   1.964 -2.2578 -0.0220 -0.8422
  142MOL    H6545467   6.383   4.186   2.108 -0.4982  0.7176  0.3540
  142MOL    C6645468   5.952   3.933   1.916  0.1159  0.0424  0.0010
  142MOL    C6745469   5.862   4.043   1.861  0.3729  0.3466  0.2394
  142MOL    C6845470   5.851   4.162   1.957  0.2681 -0.9802  0.1998
  142MOL    O6945471   5.810   4.142   2.071  0.6198 -0.1566  0.2313
  142MOL    N7045472   5.886   4.285   1.904  0.2503  0.3071 -0.9519
  142MOL    C7145473   5.928   4.307   1.769 -0.0400 -0.0609  0.3279
  142MOL    C7245474   5.885   4.404   1.988  0.0632  0.4533  0.2726
  142MOL    H7345475   5.939   3.845   1.853  2.7248 -0.2715 -0.1472
  142MOL    H7445476   5.918   3.916   2.018  0.4703  1.7501  0.4223
  142MOL    H7545477   5.902   4.062   1.762 -0.4440  0.1884 -0.1248
  142MOL    H7645478   5.866   4.251   1.700  0.4932 -3.1060  2.2159
  142MOL    H7745479   5.931   4.405   1.722  1.9247  0.2559  1.0692
  142MOL    H7845480   6.033   4.279   1.762  0.3119  1.4504 -0.8400
  142MOL    H7945481   5.784   4.434   2.013  0.2743  0.9877  0.4950
  142MOL    H8045482   5.946   4.489   1.956  1.4384  0.5496  3.0251
  142MOL    H8145483   5.924   4.376   2.086  0.5259  0.5528  0.1186
  142MOL    C8245484   5.716   4.001   1.803  0.7142  0.3578  0.5245
  142MOL    C8345485   5.604   3.944   1.898 -0.1799 -0.2870 -0.7554
  142MOL    C8445486   5.653   3.805   1.952  0.7829  0.2520 -0.2498
  142MOL    O8545487   5.684   3.723   1.865  0.4701 -0.6719 -0.0887
  142MOL    N8645488   5.667   3.771   2.083 -0.5255 -0.3586 -0.2619
  142MOL    C8745489   5.734   3.644   2.124  0.1135  0.0016  0.2826
  142MOL    C8845490   5.616   3.846   2.193  0.1031  0.1133 -0.5471
  142MOL    H8945491   5.668   4.086   1.755  0.3007 -0.8739 -1.3183
  142MOL    H9045492   5.744   3.928   1.726  0.8615  2.3482 -1.3574
  142MOL    H9145493   5.580   4.018   1.975  1.1455  1.0934 -1.6391
  142MOL    H9245494   5.810   3.654   2.202 -0.1397 -1.0974  0.6817
  142MOL    H9345495   5.663   3.579   2.174 -1.6672  2.5239  1.1193
  142MOL    H9445496   5.763   3.583   2.038 -0.8209  0.5653 -0.4277
  142MOL    H9545497   5.512   3.870   2.169 -0.3586 -1.7311 -0.4998
  142MOL    H9645498   5.661   3.945   2.193  1.7372 -0.5558  2.2447
  142MOL    H9745499   5.648   3.806   2.290  2.6592 -0.7272 -1.7040
  142MOL    C9845500   5.471   3.912   1.815  0.6486  0.0292  0.1412
  142MOL    C9945501   5.343   3.919   1.903 -0.2286 -0.9080 -0.1304
  142MOL   C10045502   5.303   3.790   1.983  0.0746 -0.6493  0.2083
  142MOL   O10145503   5.316   3.676   1.934  0.0147 -0.0377 -0.9208
  142MOL   N10245504   5.263   3.808   2.109  0.0507  0.1397 -0.0034
  142MOL   C10345505   5.230   3.938   2.169  0.3637  0.0383  0.1187
  142MOL   C10445506   5.263   3.698   2.204 -0.0988 -0.1301  0.5035
  142MOL   H10545507   5.475   3.976   1.727 -0.4227 -1.2208 -0.8440
  142MOL   H10645508   5.477   3.814   1.769 -0.3653 -0.2330  0.5477
  142MOL   H10745509   5.358   4.000   1.975  0.0345 -1.1150  0.0450
  142MOL   H10845510   5.161   3.993   2.104  0.1870 -0.4614 -0.1200
  142MOL   H10945511   5.177   3.934   2.264  0.3787  1.2691  0.1845
  142MOL   H11045512   5.321   3.993   2.191  1.1489 -1.4082  0.5492
  142MOL   H11145513   5.341   3.628   2.176 -0.7145  0.0172 -1.6553
  142MOL   H11245514   5.165   3.651   2.195 -0.7382  1.0157  1.2442
  142MOL   H11345515   5.289   3.717   2.308 -2.5384 -1.3920  1.3879
  142MOL   C11445516   5.218   3.958   1.807  0.5368 -0.4748 -0.1925
  142MOL   C11545517   5.205   4.106   1.765 -0.2303  0.5957 -0.0024
  142MOL   C11645518   5.141   4.191   1.883 -0.9481 -0.2637  0.5741
  142MOL   O11745519   5.020   4.174   1.904 -0.6827  0.2860 -0.4304
  142MOL   N11845520   5.215   4.277   1.954  0.0082  0.2507  0.1401
  142MOL   C11945521   5.163   4.353   2.069 -0.0157  0.1618 -0.0902
  142MOL   C12045522   5.357   4.293   1.923  0.0092 -0.3059  0.3472
  142MOL   H12145523   5.212   3.885   1.725  0.4714 -2.2789  1.3809
  142MOL   H12245524   5.125   3.946   1.863  0.6572  0.7161  0.2579
  142MOL   H12345525   5.303   4.134   1.726 -1.2084  1.5070 -1.8304
  142MOL   H12445526   5.060   4.384   2.052 -0.2890 -0.4175  0.5037
  142MOL   H12545527   5.160   4.306   2.168  0.9494  0.9592  0.3271
  142MOL   H12645528   5.222   4.442   2.091 -1.1126  0.4421  1.9300
  142MOL   H12745529   5.412   4.363   1.986 -0.6701  1.5425 -1.0548
  142MOL   H12845530   5.366   4.342   1.826  1.2771  0.6678  0.9294
  142MOL   H12945531   5.405   4.196   1.914 -0.7969 -0.6758 -0.0323
  142MOL   C13045532   5.109   4.108   1.635 -0.1975 -0.0374  0.4611
  142MOL   C13145533   5.154   4.022   1.510 -0.2418 -0.0284 -0.2694
  142MOL   C13245534   5.306   4.024   1.488 -0.4683  0.1639  0.7442
  142MOL   O13345535   5.356   4.136   1.497 -0.1866  0.6348 -0.0534
  142MOL   N13445536   5.382   3.916   1.453  0.3748 -0.0224  0.4332
  142MOL   C13545537   5.336   3.772   1.455  0.1140  0.6404 -0.4239
  142MOL   C13645538   5.527   3.933   1.436  0.8749  0.3583  0.4779
  142MOL   H13745539   5.012   4.071   1.669 -0.8962  0.8241 -0.5555
  142MOL   H13845540   5.094   4.213   1.609 -0.0913 -0.4463 -1.2873
  142MOL   H13945541   5.117   3.920   1.522  0.3169 -0.1953  0.0660
  142MOL   H14045542   5.241   3.743   1.410  0.4809 -0.7943 -0.3294
  142MOL   H14145543   5.405   3.700   1.411  1.0926  0.2334  1.7014
  142MOL   H14245544   5.340   3.734   1.557  0.8191  0.6904 -0.4299
  142MOL   H14345545   5.574   3.843   1.395 -0.0054 -1.2418  2.8028
  142MOL   H14445546   5.571   3.933   1.536  0.1163 -1.4485  0.8491
  142MOL   H14545547   5.560   4.005   1.362  1.2739  1.9799  2.1901
  142MOL   C14645548   5.097   4.097   1.383 -0.3625  0.0520  0.0802
  142MOL   C14745549   4.947   4.087   1.361 -0.1899  0.3781 -0.1099
  142MOL   C14845550   4.915   3.945   1.301 -1.0255 -0.6476  0.6908
  142MOL   O14945551   4.977   3.911   1.203  0.9261 -0.5560  0.1226
  142MOL   N15045552   4.834   3.870   1.369  0.3716 -0.1770  0.0727
  142MOL   C15145553   4.775   3.899   1.504 -0.1834  0.6978 -0.0881
  142MOL   C15245554   4.794   3.738   1.312  0.2811 -0.1331 -0.0869
  142MOL   H15345555   5.134   4.199   1.393  2.5153 -1.2380  3.4062
  142MOL   H15445556   5.144   4.059   1.293  2.0274  2.1689  0.3902
  142MOL   H15545557   4.904   4.100   1.461 -2.8490 -4.3841 -0.5088
  142MOL   H15645558   4.734   4.000   1.509  1.3455  1.3271 -0.2666
  142MOL   H15745559   4.688   3.839   1.532  0.1174  1.3632  2.3817
  142MOL   H15845560   4.841   3.880   1.588 -0.1181 -0.4818 -0.3926
  142MOL   H15945561   4.733   3.750   1.223  1.5867  1.3035 -0.8191
  142MOL   H16045562   4.745   3.673   1.385  1.2241  0.8838  1.4887
  142MOL   H16145563   4.885   3.688   1.279 -0.6703 -3.5287  2.1930
  142MOL   C16245564   4.897   4.198   1.263 -0.0363 -0.0973  0.5144
  142MOL   C16345565   4.790   4.291   1.312 -0.7321 -0.0605  0.1450
  142MOL   C16445566   4.658   4.221   1.351 -0.8889  0.5441 -0.0263
  142MOL   O16545567   4.635   4.106   1.306 -0.3973 -0.6776  0.0065
  142MOL   N16645568   4.573   4.279   1.434  0.3993  0.8497  0.2851
  142MOL   C16745569   4.587   4.411   1.484  0.3413  0.0716  0.6541
  142MOL   C16845570   4.454   4.213   1.486 -0.2448  0.0873  0.0930
  142MOL   H16945571   4.979   4.267   1.246 -0.1012  0.0349  0.7392
  142MOL   H17045572   4.872   4.164   1.162  0.7638 -0.7089  0.5213
  142MOL   H17145573   4.838   4.334   1.400  0.6512  1.4613 -1.3175
  142MOL   H17245574   4.537   4.474   1.410  3.6059  2.4023  0.3062
  142MOL   H17345575   4.541   4.435   1.580 -1.2318 -1.9268  0.4182
  142MOL   H17445576   4.688   4.441   1.511  0.2004  0.9773  0.1917
  142MOL   H17545577   4.453   4.216   1.595  1.6657  1.3534  0.0992
  142MOL   H17645578   4.446   4.109   1.456 -2.4947 -0.5531  2.7017
  142MOL   H17745579   4.361   4.265   1.458  0.2594  0.6587 -0.5435
  142MOL   C17845580   4.774   4.409   1.212  0.4133  0.0292  0.3991
  142MOL   C17945581   4.667   4.392   1.095  0.0267 -0.3361  0.3979
  142MOL   C18045582   4.733   4.381   0.960  0.3907 -0.0717  0.0279
  142MOL   O18145583   4.788   4.477   0.905 -0.6797  0.0230 -0.0231
  142MOL   N18245584   4.739   4.259   0.900  0.1851  0.2535  0.0327
  142MOL   C18345585   4.803   4.240   0.770 -0.0370  0.4185 -0.2428
  142MOL   C18445586   4.669   4.136   0.943  0.2228  0.1035 -0.5348
  142MOL   H18545587   4.760   4.496   1.277 -0.7052 -0.8299  1.3394
  142MOL   H18645588   4.868   4.424   1.159  0.1026 -0.7960 -0.3914
  142MOL   H18745589   4.614   4.301   1.123  0.8778 -0.5602  1.2990
  142MOL   H18845590   4.880   4.315   0.753  0.9836 -0.8360 -1.1964
  142MOL   H18945591   4.842   4.139   0.769  1.6046  0.9810  2.1699
  142MOL   H19045592   4.742   4.268   0.684 -0.4966 -1.6300 -0.6104
  142MOL   H19145593   4.660   4.061   0.865  0.0443 -0.9063  0.4506
  142MOL   H19245594   4.564   4.150   0.969  0.3208 -0.3465  0.1096
  142MOL   H19345595   4.715   4.093   1.032 -0.5114  1.6347  0.6198
  142MOL   C19445596   4.570   4.513   1.093 -0.0369 -0.1587  0.3639
  142MOL   C19545597   4.430   4.514   1.021  0.2336  0.2699  0.0586
  142MOL   C19645598   4.327   4.421   1.094 -0.0690 -0.5200 -0.3155
  142MOL   O19745599   4.361   4.313   1.128  0.2745 -0.1827 -0.0197
  142MOL   N19845600   4.203   4.468   1.116  0.6995 -0.2538 -1.0085
  142MOL   C19945601   4.099   4.387   1.182 -0.3114 -0.2289 -0.2312
  142MOL   C20045602   4.146   4.599   1.078  0.7044  0.1403 -0.4586
  142MOL   H20145603   4.552   4.537   1.198 -1.8720  1.7373 -0.3435
  142MOL   H20245604   4.616   4.601   1.048 -1.8517 -0.6731 -2.6053
  142MOL   H20345605   4.393   4.614   1.042 -0.3206  0.3672 -1.2863
  142MOL   H20445606   4.126   4.373   1.287  0.4809 -0.0919 -0.4183
  142MOL   H20545607   4.006   4.444   1.184 -0.5145 -0.5484 -0.6970
  142MOL   H20645608   4.090   4.289   1.136 -3.3439  0.6847 -1.7166
  142MOL   H20745609   4.180   4.675   1.148 -1.7809  0.8438  0.0107
  142MOL   H20845610   4.037   4.601   1.072  0.6292 -0.8490  0.3450
  142MOL   H20945611   4.182   4.637   0.983 -2.1175  0.2929 -1.4988
  142MOL   C21045612   4.425   4.480   0.868  0.7456  0.4287 -0.6953
  142MOL   C21145613   4.474   4.605   0.773  0.4464 -0.5162 -1.0750
  142MOL   C21245614   4.385   4.728   0.802  0.0552  0.0445 -0.4240
  142MOL   O21345615   4.270   4.731   0.756 -0.4983 -0.2101 -0.0282
  142MOL   N21445616   4.429   4.834   0.881 -0.0864  0.4919 -0.0207
  142MOL   C21545617   4.568   4.863   0.913  0.7643 -0.5854 -0.7023
  142MOL   C21645618   4.338   4.931   0.938 -0.0376  0.0990 -0.3976
  142MOL   H21745619   4.491   4.394   0.861 -0.3474 -0.7059  2.0555
  142MOL   H21845620   4.326   4.447   0.835  1.1606 -0.7319 -0.7828
  142MOL   H21945621   4.577   4.618   0.807  0.3737 -1.1418 -0.5940
  142MOL   H22045622   4.651   4.819   0.857  1.6082 -1.3913  1.1314
  142MOL   H22145623   4.588   4.969   0.929  0.3910 -0.9365  2.5681
  142MOL   H22245624   4.580   4.830   1.017 -0.9915  0.8203 -0.0160
  142MOL   H22345625   4.370   4.984   1.028 -1.1821 -0.0062  0.0758
  142MOL   H22445626   4.251   4.879   0.978  2.8929 -2.3723  3.1893
  142MOL   H22545627   4.315   5.002   0.858 -0.5242  0.4160  0.0187
  142MOL   C22645628   4.477   4.564   0.621  0.2065 -0.5332 -0.6839
  142MOL   C22745629   4.561   4.644   0.519 -0.1747 -0.0274 -0.1660
  142MOL   C22845630   4.510   4.613   0.378 -0.1239 -0.5024  0.2590
  142MOL   O22945631   4.556   4.516   0.322 -0.4755 -0.0798 -0.6156
  142MOL   N23045632   4.434   4.700   0.316  0.1355 -0.6184  0.0998
  142MOL   C23145633   4.406   4.692   0.174  0.2928  0.2533  0.6109
  142MOL   C23245634   4.348   4.793   0.391 -0.2477 -0.6993 -0.4894
  142MOL   H23345635   4.495   4.457   0.611  1.1677 -0.6907  2.0643
  142MOL   H23445636   4.371   4.567   0.596 -0.2545 -0.0604  1.2492
  142MOL   H23545637   4.547   4.751   0.539 -0.5982  0.1108 -1.1544
  142MOL   H23645638   4.493   4.683   0.108 -0.2351  1.3330 -0.2446
  142MOL   H23745639   4.342   4.609   0.148  0.1175  0.9844 -1.3861
  142MOL   H23845640   4.353   4.777   0.132 -0.6621 -0.4027  0.4750
  142MOL   H23945641   4.326   4.756   0.491  3.4487  0.2365  0.7478
  142MOL   H24045642   4.257   4.810   0.334  0.1486  2.8176 -0.1495
  142MOL   H24145643   4.398   4.890   0.393 -0.9217 -0.3539 -0.3730
  142MOL   C24245644   4.706   4.605   0.551  0.5172 -0.6402  0.3039
  142MOL   C24345645   4.824   4.626   0.450 -0.4639  0.0090  0.0942
  142MOL   C24445646   4.962   4.574   0.515  0.2455  0.0411 -0.3191
  142MOL   O24545647   4.976   4.594   0.635 -0.5504  0.4297  0.0315
  142MOL   N24645648   5.041   4.496   0.443  0.1390 -0.5197  0.1007
  142MOL   C24745649   5.074   4.524   0.308  0.6294  0.2670 -0.0202
  142MOL   C24845650   5.145   4.421   0.509 -0.2885 -0.5127  0.0492
  142MOL   H24945651   4.737   4.657   0.642  1.8193 -1.8973  0.6018
  142MOL   H25045652   4.710   4.500   0.581 -2.2907 -1.7228 -2.9187
  142MOL   H25145653   4.797   4.556   0.371 -4.3268  1.4142  0.0562
  142MOL   H25245654   4.991   4.521   0.238  0.3246  4.3598  0.0107
  142MOL   H25345655   5.125   4.621   0.316  0.6888  0.0330  3.1427
  142MOL   H25445656   5.143   4.448   0.271 -0.1189 -0.0082 -0.8579
  142MOL   H25545657   5.205   4.350   0.454  0.0793  0.6836 -1.1290
  142MOL   H25645658   5.098   4.369   0.593  0.2880  0.6785  1.1343
  142MOL   H25745659   5.208   4.501   0.547  0.4239  0.2796 -2.6635
  142MOL   C25845660   4.832   4.764   0.383  0.1372 -0.2696  0.4597
  142MOL   C25945661   4.918   4.878   0.445  0.3299  0.2669  0.4581
  142MOL   C26045662   4.882   4.920   0.590 -1.0728 -0.0500  0.5177
  142MOL   O26145663   4.765   4.945   0.613 -0.1002 -0.6314 -1.0100
  142MOL   N26245664   4.976   4.929   0.692 -0.0694 -0.6058 -0.5240
  142MOL   C26345665   4.942   4.920   0.832 -0.0244  0.5417  0.1770
  142MOL   C26445666   5.115   4.943   0.662  0.3576  0.6520  0.7088
  142MOL   H26545667   4.877   4.752   0.285 -2.7725  0.9814 -1.1034
  142MOL   H26645668   4.736   4.815   0.374  2.1255  3.2316 -1.8334
  142MOL   H26745669   5.015   4.828   0.447 -0.3266 -1.0370  0.1924
  142MOL   H26845670   4.843   4.959   0.854 -1.9910 -0.2832 -6.1829
  142MOL   H26945671   4.928   4.812   0.835 -0.7800  0.6714  1.6257
  142MOL   H27045672   5.019   4.949   0.904 -1.6600  0.6738  1.9093
  142MOL   H27145673   5.177   4.984   0.742 -0.5656  2.3581  0.5817
  142MOL   H27245674   5.127   5.007   0.575 -0.9129 -0.3821 -0.2356
  142MOL   H27345675   5.144   4.842   0.633 -2.9958  0.3014 -1.5964
  142MOL   C27445676   4.934   4.995   0.351  0.1043 -0.5472 -0.3735
  142MOL   C27545677   4.825   5.098   0.322  0.3365  0.2024  0.3377
  142MOL   C27645678   4.826   5.147   0.176 -0.2481  0.5511 -0.3188
  142MOL   O27745679   4.911   5.231   0.143 -0.4063 -0.0174 -0.4548
  142MOL   N27845680   4.734   5.093   0.089 -0.5675  0.2178  0.3126
  142MOL   C27945681   4.637   4.993   0.106  0.3646 -0.5049  0.1205
  142MOL   C28045682   4.728   5.140   7.806  0.7699  0.1044 -0.6710
  142MOL   H28145683   5.024   5.046   0.385 -1.3088  1.8612 -0.1576
  142MOL   H28245684   4.960   4.948   0.256 -2.1691 -0.9084 -0.8607
  142MOL   H28345685   4.732   5.047   0.350  1.4221 -0.3517  3.1429
  142MOL   H28445686   4.553   5.037   0.161 -0.6017 -0.8259 -1.0935
  142MOL   H28545687   4.588   4.950   0.019 -0.4421 -2.3542  1.4558
  142MOL   H28645688   4.677   4.908   0.162 -0.8967 -1.2504 -0.0883
  142MOL   H28745689   4.630   5.133   7.760  0.8986 -0.3840 -0.8797
  142MOL   H28845690   4.800   5.098   7.736  0.9568 -1.1459  0.2563
  142MOL   H28945691   4.743   5.248   7.803 -1.9625  0.5876  1.2026
  142MOL   C29045692   4.831   5.217   0.422 -0.1228  0.2463 -0.7483
  142MOL   C29145693   4.703   5.307   0.443 -0.0786 -0.1862 -0.1596
  142MOL   C29245694   4.582   5.216   0.464  0.3818  0.2854 -0.3880
  142MOL   O29345695   4.528   5.166   0.362  0.2434  0.7944 -0.0942
  142MOL   N29445696   4.541   5.188   0.595 -0.0640 -0.2464 -0.0976
  142MOL   C29545697   4.610   5.235   0.721  0.4762  0.2193  0.5212
  142MOL   C29645698   4.418   5.113   0.619 -0.4771 -0.4422  0.4341
  142MOL   H29745699   4.872   5.187   0.518 -1.3046 -0.9865 -0.6042
  142MOL   H29845700   4.918   5.275   0.392 -1.0491  3.5657  2.6931
  142MOL   H29945701   4.720   5.383   0.519  3.2000 -1.9361  0.9392
  142MOL   H30045702   4.601   5.338   0.756 -0.7113  1.2024 -2.4583
  142MOL   H30145703   4.587   5.181   0.812 -0.8747 -0.4135 -0.1898
  142MOL   H30245704   4.718   5.225   0.708  0.5865  0.7561  1.0102
  142MOL   H30345705   4.429   5.008   0.644  0.4811 -0.2174  0.9569
  142MOL   H30445706   4.357   5.115   0.528  2.8601 -1.8742 -1.9552
  142MOL   H30545707   4.349   5.159   0.690 -1.2140 -0.5102 -0.2323
  142MOL   C30645708   4.675   5.404   0.318 -0.1341 -0.9284 -0.1888
  142MOL   C30745709   4.559   5.497   0.358 -0.3277 -0.1233  0.0325
  142MOL   C30845710   4.524   5.591   0.247  0.9589 -0.1604 -0.1272
  142MOL   O30945711   4.586   5.587   0.139  0.3265  0.4009  0.6252
  142MOL   N31045712   4.426   5.683   0.276  0.0303 -0.2144  0.9166
  142MOL   C31145713   4.368   5.766   0.167  0.1080  0.2087 -0.4916
  142MOL   C31245714   4.393   5.711   0.414  0.3393  0.2512 -0.9746
  142MOL   H31345715   4.762   5.465   0.293 -1.3341  1.7255  1.7967
  142MOL   H31445716   4.657   5.342   0.231 -1.2936 -1.5236  0.4579
  142MOL   H31545717   4.460   5.450   0.362  0.0696 -1.1515 -1.5773
  142MOL   H31645718   4.447   5.809   0.106  0.0658  0.1802 -0.5657
  142MOL   H31745719   4.308   5.711   0.095 -0.5616  2.3417 -1.5979
  142MOL   H31845720   4.311   5.854   0.197  0.7962 -0.0200  1.5949
  142MOL   H31945721   4.299   5.766   0.420 -0.2030 -0.9309  1.8464
  142MOL   H32045722   4.469   5.775   0.460  0.7983 -0.4406 -0.7730
  142MOL   H32145723   4.390   5.622   0.475  2.1743  1.6022  1.1591
  142MOL   H32245724   4.579   5.552   0.449  2.4346 -0.0444 -0.5961
  143MOL     C145725   3.616   2.989   4.822  0.6354 -0.0652 -0.1681
  143MOL     C245726   3.582   2.839   4.831  0.3539  0.1888 -0.4559
  143MOL     C345727   3.505   2.810   4.958 -0.0232  0.3229 -0.2341
  143MOL     O445728   3.577   2.781   5.055 -0.6787 -0.0553  0.3341
  143MOL     N545729   3.373   2.808   4.963 -0.4848  0.1876  0.5999
  143MOL     C645730   3.282   2.851   4.856  0.2848 -0.3157  0.4405
  143MOL     C745731   3.303   2.756   5.076 -0.0053 -0.3609  0.0265
  143MOL     H845732   3.542   3.048   4.876 -1.5553 -3.0979  0.3202
  143MOL     H945733   3.609   3.012   4.716 -0.1012  1.9138  0.2945
  143MOL    H1045734   3.516   2.813   4.748  0.3138  0.1575 -0.4135
  143MOL    H1145735   3.323   2.898   4.767  0.6101 -2.0376 -0.3438
  143MOL    H1245736   3.229   2.761   4.824  1.2268 -0.3842 -0.9964
  143MOL    H1345737   3.211   2.916   4.906 -0.3441  2.1610 -3.4802
  143MOL    H1445738   3.198   2.785   5.085  0.1052 -0.4566  1.8484
  143MOL    H1545739   3.358   2.766   5.170  2.0011 -0.9726 -1.0719
  143MOL    H1645740   3.290   2.650   5.054  1.1749 -0.4973 -0.0426
  143MOL    H1745741   3.715   3.022   4.853  0.2484 -0.5039  1.6493
  143MOL    C1845742   3.707   2.750   4.810 -1.0405 -0.1618 -0.6118
  143MOL    C1945743   3.752   2.716   4.669  0.0416  0.1874 -0.5109
  143MOL    C2045744   3.847   2.595   4.681  0.2629 -0.2768 -0.7813
  143MOL    O2145745   3.966   2.625   4.700  0.0719  0.0044 -0.0751
  143MOL    N2245746   3.810   2.464   4.676 -0.5200 -0.4137  0.0509
  143MOL    C2345747   3.675   2.416   4.691 -0.3683  0.9115 -0.0256
  143MOL    C2445748   3.915   2.361   4.677  0.3136 -0.9629  0.2515
  143MOL    H2545749   3.799   2.779   4.859  0.0249  0.3412 -2.8795
  143MOL    H2645750   3.682   2.657   4.862  1.4371 -0.1145  0.7324
  143MOL    H2745751   3.665   2.679   4.614  0.0093 -1.3415  0.5482
  143MOL    H2845752   3.644   2.392   4.590 -0.6039  0.4679  0.1533
  143MOL    H2945753   3.663   2.322   4.745  1.7846  0.5141 -0.1705
  143MOL    H3045754   3.610   2.491   4.736  1.2930  3.1155 -1.1939
  143MOL    H3145755   3.870   2.262   4.671  0.8202 -1.0854 -1.8771
  143MOL    H3245756   3.964   2.359   4.775 -1.1618 -1.2733  1.0017
  143MOL    H3345757   3.991   2.386   4.604 -0.5020 -0.4309 -0.4234
  143MOL    C3445758   3.819   2.838   4.593  0.0819  0.5169 -0.0797
  143MOL    C3545759   3.888   2.811   4.460 -0.1528  0.0086 -0.8019
  143MOL    C3645760   3.946   2.946   4.415  0.0899 -0.1014  0.8826
  143MOL    O3745761   3.865   3.036   4.378 -0.3777  0.3907 -0.3548
  143MOL    N3845762   4.079   2.961   4.406 -0.0594  0.3008 -0.8227
  143MOL    C3945763   4.135   3.093   4.380  0.0968 -0.1707 -0.5892
  143MOL    C4045764   4.173   2.865   4.453 -0.1806 -0.3519  0.4524
  143MOL    H4145765   3.736   2.908   4.589 -1.6918 -1.6394 -2.1822
  143MOL    H4245766   3.879   2.871   4.677 -1.6655 -4.1483  3.2279
  143MOL    H4345767   3.968   2.739   4.477 -1.6856 -1.5754 -0.1052
  143MOL    H4445768   4.059   3.171   4.371 -1.0766 -1.0298  1.4069
  143MOL    H4545769   4.199   3.122   4.463 -1.0544 -1.2131  0.6979
  143MOL    H4645770   4.197   3.100   4.291 -0.5190 -1.1867 -1.1047
  143MOL    H4745771   4.156   2.819   4.550 -0.6312  2.5268  1.7850
  143MOL    H4845772   4.276   2.900   4.459 -0.6788  1.3412 -0.4034
  143MOL    H4945773   4.170   2.789   4.375  0.8259 -0.0031  0.0690
  143MOL    C5045774   3.791   2.747   4.354  0.1904 -0.0562  0.2626
  143MOL    C5145775   3.855   2.661   4.248 -0.4044 -0.5099  1.0455
  143MOL    C5245776   3.915   2.523   4.292 -0.1564  0.5927 -0.1404
  143MOL    O5345777   4.028   2.513   4.340 -0.2939 -0.0581  0.1830
  143MOL    N5445778   3.834   2.414   4.288 -0.3538  0.8019 -0.1689
  143MOL    C5545779   3.687   2.409   4.256 -0.3867  0.0803 -0.4778
  143MOL    C5645780   3.889   2.278   4.323  0.0664  0.5928 -0.5482
  143MOL    H5745781   3.726   2.674   4.403  1.0813 -0.6674  0.5502
  143MOL    H5845782   3.731   2.821   4.303 -1.3036  0.1689  2.2958
  143MOL    H5945783   3.764   2.642   4.191 -0.9143  0.5368  1.4948
  143MOL    H6045784   3.646   2.315   4.292  0.7342 -0.0840  0.3861
  143MOL    H6145785   3.633   2.486   4.311  1.5355  1.2418 -0.1878
  143MOL    H6245786   3.666   2.426   4.150  1.3092  2.9724 -0.4049
  143MOL    H6345787   3.899   2.267   4.431  1.6031 -0.4315 -0.7912
  143MOL    H6445788   3.985   2.250   4.281  0.9444  0.8261  1.2771
  143MOL    H6545789   3.826   2.195   4.289  0.5651 -0.7972  1.7908
  143MOL    C6645790   3.951   2.727   4.142 -0.0390 -0.1953  0.9852
  143MOL    C6745791   3.972   2.645   4.009  0.3137  0.2898  0.2489
  143MOL    C6845792   4.088   2.705   3.917 -0.2189  0.0213 -0.2469
  143MOL    O6945793   4.083   2.822   3.894 -0.5943 -0.0322  0.2829
  143MOL    N7045794   4.180   2.616   3.866 -0.3318 -0.1396 -0.0248
  143MOL    C7145795   4.163   2.471   3.871  0.3152  0.1681 -0.2259
  143MOL    C7245796   4.297   2.660   3.795 -0.1689 -0.3844 -0.5060
  143MOL    H7345797   3.927   2.831   4.120  0.9979 -0.4159 -1.4318
  143MOL    H7445798   4.051   2.737   4.186  0.5483 -2.7668  0.2865
  143MOL    H7545799   3.994   2.541   4.031  0.0169  0.2845  0.5180
  143MOL    H7645800   4.218   2.412   3.798  0.9339  0.7227 -0.2196
  143MOL    H7745801   4.184   2.431   3.971  2.3192  1.2872 -0.1660
  143MOL    H7845802   4.060   2.438   3.861  0.6184 -0.1874 -2.2723
  143MOL    H7945803   4.272   2.694   3.694 -0.5637  5.3264  1.3346
  143MOL    H8045804   4.367   2.577   3.789  2.0513  1.3247  0.7068
  143MOL    H8145805   4.344   2.749   3.838 -2.4718  0.8846 -0.5705
  143MOL    C8245806   3.843   2.640   3.923 -0.2145  1.0831  0.4134
  143MOL    C8345807   3.777   2.770   3.869  0.1223  0.1511 -0.2298
  143MOL    C8445808   3.701   2.848   3.977 -0.1090  0.2323  0.2236
  143MOL    O8545809   3.623   2.791   4.052 -0.1348  0.0223 -0.4138
  143MOL    N8645810   3.728   2.981   3.998 -0.6117 -0.5025  0.7222
  143MOL    C8745811   3.667   3.059   4.111  0.2771 -0.1702 -0.2517
  143MOL    C8845812   3.794   3.067   3.905 -0.6177  0.1672  0.5402
  143MOL    H8945813   3.874   2.571   3.845 -0.5108  0.4019  0.8902
  143MOL    H9045814   3.763   2.581   3.968  0.8823 -1.6444 -1.0775
  143MOL    H9145815   3.861   2.836   3.845  1.3312 -0.2162  2.6883
  143MOL    H9245816   3.578   3.108   4.070  0.9832  1.8716  0.5730
  143MOL    H9345817   3.633   2.996   4.193 -2.8613  2.1093  0.3036
  143MOL    H9445818   3.737   3.133   4.151  0.4183  0.3099 -1.3733
  143MOL    H9545819   3.798   3.170   3.941  0.6021  0.3225  0.0142
  143MOL    H9645820   3.760   3.068   3.802 -0.1826 -2.3139  0.3504
  143MOL    H9745821   3.898   3.034   3.895 -0.9696 -0.1252 -2.4838
  143MOL    C9845822   3.695   2.759   3.732 -0.8411 -0.1106  0.4302
  143MOL    C9945823   3.777   2.710   3.606  0.4063  0.1602  0.1257
  143MOL   C10045824   3.896   2.803   3.566 -0.0828  0.3733  0.0635
  143MOL   O10145825   3.883   2.923   3.587  0.0321  0.3365 -0.0294
  143MOL   N10245826   4.007   2.751   3.517  0.2025 -0.0321  0.1197
  143MOL   C10345827   4.114   2.847   3.469 -0.7155 -0.2289  0.4809
  143MOL   C10445828   4.033   2.607   3.497  0.3700  0.1514 -0.2664
  143MOL   H10545829   3.599   2.709   3.734 -0.7556 -0.2150  3.1260
  143MOL   H10645830   3.652   2.857   3.709  0.4258  0.7536  1.6392
  143MOL   H10745831   3.822   2.615   3.635 -0.2341 -0.3086 -0.3931
  143MOL   H10845832   4.160   2.889   3.558 -0.7691  3.5594 -1.1782
  143MOL   H10945833   4.191   2.802   3.407 -0.3994  2.7742 -1.4005
  143MOL   H11045834   4.091   2.932   3.405  1.7455  0.5563  0.6111
  143MOL   H11145835   3.981   2.574   3.408  0.4579  0.0914 -0.2952
  143MOL   H11245836   4.002   2.539   3.576 -1.9160  0.6038 -0.7454
  143MOL   H11345837   4.141   2.602   3.481  0.5293 -0.8471  0.9628
  143MOL   C11445838   3.692   2.688   3.479 -0.4012  0.0344 -1.2274
  143MOL   C11545839   3.625   2.814   3.418 -0.8703 -0.2293  0.1939
  143MOL   C11645840   3.490   2.842   3.491  0.1716  0.0129  0.0643
  143MOL   O11745841   3.415   2.743   3.521 -0.5497 -0.2123 -0.6962
  143MOL   N11845842   3.449   2.974   3.508  0.1688  0.7365  0.5644
  143MOL   C11945843   3.303   3.002   3.542  0.5086  0.3450  0.7277
  143MOL   C12045844   3.534   3.089   3.493 -0.1463 -0.4048 -0.1547
  143MOL   H12145845   3.755   2.638   3.405  2.1472 -1.9117  2.1258
  143MOL   H12245846   3.623   2.611   3.516 -0.0626  0.1169 -0.4152
  143MOL   H12345847   3.690   2.900   3.433 -1.2768  0.7359 -3.1221
  143MOL   H12445848   3.302   2.993   3.650  1.5241  2.5788  0.9567
  143MOL   H12545849   3.268   3.103   3.522  0.8957  0.2662 -0.4120
  143MOL   H12645850   3.230   2.928   3.509 -1.1783  2.2021  0.2479
  143MOL   H12745851   3.600   3.092   3.579 -1.7964 -1.7085  1.1765
  143MOL   H12845852   3.487   3.187   3.485  1.6697  0.5176  0.0849
  143MOL   H12945853   3.598   3.075   3.405 -0.1001 -0.5276 -0.1027
  143MOL   C13045854   3.608   2.791   3.262 -0.3471  0.3276  0.1884
  143MOL   C13145855   3.505   2.685   3.203  0.0427  0.0344  0.4201
  143MOL   C13245856   3.552   2.536   3.218 -0.1942 -0.6011  0.0567
  143MOL   O13345857   3.670   2.516   3.202 -0.0542 -0.0826 -0.0582
  143MOL   N13445858   3.474   2.441   3.271  0.0993  0.1030  0.2822
  143MOL   C13545859   3.537   2.336   3.354  0.2438  0.3252  1.2469
  143MOL   C13645860   3.327   2.447   3.288 -0.0210  0.8276 -0.5007
  143MOL   H13745861   3.588   2.891   3.225 -2.2896 -0.2263 -0.2941
  143MOL   H13845862   3.709   2.779   3.222 -0.0449 -0.6503  1.2095
  143MOL   H13945863   3.416   2.706   3.262 -2.5742 -0.7498 -3.1331
  143MOL   H14045864   3.465   2.260   3.384 -0.5073  0.5962  0.1571
  143MOL   H14145865   3.622   2.299   3.296 -0.5513  1.7215 -0.8699
  143MOL   H14245866   3.587   2.376   3.442 -0.4017  0.3763  1.5891
  143MOL   H14345867   3.287   2.349   3.315  0.6348  0.4486 -0.9120
  143MOL   H14445868   3.266   2.473   3.202  0.7012  2.7705 -0.4375
  143MOL   H14545869   3.302   2.509   3.374  1.5587 -0.0357  0.6013
  143MOL   C14645870   3.458   2.699   3.053 -0.4686 -0.7281 -0.1913
  143MOL   C14745871   3.314   2.757   3.049  0.7320 -0.1352  0.1468
  143MOL   C14845872   3.272   2.749   2.901  1.4292  0.8637 -0.3090
  143MOL   O14945873   3.309   2.835   2.822  0.3715  0.1456 -0.2334
  143MOL   N15045874   3.177   2.657   2.873  0.0220  0.1987 -0.1702
  143MOL   C15145875   3.153   2.524   2.932  0.7427  0.3144  0.0327
  143MOL   C15245876   3.080   2.676   2.769 -0.2121 -0.2066 -0.9245
  143MOL   H15345877   3.515   2.772   2.996 -0.4548  0.2849  1.1034
  143MOL   H15445878   3.457   2.603   3.003  0.9941 -2.4199  2.8718
  143MOL   H15545879   3.253   2.693   3.112 -0.1990  0.1213 -0.4900
  143MOL   H15645880   3.106   2.452   2.865  1.6662  1.3810 -1.7748
  143MOL   H15745881   3.234   2.470   2.980 -0.6764  1.1578  3.5644
  143MOL   H15845882   3.088   2.532   3.020  0.5385  0.6607 -0.1479
  143MOL   H15945883   3.105   2.759   2.703 -0.7234  0.1177 -0.7152
  143MOL   H16045884   2.986   2.702   2.818 -1.0056  0.8183 -2.9384
  143MOL   H16145885   3.054   2.590   2.707 -0.9234 -1.6420  1.3027
  143MOL   C16245886   3.305   2.904   3.105 -0.1119 -0.4067  0.4339
  143MOL   C16345887   3.163   2.964   3.126  0.0948  0.5351  0.7990
  143MOL   C16445888   3.171   3.119   3.147 -0.0300  0.5084  0.0390
  143MOL   O16545889   3.233   3.161   3.247 -0.1648 -0.4958 -0.6091
  143MOL   N16645890   3.111   3.208   3.063  0.4119 -0.0721  0.5821
  143MOL   C16745891   3.138   3.349   3.076  0.3205  0.4148 -0.4406
  143MOL   C16845892   3.042   3.170   2.941  0.5766 -0.6190  0.4397
  143MOL   H16945893   3.354   2.910   3.202  1.4180  0.0732 -0.3712
  143MOL   H17045894   3.358   2.970   3.037  2.1431 -1.2383  1.3573
  143MOL   H17145895   3.116   2.948   3.029  0.9928 -1.5130  0.6635
  143MOL   H17245896   3.167   3.388   3.174 -1.6267 -0.3060  0.4448
  143MOL   H17345897   3.226   3.365   3.014  0.7147  1.3613  0.3395
  143MOL   H17445898   3.065   3.415   3.028  1.0020  1.0320 -0.6425
  143MOL   H17545899   2.948   3.116   2.952  0.7850 -0.9438  0.6196
  143MOL   H17645900   3.099   3.109   2.870 -2.4251 -1.2147 -1.5576
  143MOL   H17745901   3.015   3.264   2.893  0.5263 -0.1902  1.2908
  143MOL   C17845902   3.074   2.885   3.224 -0.2145 -0.3113  0.2878
  143MOL   C17945903   2.948   2.828   3.156  0.0844  0.0577  0.6329
  143MOL   C18045904   2.835   2.931   3.157  0.2407 -0.7164 -0.3693
  143MOL   O18145905   2.831   3.020   3.245 -0.7737 -0.5196  0.4699
  143MOL   N18245906   2.734   2.930   3.064  0.2025  0.2488 -0.0975
  143MOL   C18345907   2.639   3.039   3.066 -0.4947 -0.2609 -0.5742
  143MOL   C18445908   2.740   2.861   2.938 -0.5435  0.4845 -0.0310
  143MOL   H18545909   3.150   2.814   3.257  1.2852  0.1865 -2.0142
  143MOL   H18645910   3.054   2.934   3.319  1.3514 -0.6569  0.8147
  143MOL   H18745911   2.967   2.800   3.053  0.2830  3.1479 -0.2361
  143MOL   H18845912   2.597   3.046   3.166  0.2376 -0.9861 -0.2055
  143MOL   H18945913   2.681   3.136   3.042 -0.4710 -0.3569 -0.9245
  143MOL   H19045914   2.561   3.030   2.990 -1.1540  0.0272  0.0729
  143MOL   H19145915   2.791   2.911   2.855 -1.3402  0.9260 -0.2588
  143MOL   H19245916   2.637   2.851   2.903 -0.5830 -2.5525  0.7916
  143MOL   H19345917   2.762   2.756   2.954  0.0243  0.8036  1.3391
  143MOL   C19445918   2.891   2.686   3.215  0.5773  0.7714  0.0603
  143MOL   C19545919   2.854   2.693   3.366 -0.1670 -0.2261 -0.3015
  143MOL   C19645920   2.968   2.664   3.462  0.2655  0.0119 -0.0718
  143MOL   O19745921   3.036   2.560   3.450  0.1388 -0.6287 -0.0331
  143MOL   N19845922   3.001   2.752   3.564 -0.8777 -0.9819  0.2870
  143MOL   C19945923   3.107   2.716   3.661  0.0837  0.6492 -0.4863
  143MOL   C20045924   2.938   2.878   3.594  0.1680  0.0590  0.3444
  143MOL   H20145925   2.804   2.664   3.152  0.5826  1.5044 -0.2073
  143MOL   H20245926   2.967   2.608   3.215 -0.2874 -0.0904  0.1473
  143MOL   H20345927   2.816   2.794   3.380  1.0620  0.0939  0.8423
  143MOL   H20445928   3.149   2.794   3.725 -1.2733  0.2952  0.8615
  143MOL   H20545929   3.056   2.642   3.723 -0.7442 -0.8343 -2.8664
  143MOL   H20645930   3.196   2.662   3.628 -0.0787 -1.8086  2.9076
  143MOL   H20745931   2.831   2.863   3.600  0.0378  0.6440 -0.4502
  143MOL   H20845932   2.963   2.942   3.510  1.5983 -0.2122  0.5407
  143MOL   H20945933   2.958   2.917   3.694 -3.1162 -0.7689  1.3817
  143MOL   C21045934   2.741   2.589   3.397 -0.1861  0.2214 -0.3209
  143MOL   C21145935   2.600   2.628   3.349  0.1316 -0.1545 -0.3026
  143MOL   C21245936   2.555   2.768   3.404  0.1399 -0.4276 -0.3729
  143MOL   O21345937   2.590   2.794   3.516  0.2265  0.1514  0.0064
  143MOL   N21445938   2.481   2.852   3.325  0.4790  0.0387 -0.2493
  143MOL   C21545939   2.426   2.819   3.196  0.5438 -0.6945  0.1895
  143MOL   C21645940   2.438   2.982   3.376  0.0106 -0.1464  0.1649
  143MOL   H21745941   2.760   2.497   3.341  1.2066  0.7944 -0.7928
  143MOL   H21845942   2.758   2.548   3.496 -1.0977 -1.0019 -0.6503
  143MOL   H21945943   2.609   2.645   3.241 -0.1660 -0.6217 -0.4049
  143MOL   H22045944   2.361   2.731   3.194  0.3498 -0.5564  0.3517
  143MOL   H22145945   2.366   2.900   3.154 -0.7443 -0.6657  2.0139
  143MOL   H22245946   2.504   2.785   3.128  0.0052  0.4992 -1.0625
  143MOL   H22345947   2.522   3.032   3.423 -1.1965  2.5924 -0.4981
  143MOL   H22445948   2.380   2.960   3.466 -0.4480  1.7209  0.3448
  143MOL   H22545949   2.394   3.046   3.299  0.0271 -1.1693 -0.7163
  143MOL   C22645950   2.503   2.514   3.379  0.0076 -0.4067  0.0498
  143MOL   C22745951   2.467   2.467   3.518  0.3721  0.2581 -0.7576
  143MOL   C22845952   2.429   2.312   3.510 -0.4255  0.0140  0.1048
  143MOL   O22945953   2.333   2.276   3.434 -0.0709 -0.0351 -0.4669
  143MOL   N23045954   2.502   2.225   3.582 -0.4755  0.0620  0.0384
  143MOL   C23145955   2.647   2.248   3.606  0.5579 -0.5364 -0.2692
  143MOL   C23245956   2.464   2.086   3.608 -0.5655  0.3475  0.3630
  143MOL   H23345957   2.406   2.546   3.340  0.4676  0.3765 -0.4552
  143MOL   H23445958   2.546   2.426   3.332 -1.8297 -0.3524 -1.7967
  143MOL   H23545959   2.557   2.478   3.578 -0.7717 -2.4548  1.5450
  143MOL   H23645960   2.672   2.325   3.679  1.7931 -0.0914 -1.1405
  143MOL   H23745961   2.687   2.155   3.647  0.4512 -1.5543 -2.3755
  143MOL   H23845962   2.687   2.261   3.505 -1.1503 -0.7627 -0.9970
  143MOL   H23945963   2.500   2.058   3.707  1.2473 -4.8849 -1.5887
  143MOL   H24045964   2.513   2.018   3.538  1.4042  1.6950  0.4183
  143MOL   H24145965   2.359   2.055   3.605 -1.2969  2.7001  0.6485
  143MOL   C24245966   2.353   2.545   3.580  0.5015 -0.0305  0.5171
  143MOL   C24345967   2.343   2.528   3.732 -0.0758  0.1088 -0.2006
  143MOL   C24445968   2.266   2.396   3.768  0.5722 -0.4252  0.1611
  143MOL   O24545969   2.160   2.369   3.709  0.1716 -0.8874  0.1329
  143MOL   N24645970   2.313   2.298   3.848  0.3336 -0.3115  0.1106
  143MOL   C24745971   2.241   2.174   3.868  0.5208 -0.2793 -0.3946
  143MOL   C24845972   2.417   2.327   3.946  0.2519  0.7936  0.0515
  143MOL   H24945973   2.368   2.650   3.552  0.7097  0.3441  1.9758
  143MOL   H25045974   2.260   2.524   3.527  0.5586  0.0835  0.3695
  143MOL   H25145975   2.447   2.514   3.762  1.1068  0.9108 -3.6781
  143MOL   H25245976   2.157   2.195   3.935 -0.4755  3.2683 -2.5808
  143MOL   H25345977   2.206   2.137   3.772  1.0074  0.4805 -0.8748
  143MOL   H25445978   2.320   2.107   3.901  2.3941  1.1174 -1.8814
  143MOL   H25545979   2.394   2.415   4.007 -0.4838  0.6457 -0.0101
  143MOL   H25645980   2.513   2.349   3.899  1.1731  1.1354  2.0458
  143MOL   H25745981   2.423   2.245   4.018  1.1214 -0.1101 -1.0357
  143MOL   C25845982   2.284   2.649   3.810 -0.0954  0.0948  0.4358
  143MOL   C25945983   2.389   2.755   3.816 -1.1459 -0.6226  0.2086
  143MOL   C26045984   2.465   2.745   3.952  0.3045  0.3888  0.0569
  143MOL   O26145985   2.395   2.727   4.054  0.2999 -0.3879 -0.1484
  143MOL   N26245986   2.601   2.749   3.949  0.8791 -0.3867  0.3003
  143MOL   C26345987   2.684   2.768   4.067 -1.0664  0.0612  0.2397
  143MOL   C26445988   2.675   2.760   3.823 -1.0079  0.1978  0.6588
  143MOL   H26545989   2.195   2.681   3.757 -0.1060  0.8107  0.8685
  143MOL   H26645990   2.255   2.617   3.911 -0.0988 -1.6415 -0.1026
  143MOL   H26745991   2.461   2.737   3.736  2.9455 -0.2839  3.6315
  143MOL   H26845992   2.715   2.872   4.078  1.9884 -0.9782  2.0276
  143MOL   H26945993   2.631   2.734   4.155  0.3396 -0.8002  0.7584
  143MOL   H27045994   2.772   2.703   4.059 -0.7413  0.6374 -1.0485
  143MOL   H27145995   2.648   2.679   3.754 -1.8862 -0.5461  1.8611
  143MOL   H27245996   2.782   2.770   3.836 -0.9283 -0.7506  0.7978
  143MOL   H27345997   2.638   2.852   3.777 -0.3295 -0.2414 -0.8032
  143MOL   C27445998   2.343   2.904   3.789 -0.0375  0.4989  1.1092
  143MOL   C27545999   2.205   2.937   3.852 -0.0549 -0.5439  0.1936
  143MOL   C27646000   2.132   3.045   3.762 -0.7478  0.1951  1.0687
  143MOL   O27746001   2.193   3.141   3.717 -0.0583  0.5441  0.7663
  143MOL   N27846002   2.005   3.026   3.729 -0.5471  0.1001 -0.4458
  143MOL   C27946003   1.920   2.918   3.785 -0.4445 -0.5010  0.4429
  143MOL   C28046004   1.943   3.099   3.624  0.2171  0.3676  0.2213
  143MOL   H28146005   2.421   2.978   3.805  1.4902 -0.4554 -1.6596
  143MOL   H28246006   2.329   2.904   3.681  1.0155 -2.2483  0.9519
  143MOL   H28346007   2.144   2.849   3.868  1.5259 -1.7659 -0.3329
  143MOL   H28446008   1.815   2.931   3.758 -0.3144  0.5554  0.4022
  143MOL   H28546009   1.950   2.824   3.739 -0.7590 -0.2556 -0.2840
  143MOL   H28646010   1.916   2.909   3.893 -1.4247 -0.4197  0.4204
  143MOL   H28746011   1.857   3.044   3.586 -0.7520  1.5213  0.6979
  143MOL   H28846012   1.998   3.141   3.540 -0.7465  2.2369  0.4914
  143MOL   H28946013   1.891   3.182   3.673 -1.5902 -0.8180  0.3451
  143MOL   C29046014   2.232   3.001   3.998  0.0590  0.3911  0.1703
  143MOL   C29146015   2.110   3.030   4.091 -0.4449 -0.6160  0.6755
  143MOL   C29246016   2.156   3.113   4.213  0.0815  0.3267  0.1017
  143MOL   O29346017   2.222   3.062   4.300  0.0433 -0.6858  0.7387
  143MOL   N29446018   2.117   3.244   4.216 -0.6547  0.1386  0.2584
  143MOL   C29546019   2.067   3.311   4.097 -0.0401 -0.3858 -0.9185
  143MOL   C29646020   2.144   3.318   4.336 -0.1686 -0.9376  0.4514
  143MOL   H29746021   2.307   2.955   4.062 -0.3539  2.4239  2.1524
  143MOL   H29846022   2.275   3.100   3.983 -1.8021  0.9544 -1.6360
  143MOL   H29946023   2.023   3.083   4.050  0.8722  0.9418 -0.1618
  143MOL   H30046024   1.960   3.292   4.091 -0.2883  1.3121 -2.4980
  143MOL   H30146025   2.069   3.419   4.116 -0.1532  0.0891 -3.4934
  143MOL   H30246026   2.112   3.298   3.999 -3.0950 -0.4764 -2.3406
  143MOL   H30346027   2.119   3.280   4.435 -1.8298  1.4576  0.9968
  143MOL   H30446028   2.091   3.413   4.324  0.0700 -0.8972 -0.3384
  143MOL   H30546029   2.252   3.336   4.338 -0.0663 -1.1456 -1.4332
  143MOL   C30646030   2.055   2.891   4.138 -0.0576 -0.1943  0.4908
  143MOL   C30746031   1.948   2.883   4.244 -0.1660 -0.6642 -0.1965
  143MOL   C30846032   1.807   2.931   4.207 -0.2910  0.9043  0.4723
  143MOL   O30946033   1.802   3.001   4.107 -0.2073 -0.2988  0.2960
  143MOL   N31046034   1.702   2.910   4.287 -0.3909  0.1000  0.2136
  143MOL   C31146035   1.574   2.977   4.253 -0.1973  0.5756 -0.3953
  143MOL   C31246036   1.718   2.842   4.415  0.4903  0.1363  0.0853
  143MOL   H31346037   2.034   2.820   4.058  0.7257 -0.5343  0.5791
  143MOL   H31446038   2.146   2.846   4.177  1.5822  3.0394  0.4835
  143MOL   H31546039   1.958   2.777   4.266  0.8084 -0.9169 -1.7637
  143MOL   H31646040   1.548   3.079   4.282 -0.7875 -0.0619  1.4271
  143MOL   H31746041   1.547   2.970   4.148 -0.1238 -0.3978 -0.3550
  143MOL   H31846042   1.503   2.917   4.309  0.1124  0.4449 -0.1406
  143MOL   H31946043   1.628   2.858   4.474  0.7424 -1.0070  0.7934
  143MOL   H32046044   1.794   2.868   4.488  0.2594  1.3645 -0.1155
  143MOL   H32146045   1.720   2.733   4.405 -0.4829  0.2528 -1.5991
  143MOL   H32246046   1.978   2.938   4.333 -0.1867 -0.7120 -0.1596
  144MOL     C146047   5.052   6.959   2.472  0.3243  0.1120  0.1982
  144MOL     C246048   5.009   7.084   2.553 -0.3845  0.0673 -0.2660
  144MOL     C346049   4.876   7.146   2.507 -0.5301  0.1490  0.0263
  144MOL     O446050   4.867   7.167   2.386 -0.4566 -0.2496 -0.3436
  144MOL     N546051   4.779   7.182   2.588 -0.6842 -0.3067  0.1137
  144MOL     C646052   4.663   7.259   2.543  0.1415 -0.2249  0.3140
  144MOL     C746053   4.792   7.161   2.732  0.0235  0.2626 -0.3553
  144MOL     H846054   5.052   6.985   2.367 -1.8099 -1.0391 -0.1283
  144MOL     H946055   4.976   6.881   2.485 -1.7689  2.4534  2.5661
  144MOL    H1046056   4.995   7.039   2.652  0.2030  1.8347  0.6410
  144MOL    H1146057   4.616   7.204   2.461  0.6673 -0.4163  0.1345
  144MOL    H1246058   4.589   7.282   2.619 -0.2708  3.3780 -1.0867
  144MOL    H1346059   4.699   7.349   2.493 -2.0031  1.5956  1.9461
  144MOL    H1446060   4.760   7.060   2.759 -2.4828  1.4917  1.5458
  144MOL    H1546061   4.728   7.215   2.802 -0.2724 -1.2238  0.5319
  144MOL    H1646062   4.896   7.171   2.763 -0.0719 -3.2975  1.4140
  144MOL    H1746063   5.148   6.908   2.471  0.7929  1.0211 -1.1327
  144MOL    C1846064   5.118   7.188   2.567  0.2253 -0.3431  0.4418
  144MOL    C1946065   5.146   7.300   2.459  0.1661 -0.2542  0.1504
  144MOL    C2046066   5.195   7.235   2.325  0.4044  0.3362  0.3896
  144MOL    O2146067   5.283   7.148   2.327  0.7944 -0.2326 -0.0191
  144MOL    N2246068   5.139   7.276   2.208 -0.3401  0.7830 -0.2987
  144MOL    C2346069   5.088   7.408   2.191  0.3780  0.8708  0.3064
  144MOL    C2446070   5.135   7.182   2.094 -0.4642  0.3793  0.3685
  144MOL    H2546071   5.099   7.237   2.662 -5.1156  2.1998 -1.7389
  144MOL    H2646072   5.209   7.137   2.600 -0.2704 -0.5197  1.5552
  144MOL    H2746073   5.050   7.347   2.435 -0.1053 -1.2905 -0.8726
  144MOL    H2846074   5.072   7.419   2.083  1.4212  2.6173  0.2991
  144MOL    H2946075   4.998   7.433   2.246 -0.6816 -0.1098 -0.9431
  144MOL    H3046076   5.169   7.471   2.227  2.0152 -1.0935  0.1609
  144MOL    H3146077   5.036   7.181   2.049 -0.9277  0.9147  1.3624
  144MOL    H3246078   5.132   7.080   2.132  0.4314 -0.3438 -1.4118
  144MOL    H3346079   5.220   7.195   2.027 -0.7532 -1.2870 -0.3694
  144MOL    C3446080   5.247   7.403   2.503  0.1165 -0.2331 -0.4050
  144MOL    C3546081   5.206   7.504   2.604  0.6320  0.7342  0.1786
  144MOL    C3646082   5.088   7.583   2.554  0.3395  0.7142  0.5363
  144MOL    O3746083   5.096   7.646   2.445  0.3086  0.0756  0.0017
  144MOL    N3846084   4.966   7.572   2.614  0.2996 -0.1411 -0.0175
  144MOL    C3946085   4.938   7.500   2.734  0.2293  0.1508 -0.9243
  144MOL    C4046086   4.842   7.618   2.551  0.3462 -0.3183  0.0386
  144MOL    H4146087   5.328   7.338   2.537  1.3014  1.7633  0.6689
  144MOL    H4246088   5.270   7.466   2.417 -2.8925 -1.4373 -2.1694
  144MOL    H4346089   5.176   7.441   2.688 -0.6788 -1.2682 -1.7254
  144MOL    H4446090   4.838   7.518   2.772  0.1184  2.1227 -2.0969
  144MOL    H4546091   4.957   7.395   2.710 -3.3019 -0.6953 -0.3455
  144MOL    H4646092   4.999   7.530   2.819 -1.4939 -2.3688  1.2961
  144MOL    H4746093   4.757   7.629   2.618  1.2026  0.9097  0.9533
  144MOL    H4846094   4.817   7.576   2.454 -2.0419 -0.7812  0.8077
  144MOL    H4946095   4.859   7.719   2.513 -1.0174 -0.2101 -0.3218
  144MOL    C5046096   5.329   7.588   2.640 -0.6339 -0.2432 -0.7033
  144MOL    C5146097   5.330   7.671   2.771 -0.1780 -0.6055 -0.1367
  144MOL    C5246098   5.320   7.597   2.907  0.2087  0.4412  0.3202
  144MOL    O5346099   5.204   7.556   2.928  0.1395 -0.4043 -0.5020
  144MOL    N5446100   5.425   7.582   2.992  0.1215 -0.6256  0.5526
  144MOL    C5546101   5.563   7.581   2.949 -0.2988  0.4573 -0.1330
  144MOL    C5646102   5.408   7.545   3.133 -0.6949 -0.9802  0.1079
  144MOL    H5746103   5.420   7.530   2.625 -1.1290 -1.2859  0.3146
  144MOL    H5846104   5.349   7.662   2.562  1.9382 -0.1624 -0.0278
  144MOL    H5946105   5.435   7.702   2.775 -0.8689  1.9264 -0.8625
  144MOL    H6046106   5.625   7.546   3.032  1.2785  1.0467 -1.0247
  144MOL    H6146107   5.596   7.519   2.866 -0.6149  0.0260  0.0616
  144MOL    H6246108   5.603   7.677   2.917  0.7238  0.4671  1.0995
  144MOL    H6346109   5.409   7.439   3.157 -1.0256 -1.6358 -2.5674
  144MOL    H6446110   5.307   7.574   3.163  0.8319  1.0290  3.5439
  144MOL    H6546111   5.485   7.584   3.200  1.1085 -1.7152 -1.4786
  144MOL    C6646112   5.232   7.783   2.764  0.4652 -0.4795 -0.5420
  144MOL    C6746113   5.284   0.066   2.820  0.4853 -0.4040 -0.7124
  144MOL    C6846114   5.391   0.123   2.724 -0.2422 -0.5355  0.5705
  144MOL    O6946115   5.506   0.081   2.736  0.1191 -0.4495  0.0901
  144MOL    N7046116   5.356   0.221   2.637 -0.3611  0.6884  0.2682
  144MOL    C7146117   5.225   0.250   2.593 -0.1555 -0.1610  0.6631
  144MOL    C7246118   5.454   0.310   2.579  0.4144 -0.3234 -0.5460
  144MOL    H7346119   5.214   7.801   2.658  0.6836 -0.7661 -0.6279
  144MOL    H7446120   5.141   7.752   2.815  0.6436  0.6129  0.4722
  144MOL    H7546121   5.203   0.138   2.816  0.4058 -0.4490 -0.0339
  144MOL    H7646122   5.161   0.162   2.590 -1.0887  0.5260  0.0410
  144MOL    H7746123   5.180   0.322   2.662  1.9075 -1.2371  3.2250
  144MOL    H7846124   5.231   0.299   2.496 -0.1597 -0.6843  0.3949
  144MOL    H7946125   5.414   0.405   2.545  0.0928 -0.1675  0.2541
  144MOL    H8046126   5.501   0.262   2.493 -0.3092 -1.7853 -0.1357
  144MOL    H8146127   5.530   0.351   2.646  0.6312 -0.7774 -0.5109
  144MOL    C8246128   5.328   0.068   2.970 -0.2750  0.1272 -0.6979
  144MOL    C8346129   5.378   0.202   3.025  0.4822  0.6867  0.5106
  144MOL    C8446130   5.443   0.178   3.163  0.2149 -0.0305  0.1570
  144MOL    O8546131   5.376   0.214   3.263  0.2590  0.1644 -0.1627
  144MOL    N8646132   5.564   0.121   3.181  0.0294 -0.2231  0.0835
  144MOL    C8746133   5.663   0.109   3.073 -0.3262  0.2124 -0.1532
  144MOL    C8846134   5.606   0.078   3.314  0.0696  0.4345 -0.3935
  144MOL    H8946135   5.255   0.024   3.039  1.0844 -2.3110 -0.7486
  144MOL    H9046136   5.408   7.847   2.980  0.6866  1.1871 -0.3998
  144MOL    H9146137   5.445   0.240   2.947 -0.7716  1.1672 -0.3375
  144MOL    H9246138   5.651   0.177   2.989  1.8656  1.2732  0.3594
  144MOL    H9346139   5.764   0.129   3.110  0.0563 -0.3280 -0.8773
  144MOL    H9446140   5.645   0.009   3.034 -0.7216  0.2357 -0.0285
  144MOL    H9546141   5.674   0.146   3.365  0.0236 -0.4954  0.9330
  144MOL    H9646142   5.664   7.840   3.296 -0.3411 -0.1475  1.1597
  144MOL    H9746143   5.521   0.044   3.373 -1.8626 -2.0230 -4.3497
  144MOL    C9846144   5.259   0.302   3.033 -0.1113 -0.7774 -0.2395
  144MOL    C9946145   5.293   0.452   3.056 -0.3211  0.4238 -0.0548
  144MOL   C10046146   5.175   0.531   3.122  0.2745 -0.3238  1.0119
  144MOL   O10146147   5.080   0.558   3.045  0.4092 -0.2426 -0.1847
  144MOL   N10246148   5.180   0.575   3.247  0.2669  0.4238 -0.1990
  144MOL   C10346149   5.066   0.655   3.295 -0.0724 -0.3819 -0.7215
  144MOL   C10446150   5.303   0.565   3.333  0.2720  0.1615 -0.0898
  144MOL   H10546151   5.208   0.302   2.936  0.3652 -0.8016 -0.4889
  144MOL   H10646152   5.185   0.273   3.108  0.6187 -1.4943  0.2023
  144MOL   H10746153   5.376   0.458   3.126 -0.3667 -1.6943  0.2005
  144MOL   H10846154   5.093   0.702   3.389  0.7559 -2.3129  0.0257
  144MOL   H10946155   5.055   0.731   3.217  1.6990  0.8755  0.2223
  144MOL   H11046156   4.980   0.592   3.318 -1.5484  2.4455  1.9074
  144MOL   H11146157   5.311   0.460   3.362  0.4916  0.3071  0.3808
  144MOL   H11246158   5.295   0.627   3.422 -1.4249  0.4111 -0.3977
  144MOL   H11346159   5.398   0.591   3.285  0.0528 -0.2063 -0.7300
  144MOL   C11446160   5.346   0.518   2.920 -0.2443  0.5505 -0.8271
  144MOL   C11546161   5.480   0.605   2.933 -0.1276  0.7189  0.1692
  144MOL   C11646162   5.488   0.683   2.804 -0.9007 -1.2634  0.6210
  144MOL   O11746163   5.530   0.626   2.705  0.1889 -0.7748  0.0193
  144MOL   N11846164   5.443   0.809   2.792  0.2829 -0.1372 -0.3703
  144MOL   C11946165   5.449   0.874   2.663  0.3077 -0.0492 -0.3311
  144MOL   C12046166   5.356   0.876   2.896 -0.4192  0.3490 -0.4008
  144MOL   H12146167   5.352   0.442   2.843  0.5780  1.4661 -1.6837
  144MOL   H12246168   5.268   0.588   2.890  0.6049  1.1124 -1.7535
  144MOL   H12346169   5.488   0.678   3.013  1.7619  1.8516 -1.0213
  144MOL   H12446170   5.553   0.881   2.631  0.7568 -3.1674  0.2559
  144MOL   H12546171   5.406   0.806   2.589 -0.8306  0.3578 -0.0632
  144MOL   H12646172   5.398   0.970   2.658  1.8936  0.7950 -0.5499
  144MOL   H12746173   5.412   0.946   2.958  0.0819  1.7231 -2.3467
  144MOL   H12846174   5.306   0.808   2.964 -0.6793  0.4403 -0.5021
  144MOL   H12946175   5.278   0.930   2.843 -0.1709 -1.6835 -2.9208
  144MOL   C13046176   5.603   0.511   2.944 -0.2061 -0.2976 -0.0270
  144MOL   C13146177   5.735   0.568   3.005  0.9883  0.6248 -0.0464
  144MOL   C13246178   5.861   0.502   2.924  0.2042 -0.0909  0.0848
  144MOL   O13346179   5.880   0.381   2.941 -0.1066 -0.0161 -0.2586
  144MOL   N13446180   5.944   0.577   2.847  0.1295 -0.5554  0.5964
  144MOL   C13546181   6.052   0.514   2.763  0.4255 -0.0676  0.1768
  144MOL   C13646182   5.922   0.728   2.826  0.8283  0.2169 -0.0151
  144MOL   H13746183   5.576   0.421   2.999  1.6933 -1.2551 -0.6440
  144MOL   H13846184   5.618   0.462   2.848 -0.5120  1.6817 -1.1267
  144MOL   H13946185   5.738   0.675   2.988  0.4394  0.3605 -1.9750
  144MOL   H14046186   6.140   0.576   2.750 -1.4624  2.4846 -0.7167
  144MOL   H14146187   6.093   0.424   2.810 -2.3643 -0.8319  1.2513
  144MOL   H14246188   6.006   0.490   2.667 -0.1480 -1.1965  0.7110
  144MOL   H14346189   5.937   0.789   2.915 -0.6199 -1.2917  1.3172
  144MOL   H14446190   5.824   0.738   2.778 -1.2874  0.3829  4.0849
  144MOL   H14546191   5.982   0.777   2.750 -0.0228  0.5160 -0.5020
  144MOL   C14646192   5.744   0.535   3.160 -0.5971  0.1942  0.3639
  144MOL   C14746193   5.802   0.641   3.256  0.3473 -0.6106 -0.4500
  144MOL   C14846194   5.689   0.743   3.284  0.2129  0.6231 -0.3914
  144MOL   O14946195   5.644   0.813   3.189 -0.3212  0.3906  0.3580
  144MOL   N15046196   5.638   0.745   3.410  0.7667  0.1228 -0.0889
  144MOL   C15146197   5.677   0.668   3.525  0.2844  0.4428 -0.3162
  144MOL   C15246198   5.525   0.838   3.429  0.4475  0.0402 -0.3061
  144MOL   H15346199   5.647   0.495   3.191  0.0136 -1.2290  0.4912
  144MOL   H15446200   5.804   0.445   3.173  1.6579  1.3607 -1.7856
  144MOL   H15546201   5.833   0.592   3.348  0.0917  2.3625  1.2960
  144MOL   H15646202   5.656   0.561   3.516  0.6410  0.1662  1.8271
  144MOL   H15746203   5.780   0.680   3.557  0.6921 -2.0450 -0.6379
  144MOL   H15846204   5.609   0.676   3.610  0.0835 -1.3573 -0.2974
  144MOL   H15946205   5.502   0.858   3.534 -0.2780  1.3774 -0.7062
  144MOL   H16046206   5.435   0.799   3.382 -0.2807  3.3575 -1.8087
  144MOL   H16146207   5.544   0.929   3.371 -0.9944  0.8015  0.3848
  144MOL   C16246208   5.938   0.713   3.215 -0.2806 -0.8639 -0.2432
  144MOL   C16346209   6.017   0.770   3.337 -0.6032 -1.0165 -0.0929
  144MOL   C16446210   6.106   0.893   3.290  0.0543  0.3294 -0.7375
  144MOL   O16546211   6.215   0.873   3.249  0.2192 -0.1670 -0.3062
  144MOL   N16646212   6.061   1.016   3.320  0.0691  0.1304 -0.5769
  144MOL   C16746213   6.163   1.124   3.323  0.0561 -0.1478  0.8269
  144MOL   C16846214   5.926   1.061   3.347  0.2258  1.3190  0.4626
  144MOL   H16946215   6.006   0.650   3.158  1.1946 -0.4824  1.0856
  144MOL   H17046216   5.909   0.795   3.149  1.0493 -0.3351 -0.1768
  144MOL   H17146217   5.948   0.808   3.412  0.3616 -1.5541  1.0866
  144MOL   H17246218   6.221   1.119   3.231 -0.4078 -2.7017  0.6364
  144MOL   H17346219   6.120   1.224   3.322  0.4305  0.0160  0.7789
  144MOL   H17446220   6.247   1.117   3.393  2.4412 -2.4518 -2.1261
  144MOL   H17546221   5.889   1.026   3.444  1.7073 -0.1731  0.5054
  144MOL   H17646222   5.858   1.016   3.275  3.4670 -0.3899 -1.6405
  144MOL   H17746223   5.916   1.168   3.333  0.1945  0.9091 -3.0284
  144MOL   C17846224   6.104   0.662   3.409 -0.4857  0.3137  0.1936
  144MOL   C17946225   6.207   0.576   3.329  0.9434 -0.0081  0.7360
  144MOL   C18046226   6.138   0.440   3.289  0.1758  0.5564 -0.5788
  144MOL   O18146227   6.059   0.383   3.364 -0.8792 -0.2838  0.0929
  144MOL   N18246228   6.160   0.387   3.169 -0.8517  0.0273  0.5543
  144MOL   C18346229   6.086   0.264   3.136  0.0848 -0.3241  0.3346
  144MOL   C18446230   6.242   0.454   3.061  0.3100 -0.2761  0.2637
  144MOL   H18546231   6.170   0.718   3.476 -1.8926  1.3912  0.7066
  144MOL   H18646232   6.044   0.606   3.480  0.5022 -1.6857 -0.5236
  144MOL   H18746233   6.235   0.635   3.242  1.7999 -1.0064  0.3346
  144MOL   H18846234   6.124   0.182   3.196 -0.3608 -0.5420  0.3171
  144MOL   H18946235   5.980   0.273   3.158 -0.1114 -0.8311 -0.3824
  144MOL   H19046236   6.093   0.239   3.030  1.5703 -0.1795  0.3875
  144MOL   H19146237   6.230   0.399   2.968  1.5379 -2.2349  1.2087
  144MOL   H19246238   6.349   0.460   3.082  0.4857 -1.0990 -0.3658
  144MOL   H19346239   6.207   0.553   3.033  0.9949  0.3435  1.5345
  144MOL   C19446240   6.342   0.551   3.415 -0.1260 -0.2951  0.2814
  144MOL   C19546241   6.318   0.468   3.539  0.1327  0.3872 -0.6037
  144MOL   C19646242   6.399   0.509   3.664 -0.2740 -0.0287 -0.0981
  144MOL   O19746243   6.520   0.489   3.665  0.0556 -0.4126  0.0841
  144MOL   N19846244   6.341   0.561   3.774 -0.3270  0.5314  0.7134
  144MOL   C19946245   6.195   0.577   3.792 -0.1728 -0.5605 -0.1377
  144MOL   C20046246   6.414   0.577   3.893  0.2842  0.1840 -0.2081
  144MOL   H20146247   6.411   0.518   3.338  0.9646  0.9878  0.6930
  144MOL   H20246248   6.393   0.645   3.437 -2.0881  0.5991  1.1329
  144MOL   H20346249   6.216   0.450   3.572  0.1486  1.2921 -0.0368
  144MOL   H20446250   6.179   0.648   3.872 -1.6692 -0.9369 -0.0865
  144MOL   H20546251   6.149   0.608   3.698 -5.5285 -2.0657  1.7521
  144MOL   H20646252   6.159   0.476   3.814  2.2149 -0.8723  2.5777
  144MOL   H20746253   6.517   0.598   3.866  0.3696 -0.2670 -0.2359
  144MOL   H20846254   6.406   0.488   3.956  1.8266  0.4289  0.3484
  144MOL   H20946255   6.392   0.666   3.951  0.7036 -0.2554  0.6350
  144MOL   C21046256   6.370   0.320   3.499 -0.6951 -0.4320  0.0304
  144MOL   C21146257   6.286   0.202   3.546  0.4399  0.4360  0.5293
  144MOL   C21246258   6.261   0.191   3.700  0.9413  0.0271 -0.5055
  144MOL   O21346259   6.363   0.187   3.773  0.5237 -0.1401 -0.3569
  144MOL   N21446260   6.131   0.194   3.748 -0.1987 -0.3081  0.2903
  144MOL   C21546261   6.108   0.159   3.885 -0.1798  0.5067  0.1210
  144MOL   C21646262   6.012   0.213   3.668 -0.4802 -0.4975 -0.5583
  144MOL   H21746263   6.375   0.311   3.390 -1.9528  2.0026 -0.2711
  144MOL   H21846264   6.474   0.298   3.523 -0.6818 -1.4090 -0.8439
  144MOL   H21946265   6.189   0.211   3.497 -0.3443  1.8398  2.2536
  144MOL   H22046266   6.127   0.238   3.958  0.4212  1.3435 -0.9310
  144MOL   H22146267   6.009   0.114   3.884  0.1612 -0.2824  0.9020
  144MOL   H22246268   6.174   0.077   3.913 -1.6510 -1.2901 -1.5636
  144MOL   H22346269   5.970   0.129   3.613 -0.3224 -0.4346 -0.7739
  144MOL   H22446270   6.020   0.289   3.591 -2.5091  0.0464 -0.2545
  144MOL   H22546271   5.932   0.247   3.733  0.9227  1.7577  0.0313
  144MOL   C22646272   6.353   0.064   3.504 -0.6102 -0.4662 -0.1249
  144MOL   C22746273   6.277   7.790   3.502 -0.3691 -0.4814  0.0396
  144MOL   C22846274   6.376   7.672   3.472  0.0186 -0.6460 -0.0544
  144MOL   O22946275   6.433   7.670   3.359 -0.5945  0.3000  0.4545
  144MOL   N23046276   6.413   7.585   3.568  0.2629 -0.1167 -0.4546
  144MOL   C23146277   6.545   7.519   3.557  0.4088  0.0989 -0.0153
  144MOL   C23246278   6.367   7.595   3.710  0.5170 -0.1197 -0.0752
  144MOL   H23346279   6.410   0.077   3.412  0.4853  2.1408  0.8708
  144MOL   H23446280   6.437   0.048   3.572 -0.7857 -3.2707 -0.5204
  144MOL   H23546281   6.241   7.792   3.605  0.7176  2.3506  0.4201
  144MOL   H23646282   6.591   7.519   3.459  1.6110  1.5380  0.5218
  144MOL   H23746283   6.625   7.567   3.615 -1.2310  1.2279  1.3778
  144MOL   H23846284   6.538   7.413   3.580 -0.5862  0.3994  1.0913
  144MOL   H23946285   6.418   7.667   3.775  0.2047  0.5786 -0.5950
  144MOL   H24046286   6.396   7.496   3.744  1.8446 -0.2561 -1.5610
  144MOL   H24146287   6.259   7.604   3.716  0.4172 -0.2320 -1.5628
  144MOL   C24246288   6.159   7.792   3.402 -0.3471 -0.0011  0.3147
  144MOL   C24346289   6.059   7.672   3.401  0.0654 -0.4274  0.1935
  144MOL   C24446290   6.011   7.639   3.256  0.5509  0.1390  0.0105
  144MOL   O24546291   5.925   7.714   3.208 -0.1887 -0.0971  0.6932
  144MOL   N24646292   6.065   7.537   3.181 -0.3364 -0.4950 -0.1079
  144MOL   C24746293   6.188   7.464   3.211  0.2253  0.3344 -0.8721
  144MOL   C24846294   6.001   7.494   3.056  0.2154  0.4315 -0.1400
  144MOL   H24946295   6.091   0.020   3.427 -0.4426  0.2216 -0.6451
  144MOL   H25046296   6.205   7.812   3.305  0.3470  0.1243  0.6681
  144MOL   H25146297   6.105   7.582   3.440 -1.5624 -1.0937  0.5939
  144MOL   H25246298   6.277   7.519   3.239 -0.4886  1.0687 -0.0293
  144MOL   H25346299   6.161   7.400   3.296  0.1896 -2.5269 -2.9614
  144MOL   H25446300   6.223   7.409   3.124 -1.5910 -1.8935 -0.2511
  144MOL   H25546301   5.895   7.490   3.082  0.4301  2.6666  1.1734
  144MOL   H25646302   6.025   7.392   3.025 -0.5029  0.4005 -0.6178
  144MOL   H25746303   6.011   7.563   2.972 -1.7496  2.9900  1.6459
  144MOL   C25846304   5.934   7.685   3.494 -0.2268  0.2222 -0.0328
  144MOL   C25946305   5.854   7.566   3.539  0.4480 -0.1120  0.2634
  144MOL   C26046306   5.785   7.488   3.425 -0.6029  0.3590 -0.1537
  144MOL   O26146307   5.691   7.542   3.367  0.0982 -0.0294 -0.2355
  144MOL   N26246308   5.831   7.364   3.390  0.0185 -0.3344 -0.0881
  144MOL   C26346309   5.755   7.289   3.288  0.1096  0.5928 -0.5041
  144MOL   C26446310   5.944   7.297   3.454  0.3606  0.1181  0.6786
  144MOL   H26546311   5.963   7.736   3.586 -2.0447  0.9955  0.1373
  144MOL   H26646312   5.870   7.763   3.453  0.4202  1.1038  0.6374
  144MOL   H26746313   5.926   7.505   3.593 -0.7127 -1.9749 -0.2388
  144MOL   H26846314   5.744   7.182   3.307 -0.9121  0.9285  0.8672
  144MOL   H26946315   5.654   7.324   3.272  0.1385  0.3101 -1.3480
  144MOL   H27046316   5.812   7.298   3.195  2.3020  0.7105  0.8054
  144MOL   H27146317   5.934   7.253   3.554 -0.0207 -0.8433  0.2269
  144MOL   H27246318   6.034   7.357   3.466 -0.4850  1.3399  1.0923
  144MOL   H27346319   5.975   7.213   3.392 -1.7206 -1.9298  2.2924
  144MOL   C27446320   5.756   7.631   3.641 -0.1817  0.3020  0.1336
  144MOL   C27546321   5.740   7.551   3.775 -0.3960  0.1840 -0.4745
  144MOL   C27646322   5.874   7.552   3.851 -0.1134 -0.3013  0.1710
  144MOL   O27746323   5.969   7.483   3.818 -0.9285 -0.7210  0.2612
  144MOL   N27846324   5.891   7.646   3.948 -0.6210 -0.3996  0.0778
  144MOL   C27946325   5.782   7.728   4.001 -0.5839 -0.6640  0.2883
  144MOL   C28046326   6.022   7.662   4.013  0.3522  0.2062  0.3735
  144MOL   H28146327   5.768   7.738   3.661 -0.1236  0.2938  0.1427
  144MOL   H28246328   5.660   7.637   3.590 -0.3415  0.5548  0.4615
  144MOL   H28346329   5.669   7.608   3.835  1.4545  1.6080  0.4312
  144MOL   H28446330   5.695   7.676   4.042 -0.7999 -1.3320 -0.9666
  144MOL   H28546331   5.818   7.797   4.076  2.2346  0.1146 -1.7200
  144MOL   H28646332   5.732   7.789   3.926  1.7374  0.0309 -0.7271
  144MOL   H28746333   6.022   7.584   4.089  2.3226  1.4298  1.6924
  144MOL   H28846334   6.031   7.756   4.068 -0.6927  2.0600 -2.4653
  144MOL   H28946335   6.101   7.649   3.939  0.2869 -0.3644  0.4041
  144MOL   C29046336   5.667   7.412   3.753  0.3416 -0.1742 -0.0863
  144MOL   C29146337   5.627   7.334   3.880  0.1280  0.4889 -0.0622
  144MOL   C29246338   5.608   7.184   3.840 -0.3537  0.2842 -0.1464
  144MOL   O29346339   5.512   7.151   3.773 -0.5677 -0.5070 -0.1762
  144MOL   N29446340   5.706   7.091   3.875 -0.1520  0.2120 -0.6917
  144MOL   C29546341   5.685   6.949   3.849 -0.8374  0.1969 -0.2964
  144MOL   C29646342   5.845   7.125   3.905 -0.1563 -0.1284  0.5092
  144MOL   H29746343   5.578   7.421   3.691 -1.6945 -0.3916  2.7372
  144MOL   H29846344   5.725   7.344   3.690 -3.1241 -1.9508 -1.4677
  144MOL   H29946345   5.692   7.348   3.966 -2.3087 -1.6934  2.2307
  144MOL   H30046346   5.590   6.929   3.900  0.3470 -1.5179  1.3016
  144MOL   H30146347   5.676   6.919   3.745  0.7371 -0.2440 -0.3179
  144MOL   H30246348   5.750   6.877   3.899  1.2822  1.0228 -1.8116
  144MOL   H30346349   5.904   7.128   3.814 -1.2001 -0.0048 -0.1771
  144MOL   H30446350   5.884   7.056   3.979  0.9190  0.2170  0.2740
  144MOL   H30546351   5.858   7.229   3.935  1.7407 -0.1718 -0.1222
  144MOL   C30646352   5.496   7.393   3.942 -0.4392  0.0470  0.9336
  144MOL   C30746353   5.418   7.306   4.047 -0.1473  0.0277 -0.2732
  144MOL   C30846354   5.508   7.266   4.162  0.7102  0.5920  0.0985
  144MOL   O30946355   5.591   7.348   4.195  0.8743 -1.5284 -0.0332
  144MOL   N31046356   5.510   7.139   4.210  0.2349 -0.4979  1.1774
  144MOL   C31146357   5.624   7.088   4.282  0.2424 -0.1751  0.1528
  144MOL   C31246358   5.400   7.051   4.183  0.0751  0.2809  0.1988
  144MOL   H31346359   5.524   7.483   3.997 -1.1329  0.7367  0.1632
  144MOL   H31446360   5.430   7.427   3.862  1.2468  0.9107 -0.1296
  144MOL   H31546361   5.339   7.366   4.093  1.7863  1.9979  0.5328
  144MOL   H31646362   5.716   7.108   4.227  1.2655 -0.7422  1.5975
  144MOL   H31746363   5.632   7.117   4.387  0.0847  0.9966 -0.1577
  144MOL   H31846364   5.614   6.979   4.292 -2.0863  0.1454  1.6389
  144MOL   H31946365   5.416   6.952   4.225 -0.5844  0.1140  0.0656
  144MOL   H32046366   5.382   7.034   4.077 -0.0293  1.1879  0.0676
  144MOL   H32146367   5.306   7.089   4.223 -0.6728 -1.0187 -0.2579
  144MOL   H32246368   5.367   7.219   4.004  1.3435 -0.3264 -1.3495
  145MOL     C146369   4.316   4.497   5.326 -1.0341 -0.4024 -0.0546
  145MOL     C246370   4.176   4.478   5.390 -0.6572 -0.2857  0.1437
  145MOL     C346371   4.086   4.380   5.308  0.7861  0.0320 -0.0616
  145MOL     O446372   4.085   4.397   5.185  0.4960 -0.3625 -0.0238
  145MOL     N546373   4.016   4.280   5.375 -0.0217  0.1069 -0.1986
  145MOL     C646374   3.950   4.171   5.306 -0.4470  0.7146  1.0425
  145MOL     C746375   3.966   4.281   5.512 -0.2481 -0.0132 -0.3607
  145MOL     H846376   4.359   4.410   5.276 -1.1339 -1.3375  1.4545
  145MOL     H946377   4.392   4.526   5.398 -1.0294 -0.1367 -0.1673
  145MOL    H1046378   4.203   4.432   5.484 -1.2777  0.4219  0.6784
  145MOL    H1146379   3.845   4.184   5.328 -0.7348 -1.9303  1.4615
  145MOL    H1246380   3.966   4.177   5.199  2.2080  0.3295  1.3792
  145MOL    H1346381   3.981   4.073   5.343 -2.3370 -0.6984 -1.0247
  145MOL    H1446382   3.858   4.276   5.521 -0.2120 -0.3168 -0.1031
  145MOL    H1546383   3.989   4.364   5.578 -2.3584 -2.8074  4.0953
  145MOL    H1646384   4.013   4.202   5.572  1.2855  0.2917 -1.1202
  145MOL    H1746385   4.306   4.585   5.264  1.9767 -0.9514 -1.3939
  145MOL    C1846386   4.089   4.602   5.406 -0.0153 -0.0248  0.7100
  145MOL    C1946387   4.158   4.725   5.478 -0.7591 -0.2416 -0.4623
  145MOL    C2046388   4.214   4.690   5.621 -0.1732  0.7040 -0.1473
  145MOL    O2146389   4.146   4.618   5.694  0.1471 -0.9173 -0.3433
  145MOL    N2246390   4.341   4.740   5.649 -0.0740 -0.5776  0.3685
  145MOL    C2346391   4.403   4.718   5.780 -0.4933 -0.7217 -0.3669
  145MOL    C2446392   4.406   4.843   5.574 -0.2277 -0.3211  0.0422
  145MOL    H2546393   4.040   4.627   5.312 -0.4647 -4.6251 -0.4031
  145MOL    H2646394   4.001   4.573   5.462  0.4101 -3.7901 -0.4577
  145MOL    H2746395   4.238   4.744   5.407  0.8263 -2.1190  0.7738
  145MOL    H2846396   4.377   4.619   5.819  0.4236 -0.8461 -0.0710
  145MOL    H2946397   4.511   4.725   5.766  0.1085 -2.5225  2.8111
  145MOL    H3046398   4.362   4.780   5.860 -0.3094 -0.1293 -0.7311
  145MOL    H3146399   4.334   4.924   5.563 -1.3420 -1.2150  0.7434
  145MOL    H3246400   4.437   4.804   5.477  1.0296  0.7146  0.0064
  145MOL    H3346401   4.488   4.900   5.617 -1.4160  1.2163  0.3222
  145MOL    C3446402   4.066   4.850   5.487  0.4716 -0.3194 -0.1975
  145MOL    C3546403   3.934   4.845   5.580  0.3349 -0.9749  0.1760
  145MOL    C3646404   3.825   4.756   5.522 -0.7748 -0.0407  0.7303
  145MOL    O3746405   3.786   4.791   5.411  0.2203  0.4842  0.4409
  145MOL    N3846406   3.775   4.651   5.596 -0.0321 -0.5991  0.3599
  145MOL    C3946407   3.808   4.619   5.742 -0.8977 -0.1885 -0.0536
  145MOL    C4046408   3.663   4.572   5.542 -0.0244  0.4658 -0.3198
  145MOL    H4146409   4.116   4.939   5.526 -1.3804  0.7400 -0.1807
  145MOL    H4246410   4.036   4.876   5.386 -0.8821  1.7502  0.7039
  145MOL    H4346411   3.968   4.807   5.676  0.2313 -2.5445 -0.3855
  145MOL    H4446412   3.743   4.545   5.789 -1.5645  1.5888  1.9183
  145MOL    H4546413   3.908   4.576   5.750  0.0149  1.2797 -2.7276
  145MOL    H4646414   3.804   4.710   5.803  1.9347  0.5601 -0.9210
  145MOL    H4746415   3.581   4.573   5.615  2.1304  1.2902  2.1616
  145MOL    H4846416   3.702   4.472   5.525 -2.2999 -0.8172  1.5001
  145MOL    H4946417   3.634   4.605   5.442 -2.5026  0.9811  0.5256
  145MOL    C5046418   3.872   4.988   5.586 -0.4326  0.2801  0.8132
  145MOL    C5146419   3.761   5.016   5.688  0.2167 -0.2382 -0.1000
  145MOL    C5246420   3.632   5.076   5.619 -0.3118 -0.8692 -0.1021
  145MOL    O5346421   3.643   5.173   5.547  0.1938  0.2160  0.6398
  145MOL    N5446422   3.509   5.035   5.644  0.3729 -0.2920 -0.0135
  145MOL    C5546423   3.482   4.929   5.738  1.1063  0.3283 -0.2063
  145MOL    C5646424   3.399   5.080   5.568 -0.3737 -1.0531  0.2139
  145MOL    H5746425   3.963   5.042   5.613 -0.4406  0.7203 -0.0412
  145MOL    H5846426   3.842   5.022   5.487 -0.6633  1.5741  1.3229
  145MOL    H5946427   3.746   4.920   5.738 -1.9127 -1.0034 -2.1283
  145MOL    H6046428   3.535   4.838   5.709  3.8499  1.6138  0.6139
  145MOL    H6146429   3.517   4.969   5.834 -0.6973  0.0941  0.5602
  145MOL    H6246430   3.376   4.906   5.742  1.0251  1.0064  2.5648
  145MOL    H6346431   3.422   5.041   5.469  1.4832 -1.3322  0.7276
  145MOL    H6446432   3.390   5.186   5.546  0.2798 -0.9696  0.3403
  145MOL    H6546433   3.302   5.047   5.603 -1.4414  3.1347  1.5330
  145MOL    C6646434   3.812   5.115   5.799 -0.9275 -0.1113 -0.5118
  145MOL    C6746435   3.950   5.075   5.872 -0.5484  0.3615  0.2443
  145MOL    C6846436   3.924   4.998   6.002 -0.1878 -0.1976 -0.3030
  145MOL    O6946437   3.831   5.046   6.073 -0.0944 -0.1091 -0.5400
  145MOL    N7046438   4.002   4.893   6.042  0.9409  0.4712  0.1593
  145MOL    C7146439   4.128   4.864   5.974 -0.4197 -0.3222 -0.1633
  145MOL    C7246440   3.987   4.836   6.170  0.1625  0.6738  0.2272
  145MOL    H7346441   3.829   5.212   5.753 -0.3450 -0.4438 -1.0047
  145MOL    H7446442   3.738   5.154   5.869  0.3586  0.7805  0.3691
  145MOL    H7546443   4.003   5.000   5.814 -0.0118 -1.1569  2.6414
  145MOL    H7646444   4.205   4.939   5.988 -0.7756  0.2277 -1.1099
  145MOL    H7746445   4.180   4.781   6.023  1.5261  1.0789  0.2313
  145MOL    H7846446   4.121   4.837   5.868 -1.2698 -1.2322  0.1120
  145MOL    H7946447   4.082   4.845   6.222  0.1065 -1.1660  0.6877
  145MOL    H8046448   3.954   4.733   6.152  2.3165 -0.1308  0.7826
  145MOL    H8146449   3.902   4.880   6.222  0.1263 -0.1334  0.8638
  145MOL    C8246450   4.040   5.199   5.902  0.1523  0.1362  0.3492
  145MOL    C8346451   4.073   5.301   5.792 -0.5644 -0.8030 -0.5054
  145MOL    C8446452   4.135   5.236   5.668 -0.7164  0.9174  0.0804
  145MOL    O8546453   4.230   5.157   5.685 -0.3031  0.3321  0.2133
  145MOL    N8646454   4.084   5.258   5.542 -0.0363  0.0024 -0.1471
  145MOL    C8746455   3.972   5.350   5.513 -0.4298 -0.5033  0.1495
  145MOL    C8846456   4.142   5.195   5.421  1.1918 -0.8827  0.5856
  145MOL    H8946457   3.992   5.248   5.987 -0.0284 -0.8830  0.8412
  145MOL    H9046458   4.140   5.164   5.925 -0.3268 -1.2654  0.3899
  145MOL    H9146459   3.982   5.346   5.754  0.2626 -1.0045 -2.8399
  145MOL    H9246460   3.976   5.384   5.409  1.2764  0.7541  0.5957
  145MOL    H9346461   3.873   5.311   5.535 -0.3786  0.0498  1.4034
  145MOL    H9446462   3.978   5.443   5.569 -1.4350  0.3364 -1.1197
  145MOL    H9546463   4.239   5.152   5.445  1.9438  0.7670  0.6030
  145MOL    H9646464   4.152   5.268   5.340 -2.6134 -0.8542  0.0513
  145MOL    H9746465   4.075   5.116   5.388  0.9371 -0.5503  0.2948
  145MOL    C9846466   4.173   5.414   5.840 -0.0563 -0.8175 -0.5255
  145MOL    C9946467   4.134   5.499   5.967  0.4959 -0.5755  0.4424
  145MOL   C10046468   3.985   5.541   5.960 -0.2965  0.1014 -0.8842
  145MOL   O10146469   3.935   5.575   5.855  0.6826  0.4995  0.1822
  145MOL   N10246470   3.905   5.521   6.070 -0.6668  0.8497 -0.4370
  145MOL   C10346471   3.956   5.499   6.203 -0.4437 -0.4327  0.1024
  145MOL   C10446472   3.761   5.548   6.062  0.7364 -0.3992 -0.4243
  145MOL   H10546473   4.270   5.365   5.855  0.8477  0.8505 -0.8454
  145MOL   H10646474   4.195   5.479   5.756  0.9420  0.0311  0.3714
  145MOL   H10746475   4.152   5.431   6.050  0.5918  1.1898  1.8934
  145MOL   H10846476   3.994   5.396   6.208  0.4991 -0.2563 -2.9313
  145MOL   H10946477   4.043   5.564   6.214 -0.6412 -0.2349  0.5302
  145MOL   H11046478   3.892   5.526   6.287 -0.4140  0.6484 -0.2215
  145MOL   H11146479   3.737   5.649   6.093  0.3006 -0.7075  0.2557
  145MOL   H11246480   3.708   5.472   6.120 -0.0293 -1.1361 -2.0586
  145MOL   H11346481   3.708   5.527   5.970 -1.2999  0.8989  0.4151
  145MOL   C11446482   4.210   5.627   5.965 -0.2578  0.0476  0.7409
  145MOL   C11546483   4.361   5.631   5.930  0.7346 -0.7938 -0.8939
  145MOL   C11646484   4.457   5.624   6.054 -0.3016  0.4435  0.1515
  145MOL   O11746485   4.435   5.714   6.136 -0.2886 -0.1093 -0.1903
  145MOL   N11846486   4.561   5.535   6.066  0.2176 -0.0336 -0.5316
  145MOL   C11946487   4.656   5.547   6.175  0.1048  0.1024 -0.5959
  145MOL   C12046488   4.590   5.433   5.971  0.4156 -0.1504 -0.5117
  145MOL   H12146489   4.150   5.703   5.915 -1.6566 -1.7476 -0.3602
  145MOL   H12246490   4.206   5.671   6.065  0.9735 -0.7666  1.1658
  145MOL   H12346491   4.383   5.549   5.861  1.7844 -2.0528  0.8793
  145MOL   H12446492   4.670   5.446   6.213  0.9532  0.7646  0.9223
  145MOL   H12546493   4.756   5.570   6.138  0.9153 -1.5265  0.5374
  145MOL   H12646494   4.631   5.624   6.248 -2.8214  1.3096 -2.7805
  145MOL   H12746495   4.500   5.372   5.954 -0.0017  0.2846  0.1573
  145MOL   H12846496   4.679   5.372   5.989  0.1442 -0.8767 -1.5416
  145MOL   H12946497   4.598   5.480   5.873  1.0145 -1.2290 -0.9900
  145MOL   C13046498   4.402   5.753   5.850  0.5905  0.6657  0.0121
  145MOL   C13146499   4.345   5.758   5.706  0.9780 -0.5917 -0.5304
  145MOL   C13246500   4.401   5.645   5.612 -0.4909  0.3333 -0.4219
  145MOL   O13346501   4.525   5.631   5.620 -0.2680  0.1307  0.1624
  145MOL   N13446502   4.323   5.580   5.530  0.3987 -0.7873 -0.8773
  145MOL   C13546503   4.186   5.611   5.509 -0.7684 -0.6280 -0.3169
  145MOL   C13646504   4.385   5.490   5.433 -0.7563 -0.2651 -0.2494
  145MOL   H13746505   4.380   5.844   5.905 -0.3731 -0.4933  1.5956
  145MOL   H13846506   4.511   5.752   5.850  0.5907  0.5770  0.1775
  145MOL   H13946507   4.240   5.730   5.714  0.2770  1.2751 -2.6770
  145MOL   H14046508   4.132   5.556   5.432 -0.8799 -0.1807 -0.5583
  145MOL   H14146509   4.124   5.591   5.596 -0.2910  0.6448  0.3239
  145MOL   H14246510   4.173   5.715   5.480  0.9531 -0.5129 -0.7627
  145MOL   H14346511   4.327   5.399   5.420 -0.9416 -0.2596  0.5056
  145MOL   H14446512   4.483   5.452   5.458 -0.3608  1.0033  0.1769
  145MOL   H14546513   4.394   5.546   5.340  0.6621 -1.2113 -0.6924
  145MOL   C14646514   4.361   5.902   5.643  0.3387 -0.0081  0.2538
  145MOL   C14746515   4.270   6.025   5.685  0.1704  0.1647  0.6112
  145MOL   C14846516   4.122   5.991   5.673  0.0421  0.2585 -0.1809
  145MOL   O14946517   4.087   5.936   5.565  0.7929 -0.0271 -0.0551
  145MOL   N15046518   4.032   6.010   5.772  0.2712 -0.4605  0.4746
  145MOL   C15146519   4.078   6.053   5.902 -0.2279  0.4776 -0.0929
  145MOL   C15246520   3.890   5.981   5.762 -0.4254  0.2525 -0.3706
  145MOL   H15346521   4.463   5.935   5.664  0.3124 -0.4790  1.1364
  145MOL   H15446522   4.361   5.891   5.535  0.3752  0.8860  0.1579
  145MOL   H15546523   4.305   6.035   5.788 -1.0024  0.1332  1.0174
  145MOL   H15646524   4.138   5.975   5.949 -0.2095  0.2529 -0.4884
  145MOL   H15746525   4.140   6.141   5.884  0.3708 -0.5254 -3.1766
  145MOL   H15846526   3.993   6.079   5.965  0.4319  0.5790  0.7824
  145MOL   H15946527   3.874   5.873   5.756 -0.9692  0.3956 -1.6460
  145MOL   H16046528   3.846   6.018   5.669 -0.5329  1.0234 -0.0089
  145MOL   H16146529   3.832   6.019   5.845 -0.5117  0.4962 -0.5413
  145MOL   C16246530   4.303   6.155   5.604  0.5197  0.2114 -0.0966
  145MOL   C16346531   4.423   6.236   5.662  0.2654  0.4459 -0.4125
  145MOL   C16446532   4.388   6.321   5.788 -0.1740  0.5155  0.7560
  145MOL   O16546533   4.279   6.363   5.803  0.0793 -0.1433 -0.0502
  145MOL   N16646534   4.482   6.357   5.872  0.1765 -0.2919  0.4905
  145MOL   C16746535   4.466   6.453   5.982 -0.6478 -1.0170  0.4257
  145MOL   C16846536   4.619   6.292   5.872  0.1378  0.3418  0.0826
  145MOL   H16946537   4.312   6.124   5.500 -0.8844  2.4505 -0.9281
  145MOL   H17046538   4.216   6.220   5.600 -0.6635 -1.2050  1.6899
  145MOL   H17146539   4.498   6.161   5.686  0.8093  0.6683 -1.3878
  145MOL   H17246540   4.417   6.410   6.070  0.7831  1.2331  2.3802
  145MOL   H17346541   4.566   6.479   6.017  0.1246 -1.6915 -1.2275
  145MOL   H17446542   4.402   6.535   5.950 -1.6079 -1.8429  0.2219
  145MOL   H17546543   4.691   6.324   5.947 -2.3213  3.0764  1.4034
  145MOL   H17646544   4.664   6.316   5.776 -0.2510 -1.3970 -0.5512
  145MOL   H17746545   4.612   6.184   5.887  0.3073  0.1478 -1.1907
  145MOL   C17846546   4.467   6.329   5.552 -0.3345 -0.6275  0.8147
  145MOL   C17946547   4.571   6.278   5.459 -1.0234  0.6246  0.2855
  145MOL   C18046548   4.700   6.239   5.529  0.8045  0.0868  1.0126
  145MOL   O18146549   4.767   6.336   5.565 -0.5216  0.2793  0.1643
  145MOL   N18246550   4.740   6.111   5.547 -0.3913  0.1884 -0.1808
  145MOL   C18346551   4.686   6.003   5.465 -0.2197 -0.4301  0.2918
  145MOL   C18446552   4.860   6.079   5.620  0.2001  0.0433 -0.2114
  145MOL   H18546553   4.377   6.366   5.503 -0.2003  0.8874  1.7001
  145MOL   H18646554   4.501   6.420   5.599 -0.1084 -0.7803  0.9480
  145MOL   H18746555   4.530   6.194   5.403  0.3118 -0.9763  1.6593
  145MOL   H18846556   4.746   5.914   5.484  0.3987  0.1239  1.0081
  145MOL   H18946557   4.583   5.985   5.495 -0.8983  0.4572 -1.4626
  145MOL   H19046558   4.690   6.023   5.358  2.6147  0.4941  0.5187
  145MOL   H19146559   4.945   6.068   5.553 -0.1145  0.9197 -0.7540
  145MOL   H19246560   4.843   5.984   5.672 -1.8011 -0.3679 -1.5564
  145MOL   H19346561   4.879   6.149   5.701 -2.4773 -0.0552  0.5452
  145MOL   C19446562   4.601   6.378   5.346  0.0575  0.2809  0.2157
  145MOL   C19546563   4.661   6.308   5.218  0.1392  0.0590 -0.2689
  145MOL   C19646564   4.776   6.394   5.162  0.1611 -0.4170 -0.6292
  145MOL   O19746565   4.759   6.512   5.145  0.4655 -0.4921  0.2498
  145MOL   N19846566   4.898   6.343   5.133  0.6181 -0.0599 -0.1007
  145MOL   C19946567   4.926   6.201   5.138  0.2884 -0.3288  0.2319
  145MOL   C20046568   5.001   6.417   5.064  0.2017 -0.4501 -0.1845
  145MOL   H20146569   4.509   6.420   5.304  0.9574  1.6280 -0.4544
  145MOL   H20246570   4.646   6.470   5.383 -1.8740  1.4075 -0.1556
  145MOL   H20346571   4.691   6.206   5.242  0.5948 -0.3398 -2.4443
  145MOL   H20446572   4.905   6.161   5.237 -0.1056  0.3101  0.4110
  145MOL   H20546573   4.880   6.129   5.069  1.0250 -2.7522  2.1906
  145MOL   H20646574   5.034   6.187   5.140  0.3083 -0.0502  0.8828
  145MOL   H20746575   5.040   6.489   5.136 -0.6448 -0.2273  0.0541
  145MOL   H20846576   4.967   6.454   4.968 -2.1269  0.4890  0.9594
  145MOL   H20946577   5.087   6.354   5.042 -0.4743 -0.4854 -2.8429
  145MOL   C21046578   4.545   6.315   5.102  0.4290  0.8041  0.2531
  145MOL   C21146579   4.419   6.219   5.116  0.0188  0.4272  0.7587
  145MOL   C21246580   4.457   6.075   5.138  0.2183 -0.2049  0.1669
  145MOL   O21346581   4.560   6.036   5.089  0.1558 -0.2244  0.4532
  145MOL   N21446582   4.386   5.992   5.220 -0.1156  0.8761  0.1122
  145MOL   C21546583   4.448   5.858   5.255  0.6948 -0.1877  0.5927
  145MOL   C21646584   4.247   6.011   5.259  0.0277 -0.3866  0.3014
  145MOL   H21746585   4.511   6.414   5.071  1.5415  1.2350  0.3727
  145MOL   H21846586   4.591   6.294   5.006 -0.8346 -2.0584  0.2250
  145MOL   H21946587   4.370   6.256   5.206 -1.1159  1.3043 -0.1931
  145MOL   H22046588   4.554   5.866   5.279  0.4364 -1.2682  2.1621
  145MOL   H22146589   4.401   5.808   5.339  0.5977 -0.7862  0.1851
  145MOL   H22246590   4.462   5.782   5.178 -0.9180 -0.9487  1.0194
  145MOL   H22346591   4.209   5.956   5.345 -2.2821 -2.6462 -2.0449
  145MOL   H22446592   4.179   5.985   5.178  1.0391  1.4802 -1.1886
  145MOL   H22546593   4.228   6.114   5.290 -2.3513 -1.1081  1.3810
  145MOL   C22646594   4.312   6.248   5.011  0.1129 -0.3307  0.0173
  145MOL   C22746595   4.312   6.168   4.876 -0.6129 -0.5055 -0.4337
  145MOL   C22846596   4.435   6.201   4.797  0.4774  0.3151 -0.3587
  145MOL   O22946597   4.456   6.320   4.781  0.6783 -0.7272  0.4064
  145MOL   N23046598   4.519   6.104   4.747  0.0049  0.1837 -0.0367
  145MOL   C23146599   4.488   5.959   4.744  0.0586  0.1076  0.5741
  145MOL   C23246600   4.647   6.147   4.694 -0.3776 -0.1951  0.3934
  145MOL   H23346601   4.216   6.213   5.048 -0.7594 -0.6847 -2.4753
  145MOL   H23446602   4.297   6.355   5.005  2.4033  0.0075 -0.1979
  145MOL   H23546603   4.300   6.064   4.907  1.0162 -0.4477  0.4671
  145MOL   H23646604   4.577   5.901   4.719  0.3826  0.6788  0.4009
  145MOL   H23746605   4.443   5.911   4.831 -0.4717 -1.1451 -0.3712
  145MOL   H23846606   4.425   5.946   4.656  1.5516 -1.1324 -0.3456
  145MOL   H23946607   4.637   6.247   4.652  1.2102 -0.6797 -1.1995
  145MOL   H24046608   4.677   6.076   4.617 -1.0646 -0.7947  0.6770
  145MOL   H24146609   4.719   6.150   4.777 -0.5658 -1.2399  0.5946
  145MOL   C24246610   4.188   6.208   4.788  0.3786 -0.0804 -0.5108
  145MOL   C24346611   4.151   6.103   4.681 -0.6164  0.1406 -0.1942
  145MOL   C24446612   4.077   6.162   4.553 -0.1845 -0.5309  0.4180
  145MOL   O24546613   3.950   6.181   4.555  0.1286  0.2392  0.3484
  145MOL   N24646614   4.147   6.194   4.442  0.9060 -0.2758  0.2549
  145MOL   C24746615   4.287   6.224   4.433  0.3281 -0.3105 -0.0494
  145MOL   C24846616   4.081   6.199   4.310 -0.1882 -0.1104  0.1789
  145MOL   H24946617   4.102   6.233   4.851  0.8070 -0.9330  0.4454
  145MOL   H25046618   4.201   6.306   4.744  0.3218 -0.2532 -0.9114
  145MOL   H25146619   4.248   6.070   4.643 -0.2054  0.7454  0.3265
  145MOL   H25246620   4.319   6.277   4.343  2.6913 -1.3032  0.1479
  145MOL   H25346621   4.319   6.288   4.515  3.3658  0.2755 -1.5868
  145MOL   H25446622   4.348   6.133   4.436  1.9603  0.6362 -2.6364
  145MOL   H25546623   4.053   6.098   4.277  0.8581  0.2526 -1.9298
  145MOL   H25646624   4.144   6.236   4.229 -0.4015  0.6365  0.3498
  145MOL   H25746625   3.995   6.267   4.312  0.9586  1.4379 -1.7139
  145MOL   C25846626   4.085   5.973   4.740 -0.0305  0.8477  0.6585
  145MOL   C25946627   3.942   5.972   4.787 -0.3540  0.0725 -0.2632
  145MOL   C26046628   3.920   6.012   4.932 -0.2474 -1.6187  0.1185
  145MOL   O26146629   3.975   5.953   5.025  0.1981  0.1410 -0.1979
  145MOL   N26246630   3.840   6.122   4.956 -0.0311  0.1335  0.1946
  145MOL   C26346631   3.842   6.171   5.094 -0.3787  0.3723  0.3894
  145MOL   C26446632   3.793   6.211   4.860 -0.5724 -0.0039 -0.3714
  145MOL   H26546633   4.091   5.909   4.651 -0.8662 -0.5781  1.6126
  145MOL   H26646634   4.156   5.931   4.811 -0.0732  0.6234  0.5693
  145MOL   H26746635   3.888   6.035   4.718 -1.9900 -0.0762  0.8578
  145MOL   H26846636   3.819   6.088   5.161  0.7183  1.1488  1.7506
  145MOL   H26946637   3.939   6.208   5.124  0.5255 -1.1236 -0.6278
  145MOL   H27046638   3.759   6.238   5.118 -0.0923  1.0870 -0.5948
  145MOL   H27146639   3.867   6.249   4.790 -1.3177  0.2938 -1.0199
  145MOL   H27246640   3.755   6.297   4.916 -0.5857 -1.4665  1.9206
  145MOL   H27346641   3.719   6.169   4.791  0.1130 -2.5189  0.3694
  145MOL   C27446642   3.880   5.832   4.769 -0.2780 -0.5123  0.4304
  145MOL   C27546643   3.949   5.702   4.820  0.2097 -0.4197 -0.1436
  145MOL   C27646644   4.077   5.665   4.734 -0.4912 -0.3838  0.4112
  145MOL   O27746645   4.055   5.616   4.620  0.0772  0.1061 -0.1389
  145MOL   N27846646   4.207   5.674   4.782 -0.1756  0.0201 -0.4649
  145MOL   C27946647   4.238   5.685   4.921  0.3832 -0.0016 -0.0650
  145MOL   C28046648   4.324   5.679   4.701 -0.0562 -0.3820  0.2188
  145MOL   H28146649   3.781   5.834   4.814 -0.1883  0.4809  0.6108
  145MOL   H28246650   3.844   5.818   4.667  0.6541 -0.8203  0.1359
  145MOL   H28346651   4.002   5.732   4.911  0.8956  1.7009 -1.1936
  145MOL   H28446652   4.171   5.623   4.981 -1.1666  1.4917 -0.2150
  145MOL   H28546653   4.334   5.635   4.934  0.2202 -0.5287 -0.8491
  145MOL   H28646654   4.252   5.788   4.954 -2.0222  0.6197 -0.8995
  145MOL   H28746655   4.296   5.735   4.612  1.0949  2.8794  1.8649
  145MOL   H28846656   4.351   5.580   4.663  1.1241 -0.5014  1.3381
  145MOL   H28946657   4.419   5.722   4.732  0.8922 -2.8140  0.7988
  145MOL   C29046658   3.856   5.579   4.843  0.0023  0.3874  0.3653
  145MOL   C29146659   3.762   5.577   4.968 -1.1936 -0.9999  0.0732
  145MOL   C29246660   3.833   5.600   5.101  0.7647 -1.2084 -0.9447
  145MOL   O29346661   3.933   5.529   5.113 -0.2737  0.5827 -0.1335
  145MOL   N29446662   3.785   5.688   5.196 -0.6861  0.6191 -0.5235
  145MOL   C29546663   3.673   5.780   5.170  0.0246  0.1018 -0.0313
  145MOL   C29646664   3.847   5.709   5.327 -0.3329 -0.3069  0.4196
  145MOL   H29746665   3.798   5.563   4.752 -0.1217  0.4152  0.4401
  145MOL   H29846666   3.914   5.487   4.857 -1.5755 -0.4571  1.5526
  145MOL   H29946667   3.693   5.661   4.956 -0.4594 -0.1809  1.5456
  145MOL   H30046668   3.587   5.718   5.143  0.6441  0.1178 -2.2126
  145MOL   H30146669   3.653   5.850   5.250 -1.8365  0.7373 -1.0035
  145MOL   H30246670   3.711   5.835   5.084  1.4944 -1.5671 -0.4763
  145MOL   H30346671   3.921   5.789   5.319 -0.1323 -0.4137  1.1806
  145MOL   H30446672   3.884   5.616   5.370  1.0110  0.8343  1.7923
  145MOL   H30546673   3.766   5.732   5.396 -1.4783  1.9575 -1.5968
  145MOL   C30646674   3.679   5.449   4.966 -0.1018 -0.0388 -0.0446
  145MOL   C30746675   3.582   5.427   5.081  0.5153  0.3372  0.2708
  145MOL   C30846676   3.506   5.304   5.064  0.2246  0.2837  0.5097
  145MOL   O30946677   3.404   5.302   4.990 -0.0081 -0.4549 -0.4998
  145MOL   N31046678   3.550   5.192   5.129 -0.1953  0.2576  0.7577
  145MOL   C31146679   3.674   5.184   5.206 -0.2635 -0.4358  0.1109
  145MOL   C31246680   3.458   5.081   5.150  0.4382 -0.5569 -0.0078
  145MOL   H31346681   3.620   5.451   4.875 -0.5925  0.8776  0.2878
  145MOL   H31446682   3.747   5.363   4.960  0.8432  0.8050 -1.5549
  145MOL   H31546683   3.621   5.430   5.183 -0.1509 -1.9409  0.6260
  145MOL   H31646684   3.758   5.249   5.181 -1.2987  0.8393 -0.0820
  145MOL   H31746685   3.658   5.224   5.307  0.6100  2.7066 -0.9203
  145MOL   H31846686   3.714   5.085   5.228 -1.3090 -0.6773  1.0078
  145MOL   H31946687   3.355   5.109   5.170  0.7402  1.8620 -1.7191
  145MOL   H32046688   3.490   5.020   5.235  0.4134 -0.0661  0.3539
  145MOL   H32146689   3.464   5.013   5.065 -1.6619 -0.7714  0.0030
  145MOL   H32246690   3.517   5.515   5.083  1.4474  1.0406 -0.4244
  146MOL     C146691   0.875   1.480   1.589  0.2949  0.2136  0.2423
  146MOL     C246692   0.918   1.377   1.486 -0.3155 -1.0882 -0.5518
  146MOL     C346693   0.881   1.244   1.546  1.1376 -0.0290  0.0295
  146MOL     O446694   0.970   1.186   1.616  0.1116  0.2060  0.1269
  146MOL     N546695   0.761   1.187   1.511 -0.1262 -0.2129 -0.8982
  146MOL     C646696   0.736   1.042   1.546 -0.2475  0.2784 -0.3079
  146MOL     C746697   0.653   1.264   1.454  0.4505 -0.2973 -0.5353
  146MOL     H846698   0.863   1.429   1.685  0.0835  1.7293  1.0330
  146MOL     H946699   0.774   1.514   1.567 -0.1867 -1.9462 -1.0802
  146MOL    H1046700   0.871   1.396   1.389 -1.5153  1.2859  0.4413
  146MOL    H1146701   0.765   1.026   1.650  4.1438  0.7139 -1.3801
  146MOL    H1246702   0.631   1.017   1.526 -0.2171  2.8062 -4.1647
  146MOL    H1346703   0.809   0.991   1.483 -0.7215 -2.6853  1.4281
  146MOL    H1446704   0.557   1.220   1.482  0.6951 -0.7803 -0.4534
  146MOL    H1546705   0.663   1.252   1.346 -0.1309  1.1602 -0.7678
  146MOL    H1646706   0.655   1.372   1.464 -2.1421 -0.1430 -1.1166
  146MOL    H1746707   0.945   1.562   1.605  2.2841 -1.2579 -0.6491
  146MOL    C1846708   1.070   1.402   1.467 -0.4827 -0.1538  0.7362
  146MOL    C1946709   1.165   1.300   1.383  0.7137 -0.4648 -0.2196
  146MOL    C2046710   1.313   1.348   1.385 -0.0823 -0.0653  0.1964
  146MOL    O2146711   1.347   1.449   1.322  0.2112 -0.1064  0.3530
  146MOL    N2246712   1.398   1.285   1.467  0.2806 -0.2909  0.5987
  146MOL    C2346713   1.361   1.178   1.563 -0.1685  0.2158 -0.4320
  146MOL    C2446714   1.543   1.318   1.472 -0.2531  0.1640 -0.0003
  146MOL    H2546715   1.081   1.497   1.415  0.2310 -1.0623 -0.8015
  146MOL    H2646716   1.124   1.414   1.561 -2.3976 -0.7078  1.9347
  146MOL    H2746717   1.155   1.201   1.429  2.5580  0.1022  1.5230
  146MOL    H2846718   1.335   1.088   1.507  2.4550 -0.5716 -0.4636
  146MOL    H2946719   1.428   1.150   1.644  1.1771  0.8234 -1.3085
  146MOL    H3046720   1.271   1.209   1.615  1.6560  1.4079  2.1210
  146MOL    H3146721   1.569   1.423   1.461 -1.8841  0.6084  0.1655
  146MOL    H3246722   1.579   1.264   1.384 -1.6528 -0.0215 -0.4780
  146MOL    H3346723   1.600   1.294   1.561 -1.6862  0.0493  0.9129
  146MOL    C3446724   1.115   1.292   1.234  0.1110  0.8219 -0.0311
  146MOL    C3546725   1.183   1.201   1.125  0.0176  0.4523 -1.1653
  146MOL    C3646726   1.233   1.062   1.180 -0.6924  0.0960  0.5351
  146MOL    O3746727   1.356   1.047   1.184  0.0488 -0.1217  0.0167
  146MOL    N3846728   1.150   0.967   1.206 -0.1630 -0.2596  0.6138
  146MOL    C3946729   1.007   0.997   1.235  0.6714  0.3920 -0.5602
  146MOL    C4046730   1.177   0.825   1.183 -0.1068  0.1923  0.5877
  146MOL    H4146731   1.006   1.292   1.227  0.1712  0.2906 -1.0099
  146MOL    H4246732   1.126   1.393   1.197  0.3887  0.2156 -1.6347
  146MOL    H4346733   1.097   1.172   1.063 -1.5660 -1.0224  1.5820
  146MOL    H4446734   1.000   1.066   1.319 -1.5507  1.0533 -1.2677
  146MOL    H4546735   0.943   1.044   1.161 -1.2976 -1.0227  0.2044
  146MOL    H4646736   0.961   0.903   1.266  1.7365 -0.1010 -0.4556
  146MOL    H4746737   1.087   0.779   1.141  0.8191 -0.5784 -0.5763
  146MOL    H4846738   1.210   0.764   1.266 -0.9122 -0.0224  0.7574
  146MOL    H4946739   1.251   0.815   1.104  0.4408 -2.9815  1.4382
  146MOL    C5046740   1.294   1.279   1.047  0.3998 -0.4700  0.8808
  146MOL    C5146741   1.324   1.224   0.904 -0.0677 -0.0717 -1.1286
  146MOL    C5246742   1.459   1.296   0.855  0.3411 -0.2368  0.6065
  146MOL    O5346743   1.442   1.380   0.771  0.3016 -0.3558 -0.6123
  146MOL    N5446744   1.577   1.276   0.920  0.0890 -0.0182 -0.0881
  146MOL    C5546745   1.689   1.364   0.905 -0.3467 -0.1112 -0.0459
  146MOL    C5646746   1.608   1.159   1.011 -0.4053  0.2331 -0.0666
  146MOL    H5746747   1.249   1.378   1.039  0.9321 -0.3624 -0.9812
  146MOL    H5846748   1.380   1.290   1.113  1.4712 -0.8296 -0.4300
  146MOL    H5946749   1.346   1.117   0.913 -1.9006 -0.2671  1.8059
  146MOL    H6046750   1.779   1.320   0.947 -0.5258  0.8197  1.3283
  146MOL    H6146751   1.691   1.374   0.796  0.1084 -0.1931 -0.0464
  146MOL    H6246752   1.670   1.462   0.948 -1.4974  0.0525 -0.8759
  146MOL    H6346753   1.534   1.080   0.999  0.5482 -0.2828 -2.9968
  146MOL    H6446754   1.616   1.183   1.118 -1.6596 -1.3886  0.4132
  146MOL    H6546755   1.708   1.123   0.985 -0.2284  1.8224 -1.6255
  146MOL    C6646756   1.201   1.227   0.808 -0.1488 -0.1186 -0.1358
  146MOL    C6746757   1.139   1.365   0.785 -0.4564 -0.1061 -0.0053
  146MOL    C6846758   1.013   1.387   0.877  0.1095  0.2349  0.1452
  146MOL    O6946759   0.920   1.310   0.883 -0.3407  0.1444 -0.2654
  146MOL    N7046760   1.002   1.499   0.949 -0.2570  0.3451 -0.2501
  146MOL    C7146761   0.893   1.518   1.047 -0.3430  0.0093 -0.3043
  146MOL    C7246762   1.075   1.616   0.910 -0.4513 -0.2023  0.4451
  146MOL    H7346763   1.254   1.196   0.718  2.4251  0.4754  1.1264
  146MOL    H7446764   1.119   1.157   0.824 -0.8459  1.0054  1.3049
  146MOL    H7546765   1.217   1.441   0.783 -0.3791 -0.1975 -2.3084
  146MOL    H7646766   0.865   1.432   1.108 -3.5040  1.8858  1.0239
  146MOL    H7746767   0.923   1.603   1.109 -2.0419 -0.2235  0.8772
  146MOL    H7846768   0.801   1.537   0.991 -0.8440  0.7015  0.7474
  146MOL    H7946769   1.039   1.702   0.967 -0.3060 -0.7094  1.3117
  146MOL    H8046770   1.058   1.639   0.805  0.6751 -3.8792 -0.5861
  146MOL    H8146771   1.182   1.605   0.922 -0.2005  0.5943 -1.0729
  146MOL    C8246772   1.090   1.360   0.637 -0.1811 -0.0175 -0.9140
  146MOL    C8346773   1.183   1.407   0.527 -0.2982 -0.0463  0.2803
  146MOL    C8446774   1.205   1.566   0.541 -0.2434 -0.3343 -1.0904
  146MOL    O8546775   1.115   1.636   0.570 -0.0268 -0.1320  0.0691
  146MOL    N8646776   1.331   1.619   0.522 -0.6153 -0.1493 -0.0476
  146MOL    C8746777   1.351   1.766   0.553 -0.0342  0.6069  0.2343
  146MOL    C8846778   1.452   1.544   0.477  0.9843  0.3862  0.2326
  146MOL    H8946779   1.041   1.268   0.605  0.9375 -1.2909  0.9532
  146MOL    H9046780   1.000   1.420   0.645 -1.0410 -1.3417 -0.5825
  146MOL    H9146781   1.271   1.344   0.542 -2.1811 -2.5503  1.1636
  146MOL    H9246782   1.278   1.826   0.499  1.5412  1.1035 -1.3856
  146MOL    H9346783   1.326   1.785   0.657  0.1642 -2.1399  0.8198
  146MOL    H9446784   1.451   1.798   0.523  0.6272 -0.2463  1.4725
  146MOL    H9546785   1.425   1.503   0.379 -0.5740 -2.4908  1.8091
  146MOL    H9646786   1.472   1.459   0.543  0.1266 -1.0230 -1.2798
  146MOL    H9746787   1.543   1.605   0.471  0.4568  0.9693 -2.3776
  146MOL    C9846788   1.140   1.382   0.383  0.0417 -0.2019  0.8444
  146MOL    C9946789   1.004   1.444   0.336 -0.1799  0.3075  0.5848
  146MOL   C10046790   0.883   1.363   0.374  0.3974  0.0856 -0.3697
  146MOL   O10146791   0.887   1.245   0.348 -0.2521 -0.5308 -0.2344
  146MOL   N10246792   0.792   1.420   0.453  0.2693  0.1120  0.0505
  146MOL   C10346793   0.676   1.344   0.494  0.4497  0.1616 -0.0402
  146MOL   C10446794   0.788   1.564   0.487  0.0076 -0.2666 -0.1564
  146MOL   H10546795   1.216   1.413   0.311 -1.5158  0.9926 -0.3155
  146MOL   H10646796   1.142   1.276   0.358  0.9929  0.8306 -4.0787
  146MOL   H10746797   0.987   1.548   0.361  0.2106  0.4742  0.1779
  146MOL   H10846798   0.705   1.241   0.515  2.7503  1.3155  2.8342
  146MOL   H10946799   0.616   1.396   0.569  1.0073 -0.0648  0.5706
  146MOL   H11046800   0.619   1.341   0.401 -0.1327  0.6942  0.2971
  146MOL   H11146801   0.853   1.583   0.573 -0.5170 -1.9708  0.6597
  146MOL   H11246802   0.687   1.603   0.499 -0.6962 -1.9796 -0.3502
  146MOL   H11346803   0.808   1.632   0.405  0.8035 -0.9068 -0.5088
  146MOL   C11446804   1.010   1.456   0.184 -0.2744 -0.5013  0.1526
  146MOL   C11546805   1.093   1.577   0.132 -0.2804 -0.2229 -0.8454
  146MOL   C11646806   1.025   1.713   0.150  0.5392  0.1806 -0.1180
  146MOL   O11746807   0.905   1.723   0.152  0.4509 -0.5824  0.6885
  146MOL   N11846808   1.099   1.827   0.165  0.5262  0.1255 -0.1477
  146MOL   C11946809   1.025   1.950   0.196 -0.0446  0.0135 -0.0314
  146MOL   C12046810   1.242   1.840   0.177 -0.4351  0.6580  0.9892
  146MOL   H12146811   1.050   1.361   0.149  1.0491  0.0240  0.1946
  146MOL   H12246812   0.909   1.469   0.147  0.1500  0.2759 -0.7693
  146MOL   H12346813   1.193   1.585   0.175  0.0953 -3.5675 -0.9321
  146MOL   H12446814   0.974   1.979   0.104 -0.7637  1.5977  0.8366
  146MOL   H12546815   0.960   1.933   0.282  1.5335 -2.4087  0.7388
  146MOL   H12646816   1.088   2.033   0.228 -1.8498  0.3939  2.7028
  146MOL   H12746817   1.297   1.839   0.083  0.6724  0.3137  1.6384
  146MOL   H12846818   1.299   1.775   0.242  0.1654  0.6887  0.5052
  146MOL   H12946819   1.277   1.936   0.215  2.9351 -0.6660  1.3703
  146MOL   C13046820   1.112   1.539   7.839  0.3970 -0.2995 -0.1059
  146MOL   C13146821   1.238   1.460   7.813  0.4424 -0.2078 -0.0834
  146MOL   C13246822   1.368   1.540   7.831 -0.1541  0.6019 -0.4339
  146MOL   O13346823   1.371   1.651   7.782  0.2150  0.0392 -0.0874
  146MOL   N13446824   1.468   1.493   0.058  0.4491 -0.0239 -0.2648
  146MOL   C13546825   1.482   1.346   0.069 -0.3316  0.0921 -0.4367
  146MOL   C13646826   1.571   1.589   0.107  0.5751  0.2054  0.4415
  146MOL   H13746827   1.026   1.482   7.803  0.6219 -0.7395  0.0501
  146MOL   H13846828   1.113   1.626   7.773 -1.6989 -0.0825  0.0897
  146MOL   H13946829   1.225   1.386   0.039  0.1911  0.1530  0.2145
  146MOL   H14046830   1.421   1.291   7.851 -1.8757 -0.6160  1.3788
  146MOL   H14146831   1.587   1.316   0.071  0.0085  1.3167  1.0601
  146MOL   H14246832   1.443   1.315   0.166 -0.7528 -0.4438 -0.7735
  146MOL   H14346833   1.633   1.532   0.177 -1.3723 -1.4517  0.8491
  146MOL   H14446834   1.526   1.680   0.147 -1.9569 -0.0034 -1.7976
  146MOL   H14546835   1.631   1.627   0.024  0.2627 -0.4170 -0.0708
  146MOL   C14646836   1.232   1.397   7.670  0.4865 -0.1697  0.5267
  146MOL   C14746837   1.136   1.283   7.641 -0.3183  0.5629  0.1357
  146MOL   C14846838   1.120   1.189   7.765  0.1316 -0.6242  0.4427
  146MOL   O14946839   1.229   1.157   7.806  0.0675 -0.6109  0.4097
  146MOL   N15046840   1.008   1.163   7.836  0.1997 -1.0959  0.2269
  146MOL   C15146841   1.008   1.060   0.085 -0.4794 -0.7984 -0.1687
  146MOL   C15246842   0.874   1.211   7.789 -0.2589  0.3143 -0.0011
  146MOL   H15346843   1.222   1.472   7.592 -1.5017  1.3680  2.2175
  146MOL   H15446844   1.336   1.363   7.666  0.8327  1.0425 -1.1189
  146MOL   H15546845   1.038   1.324   7.617 -0.7699 -0.2346  0.5536
  146MOL   H15646846   0.940   0.984   0.046 -1.9823  2.2009 -3.7682
  146MOL   H15746847   1.108   1.025   0.111  0.4355  0.8685 -1.3648
  146MOL   H15846848   0.955   1.096   0.173  1.0261  1.5511 -0.1867
  146MOL   H15946849   0.834   1.134   7.722 -0.8403 -0.4760  1.2477
  146MOL   H16046850   0.860   1.309   7.744  0.5058 -1.1551 -3.6260
  146MOL   H16146851   0.813   1.206   0.025 -0.3651  0.3374 -0.0716
  146MOL   C16246852   1.192   1.215   7.516  0.1039  0.0201  0.5122
  146MOL   C16346853   1.112   1.101   7.447  0.1988 -0.3921 -0.5243
  146MOL   C16446854   0.969   1.143   7.405 -0.3190  0.8288  0.0677
  146MOL   O16546855   0.880   1.114   7.482 -0.0272 -0.2170  0.4731
  146MOL   N16646856   0.940   1.193   7.284 -0.7506  0.1790  0.8587
  146MOL   C16746857   0.805   1.211   7.233 -0.1133  0.0894  0.7471
  146MOL   C16846858   1.045   1.236   7.184 -0.0877  0.2206  0.1300
  146MOL   H16946859   1.215   1.294   7.443  1.4472  1.9135  2.9187
  146MOL   H17046860   1.292   1.178   7.538  0.3955 -0.0364 -0.8310
  146MOL   H17146861   1.168   1.070   7.358  0.1560 -0.2830 -0.5884
  146MOL   H17246862   0.804   1.218   7.124 -2.4073  0.6670  0.7866
  146MOL   H17346863   0.751   1.120   7.259  2.0835 -1.6052 -0.4489
  146MOL   H17446864   0.739   1.279   7.287  0.2764  1.3552 -0.3249
  146MOL   H17546865   1.096   1.318   7.234  0.1123  0.0151  0.2672
  146MOL   H17646866   1.004   1.268   7.089  0.4434 -1.4145 -0.6781
  146MOL   H17746867   1.121   1.158   7.169  0.3352  0.5523  0.5257
  146MOL   C17846868   1.106   0.964   7.523  0.2873 -0.1364  0.8782
  146MOL   C17946869   1.224   0.859   7.516  0.2605 -0.8334 -0.4079
  146MOL   C18046870   1.350   0.908   7.580 -0.8285  0.0195  0.2318
  146MOL   O18146871   1.437   0.953   7.501 -0.1451 -0.4127 -0.4049
  146MOL   N18246872   1.367   0.897   7.711 -0.0853 -0.2256  0.0334
  146MOL   C18346873   1.483   0.960   7.772 -0.3024  0.3619  0.1384
  146MOL   C18446874   1.284   0.826   7.804  0.5187 -0.1431  0.6080
  146MOL   H18546875   1.088   0.976   7.630 -2.0624 -0.8341  0.5736
  146MOL   H18646876   1.016   0.907   7.505  0.2185 -0.1275  1.1826
  146MOL   H18746877   1.184   0.779   7.577 -4.5187 -0.0691 -2.3588
  146MOL   H18846878   1.565   0.892   7.796  0.4641  1.4165  0.6157
  146MOL   H18946879   1.518   1.039   7.705 -1.7056  1.5416  0.7737
  146MOL   H19046880   1.460   1.014   0.011 -0.4703 -0.4977  0.5976
  146MOL   H19146881   1.332   0.811   0.047  0.4659  1.4020  0.8849
  146MOL   H19246882   1.263   0.734   7.750 -0.6313  1.1914 -1.2838
  146MOL   H19346883   1.192   0.882   7.824  0.8129 -0.4396  2.9500
  146MOL   C19446884   1.239   0.785   7.379  0.4864 -0.0745  0.0013
  146MOL   C19546885   1.344   0.668   7.377  0.2794 -0.0942  0.5194
  146MOL   C19646886   1.382   0.638   7.237 -0.2372  0.0627  0.0662
  146MOL   O19746887   1.292   0.622   7.156  0.5716 -0.0950  0.4727
  146MOL   N19846888   1.512   0.629   7.191  0.1679  0.3308 -0.3296
  146MOL   C19946889   1.537   0.564   7.062 -0.0741  0.4018  0.1381
  146MOL   C20046890   1.630   0.643   7.282 -0.0622  0.6315  0.0162
  146MOL   H20146891   1.139   0.753   7.348 -0.5093  3.1310 -0.3420
  146MOL   H20246892   1.260   0.870   7.315  0.0609 -1.4870 -2.0586
  146MOL   H20346893   1.424   0.693   7.447  1.4382  0.2227 -0.8900
  146MOL   H20446894   1.491   0.628   6.987 -0.8088  1.5049  1.5088
  146MOL   H20546895   1.643   0.561   7.037  0.6100  5.4625  1.8297
  146MOL   H20646896   1.492   0.466   7.050 -1.6433  1.0432  0.6391
  146MOL   H20746897   1.623   0.737   7.337 -0.0126  0.2213  0.7326
  146MOL   H20846898   1.723   0.652   7.226  0.2265 -1.2986  0.1502
  146MOL   H20946899   1.638   0.573   7.366 -1.5883  1.3027  0.7325
  146MOL   C21046900   1.280   0.535   7.445  0.2557 -0.3991 -0.0221
  146MOL   C21146901   1.384   0.440   7.514 -0.2494 -0.0943 -0.5461
  146MOL   C21246902   1.343   0.298   7.496 -0.4370 -0.4354  0.0762
  146MOL   O21346903   1.237   0.263   7.550 -0.0393 -0.1841 -0.1743
  146MOL   N21446904   1.427   0.211   7.434 -0.2128 -0.2109 -0.7108
  146MOL   C21546905   1.522   0.245   7.331 -0.7004 -0.4209  1.3260
  146MOL   C21646906   1.401   0.068   7.450 -0.2583  1.0909 -0.1587
  146MOL   H21746907   1.201   0.556   7.517 -1.2413 -0.3853 -1.6403
  146MOL   H21846908   1.234   0.476   7.365  0.0554 -0.3096  0.0276
  146MOL   H21946909   1.471   0.465   7.454  0.2157 -0.3846  0.0120
  146MOL   H22046910   1.552   0.155   7.277  1.2030 -0.5471  2.5416
  146MOL   H22146911   1.494   0.319   7.257  1.9796  0.0983  0.7897
  146MOL   H22246912   1.613   0.280   7.379 -1.4247  3.0025  0.3563
  146MOL   H22346913   1.318   0.044   7.383  0.1363 -0.1562 -0.2115
  146MOL   H22446914   1.378   0.031   7.550  1.1390  0.7293  0.0266
  146MOL   H22546915   1.483   0.014   7.405 -0.4559  2.1396 -1.8329
  146MOL   C22646916   1.403   0.487   7.660  0.5446 -0.1488 -0.1342
  146MOL   C22746917   1.473   0.394   7.760 -0.4575  0.1541 -1.2402
  146MOL   C22846918   1.430   0.433   0.051 -0.1683 -0.1914 -0.2591
  146MOL   O22946919   1.486   0.523   0.110  0.1643  0.4980  0.1803
  146MOL   N23046920   1.337   0.360   0.115 -0.2867  0.3631  0.1725
  146MOL   C23146921   1.252   0.264   0.053  0.0960  0.4072 -0.7218
  146MOL   C23246922   1.328   0.351   0.262 -0.2323 -0.4066 -0.1221
  146MOL   H23346923   1.455   0.582   7.658 -2.0469  1.3713  1.3137
  146MOL   H23446924   1.302   0.498   7.700  0.9075 -2.9809  1.7554
  146MOL   H23546925   1.443   0.292   7.737 -0.8991  0.2205 -0.9716
  146MOL   H23646926   1.311   0.177   0.026  0.7185  0.0382  1.7114
  146MOL   H23746927   1.172   0.239   0.124  0.5074  0.3912 -0.2637
  146MOL   H23846928   1.209   0.305   7.815 -1.8435  1.5379  0.6417
  146MOL   H23946929   1.420   0.383   0.310  0.8341 -2.3017 -0.8403
  146MOL   H24046930   1.326   0.244   0.283  0.5458  0.0748  2.5419
  146MOL   H24146931   1.242   0.395   0.313 -0.1708 -0.1082 -0.2710
  146MOL   C24246932   1.631   0.402   7.746 -0.0805  0.4700  0.4407
  146MOL   C24346933   1.724   0.288   7.790  0.4632  0.1640  0.9688
  146MOL   C24446934   1.663   0.143   7.755 -0.0358  0.3432  0.3158
  146MOL   O24546935   1.559   0.108   7.810 -0.0846  1.0146  0.3745
  146MOL   N24646936   1.724   0.049   7.677 -0.4495 -0.4797 -0.9200
  146MOL   C24746937   1.679   7.760   7.668  0.4775 -0.7514  0.2411
  146MOL   C24846938   1.836   0.078   7.593  0.3527 -0.1534  0.1592
  146MOL   H24946939   1.637   0.409   7.637 -0.1950  0.9471  0.4615
  146MOL   H25046940   1.663   0.496   7.790 -1.3144  0.4182  1.4831
  146MOL   H25146941   1.813   0.298   7.728  0.4909  0.0659  0.9928
  146MOL   H25246942   1.639   7.723   7.762 -1.1469  0.9651  0.2443
  146MOL   H25346943   1.601   7.745   7.594 -0.3986 -0.8155  1.1731
  146MOL   H25446944   1.765   7.695   7.649 -1.4202 -4.7380  4.4636
  146MOL   H25546945   1.847   0.181   7.560 -1.6408 -0.1460 -0.5250
  146MOL   H25646946   1.835   0.021   7.500 -0.5621  1.2446 -0.6950
  146MOL   H25746947   1.924   0.065   7.656  0.2794  1.9772  0.7445
  146MOL   C25846948   1.758   0.294   0.090  0.5270  0.9420  0.3979
  146MOL   C25946949   1.892   0.228   0.133  0.4085  0.3519  0.4308
  146MOL   C26046950   2.018   0.277   0.062 -0.3872  0.7001 -0.5084
  146MOL   O26146951   2.056   0.221   7.813 -0.5673 -0.3103  0.0233
  146MOL   N26246952   2.096   0.377   0.110  0.6594 -0.5993  0.2963
  146MOL   C26346953   2.060   0.448   0.232  0.6959 -0.8292  0.3701
  146MOL   C26446954   2.222   0.420   0.046  0.0116 -0.2836 -0.0905
  146MOL   H26546955   1.760   0.399   0.121  0.7593  1.4498 -1.2675
  146MOL   H26646956   1.672   0.269   0.151 -0.2141  2.5261  0.0320
  146MOL   H26746957   1.901   0.253   0.239 -0.3251  1.6667  0.1835
  146MOL   H26846958   2.095   0.392   0.319 -0.4492 -0.2025  1.2602
  146MOL   H26946959   2.108   0.546   0.230  1.1875 -1.0006  2.3025
  146MOL   H27046960   1.954   0.466   0.246  0.6187  1.2678 -2.5220
  146MOL   H27146961   2.278   0.337   0.003  0.6372  0.4462 -0.7124
  146MOL   H27246962   2.288   0.481   0.106  0.8870 -0.2715 -1.0520
  146MOL   H27346963   2.193   0.485   7.817  1.7916 -2.1456 -2.2570
  146MOL   C27446964   1.889   0.072   0.138  0.6104 -0.2430  0.0775
  146MOL   C27546965   2.011   7.848   0.190 -0.0611  1.3639 -0.1230
  146MOL   C27646966   2.025   7.722   0.101  0.1406 -0.1372  0.4808
  146MOL   O27746967   1.929   7.648   0.090  0.0583  0.0761 -0.2324
  146MOL   N27846968   2.144   7.693   0.050  0.2162  0.2645  0.1698
  146MOL   C27946969   2.239   7.791   7.848  0.7629  0.0563  0.5408
  146MOL   C28046970   2.169   7.552   0.006  0.5515  0.5923  0.3750
  146MOL   H28146971   1.794   0.053   0.190 -0.0190  0.4239 -0.8163
  146MOL   H28246972   1.868   0.047   0.034  0.9741  2.2169 -0.6023
  146MOL   H28346973   2.103   0.051   0.178  0.7449  0.8215  3.1692
  146MOL   H28446974   2.284   7.849   0.075 -0.1260 -0.3102  1.3134
  146MOL   H28546975   2.313   7.734   7.791 -1.4600 -0.3324 -2.0745
  146MOL   H28646976   2.190   0.001   7.774 -0.5277 -0.6284  0.7888
  146MOL   H28746977   2.100   7.476   0.044  1.4257  0.7509  2.3432
  146MOL   H28846978   2.268   7.527   0.044 -0.4667  0.0729  2.7734
  146MOL   H28946979   2.173   7.533   7.752  1.0904 -1.6864  0.7801
  146MOL   C29046980   2.004   7.819   0.342 -0.2845  0.6507 -0.7693
  146MOL   C29146981   2.140   7.769   0.405 -0.2277  0.0132  0.5437
  146MOL   C29246982   2.136   7.683   0.539 -0.9805  0.1695  0.3925
  146MOL   O29346983   2.121   7.748   0.647 -0.1828 -0.3895 -0.5198
  146MOL   N29446984   2.151   7.547   0.533 -0.3356 -0.2400  0.3213
  146MOL   C29546985   2.182   7.479   0.412 -0.1404 -0.4367 -0.5481
  146MOL   C29646986   2.131   7.467   0.650 -1.2846 -0.5069  0.3128
  146MOL   H29746987   1.982   0.059   0.394 -1.5765  0.4662 -0.9828
  146MOL   H29846988   1.928   7.744   0.363  0.5548 -0.4458 -1.5477
  146MOL   H29946989   2.187   7.716   0.322 -1.1763 -0.0952  0.0649
  146MOL   H30046990   2.261   7.532   0.360 -0.8505 -0.3918 -1.6028
  146MOL   H30146991   2.211   7.376   0.433 -0.2718 -0.2388  0.6541
  146MOL   H30246992   2.099   7.476   0.341  0.9354  1.5289 -1.9080
  146MOL   H30346993   2.229   7.424   0.673 -0.6017  0.5192 -0.6596
  146MOL   H30446994   2.059   7.390   0.622  0.1334 -2.1442  1.0395
  146MOL   H30546995   2.097   7.519   0.740 -1.9103 -0.1133 -0.1517
  146MOL   C30646996   2.242   0.033   0.416 -0.3903 -0.7023  0.0322
  146MOL   C30746997   2.382   0.002   0.473  0.1320  0.2977 -0.0475
  146MOL   C30846998   2.487   7.783   0.389 -0.2041 -0.2432  0.4858
  146MOL   O30946999   2.454   7.723   0.284 -0.4160  0.3181 -0.0013
  146MOL   N31047000   2.618   7.791   0.421  0.5794 -0.2554  0.4114
  146MOL   C31147001   2.675   7.843   0.548  0.3597  0.0655 -0.7001
  146MOL   C31247002   2.723   7.740   0.332  0.0532  0.5704  0.5464
  146MOL   H31347003   2.248   0.088   0.322 -2.3349 -0.1961  0.1881
  146MOL   H31447004   2.194   0.105   0.482 -0.6280 -1.8658  1.1528
  146MOL   H31547005   2.426   0.101   0.489  0.3499  0.1200  0.4693
  146MOL   H31647006   2.732   7.768   0.602  3.0965  1.4149 -1.5958
  146MOL   H31747007   2.747   0.070   0.528  0.4585 -0.2418 -1.6437
  146MOL   H31847008   2.600   0.024   0.618 -0.1530  0.0314 -1.2241
  146MOL   H31947009   2.816   7.744   0.389 -0.4761 -1.3783  1.5726
  146MOL   H32047010   2.747   7.798   0.242  0.7959 -1.8720 -0.8822
  146MOL   H32147011   2.718   7.634   0.305  2.9372  0.4187  0.4057
  146MOL   H32247012   2.381   7.804   0.569  0.1135  0.1727 -0.1138
  147MOL     C147013   7.784   7.821   4.258  0.4744 -0.2208  0.3135
  147MOL     C247014   7.721   0.084   4.176 -0.0546 -0.0084 -0.0471
  147MOL     C347015   7.565   0.075   4.183  0.2484  1.0433  0.6534
  147MOL     O447016   7.511   0.028   4.085 -0.3284  0.0946  0.0857
  147MOL     N547017   7.503   0.116   4.293  0.1110  0.4051  0.0360
  147MOL     C647018   7.364   0.139   4.307  0.6071 -0.6089 -0.4517
  147MOL     C747019   7.571   0.151   4.421 -0.0100  0.0507 -0.2985
  147MOL     H847020   7.775   7.722   4.212 -1.3674  0.3681 -0.6419
  147MOL     H947021   7.742   7.814   4.358  0.0942  0.6500  0.2116
  147MOL    H1047022   7.752   0.184   4.206  1.7517 -0.8247  0.8633
  147MOL    H1147023   7.323   0.084   4.391  0.8182 -1.3554 -0.8294
  147MOL    H1247024   7.336   0.244   4.316  2.0682 -0.2935  0.4612
  147MOL    H1347025   7.311   0.104   4.217 -0.8865  1.1903 -0.3002
  147MOL    H1447026   7.611   0.062   4.471  2.0309  0.5069 -1.0782
  147MOL    H1547027   7.500   0.204   4.485  1.3486  0.9006  0.5203
  147MOL    H1647028   7.658   0.210   4.394  0.7152 -0.2425  1.3621
  147MOL    H1747029   0.038   7.832   4.269  0.5047  0.1090 -0.2703
  147MOL    C1847030   7.783   0.073   4.029 -1.0390 -0.1429 -0.1415
  147MOL    C1947031   7.763   0.189   3.931  0.6961 -0.6275  0.0885
  147MOL    C2047032   7.785   0.129   3.786  0.1870  0.0279  0.0243
  147MOL    O2147033   0.045   0.116   3.760 -0.1124  0.2914  0.2605
  147MOL    N2247034   7.679   0.097   3.707  0.3320 -0.0491 -0.5440
  147MOL    C2347035   7.696   0.037   3.578  0.2581  0.3181 -0.5784
  147MOL    C2447036   7.547   0.147   3.728  0.7038  0.1584  0.5321
  147MOL    H2547037   0.039   0.069   4.038 -0.5798  4.6693 -2.0259
  147MOL    H2647038   7.757   7.829   3.990  2.1793 -1.4589  0.7667
  147MOL    H2747039   7.657   0.209   3.947  0.6820  0.3989 -1.2424
  147MOL    H2847040   7.681   0.122   3.512  0.1127  1.5308  0.9850
  147MOL    H2947041   7.792   7.842   3.562 -0.3661 -1.4807  0.8972
  147MOL    H3047042   7.608   7.827   3.566 -1.3096  2.2215  0.5364
  147MOL    H3147043   7.499   0.108   3.818 -4.1596 -0.8228 -2.3007
  147MOL    H3247044   7.474   0.122   3.650 -0.0287 -2.0855  1.8847
  147MOL    H3347045   7.549   0.255   3.737  1.1617  0.3823 -1.8105
  147MOL    C3447046   7.842   0.311   3.959  0.6825  0.0192  0.0475
  147MOL    C3547047   7.810   0.428   3.867 -0.5529  0.1849 -0.4402
  147MOL    C3647048   0.082   0.466   3.786 -0.5793  0.3149 -0.5614
  147MOL    O3747049   0.191   0.489   3.847 -0.2995 -0.1376 -0.1387
  147MOL    N3847050   0.081   0.473   3.648 -1.0281  0.2570  0.0950
  147MOL    C3947051   7.814   0.451   3.572  0.1919  0.1454  0.9073
  147MOL    C4047052   0.202   0.521   3.578  0.1013 -0.0125 -1.3517
  147MOL    H4147053   7.821   0.335   4.064  1.3414 -2.7174  0.8344
  147MOL    H4247054   0.093   0.280   3.954  1.3640  2.2325 -0.2730
  147MOL    H4347055   7.732   0.389   3.802 -1.3288  1.4493 -0.2935
  147MOL    H4447056   7.817   0.439   3.464 -0.3996  1.4425  0.7351
  147MOL    H4547057   7.767   0.357   3.602 -1.5900  0.9786  0.8379
  147MOL    H4647058   7.728   0.515   3.595 -1.7370 -1.9822 -0.0779
  147MOL    H4747059   0.281   0.558   3.644  1.8908 -3.1653 -1.6273
  147MOL    H4847060   0.190   0.598   3.502  0.8326  0.8214 -0.6255
  147MOL    H4947061   0.246   0.430   3.536 -0.6378 -1.5796  1.1322
  147MOL    C5047062   7.752   0.555   3.939 -0.2233  0.4162  0.0581
  147MOL    C5147063   7.612   0.535   3.998  0.1401  0.0112 -0.8011
  147MOL    C5247064   7.506   0.502   3.889 -0.8339  0.3594  0.1972
  147MOL    O5347065   7.529   0.535   3.770  0.0126  0.3057  0.1680
  147MOL    N5447066   7.391   0.432   3.918  0.1812  0.1546  0.2161
  147MOL    C5547067   7.279   0.423   3.825 -1.1913  0.6250  0.4745
  147MOL    C5647068   7.365   0.359   4.049  0.1284  0.7514  0.8367
  147MOL    H5747069   7.808   0.609   4.015  1.0049  1.2451 -1.3897
  147MOL    H5847070   7.754   0.637   3.867  1.5376 -1.2455 -1.8545
  147MOL    H5947071   7.626   0.445   4.058 -1.6549  0.1999 -0.0498
  147MOL    H6047072   7.176   0.414   3.861 -1.1648 -0.2991  0.3376
  147MOL    H6147073   7.270   0.504   3.753  0.3500 -0.2108 -0.6728
  147MOL    H6247074   7.284   0.335   3.761 -2.2256  0.5432  0.4985
  147MOL    H6347075   7.363   0.253   4.024  2.6565  0.6399  1.0232
  147MOL    H6447076   7.268   0.401   4.077 -0.5869  1.2115 -2.2328
  147MOL    H6547077   7.436   0.384   4.128  2.4232  0.7972 -1.1870
  147MOL    C6647078   7.542   0.648   4.086  0.1149  0.1364  0.6720
  147MOL    C6747079   7.620   0.688   4.217 -0.8583  0.7818  0.2211
  147MOL    C6847080   7.685   0.569   4.293 -0.2419 -0.0591 -0.1293
  147MOL    O6947081   7.611   0.475   4.315  0.6454  0.2590  0.4786
  147MOL    N7047082   7.815   0.571   4.328 -0.2050  0.7445 -0.5089
  147MOL    C7147083   0.021   0.463   4.414  0.5527 -0.3156 -0.2988
  147MOL    C7247084   0.052   0.680   4.301 -0.5524 -0.1677 -0.4668
  147MOL    H7347085   7.520   0.736   4.026 -2.0611 -0.3592  0.6668
  147MOL    H7447086   7.441   0.614   4.111 -0.5340  1.5609  0.0144
  147MOL    H7547087   7.698   0.754   4.180 -1.1044  1.9454  1.7107
  147MOL    H7647088   7.828   0.463   4.513  0.4322  0.6736 -0.3423
  147MOL    H7747089   7.849   0.367   4.369 -3.2523 -0.3050  1.5558
  147MOL    H7847090   0.128   0.466   4.432  0.4657 -1.5276  0.4831
  147MOL    H7947091   0.026   0.768   4.359  0.0835 -0.2193 -0.0975
  147MOL    H8047092   0.045   0.708   4.196  1.1749  4.1176  0.4758
  147MOL    H8147093   0.156   0.655   4.320 -0.8569 -0.5799  0.7542
  147MOL    C8247094   7.524   0.765   4.308  0.2272  0.0706 -0.3806
  147MOL    C8347095   7.461   0.905   4.273  0.3235 -0.3466  0.4899
  147MOL    C8447096   7.572   1.008   4.252  0.0492 -0.3306 -0.1004
  147MOL    O8547097   7.662   1.018   4.341  0.1062  0.8869 -0.5604
  147MOL    N8647098   7.564   1.092   4.143 -0.2202  0.4688  0.3092
  147MOL    C8747099   7.461   1.093   4.037 -0.1584  0.0070  0.4556
  147MOL    C8847100   7.659   1.200   4.137  0.0582  0.1831 -0.4553
  147MOL    H8947101   7.451   0.696   4.349  0.3088 -0.6541 -1.4249
  147MOL    H9047102   7.578   0.783   4.401  1.3653  0.7078 -1.1593
  147MOL    H9147103   7.403   0.897   4.181 -0.8601  1.2375  1.0956
  147MOL    H9247104   7.363   1.115   4.079  0.1613 -0.9663  1.7378
  147MOL    H9347105   7.465   1.176   3.966 -0.8609 -0.5643 -0.2559
  147MOL    H9447106   7.447   0.995   3.991  0.7943  0.1160 -0.0830
  147MOL    H9547107   7.655   1.258   4.045 -0.9686  0.4003 -0.2850
  147MOL    H9647108   7.761   1.165   4.153  0.3363  0.2756 -1.9321
  147MOL    H9747109   7.633   1.265   4.221  3.2571 -0.4342  1.0880
  147MOL    C9847110   7.365   0.952   4.386 -0.3525  0.2572 -0.5062
  147MOL    C9947111   7.243   0.870   4.397 -0.3718 -0.3307 -0.0935
  147MOL   C10047112   7.151   0.913   4.285  0.2892 -0.2805  0.1487
  147MOL   O10147113   7.125   1.034   4.278  0.1955 -0.2088 -0.0271
  147MOL   N10247114   7.101   0.835   4.186  0.5943  0.1475 -0.9205
  147MOL   C10347115   7.160   0.708   4.145  0.2356  0.4834 -0.5455
  147MOL   C10447116   6.980   0.875   4.108 -0.3260 -0.1918  0.1813
  147MOL   H10547117   7.426   0.962   4.476  1.2698 -0.8293 -1.4608
  147MOL   H10647118   7.341   1.058   4.373 -0.1101  0.4723  0.6938
  147MOL   H10747119   7.274   0.767   4.378  0.7408 -0.3553  1.7050
  147MOL   H10847120   7.125   0.632   4.214  1.3167  0.1695 -0.3389
  147MOL   H10947121   7.131   0.681   4.043  1.4615 -1.1715 -0.4722
  147MOL   H11047122   7.269   0.713   4.146  0.2729 -0.3616  0.8889
  147MOL   H11147123   6.913   0.951   4.149 -1.5874 -0.6119 -1.0638
  147MOL   H11247124   6.919   0.790   4.080  2.1464 -1.8157 -0.4674
  147MOL   H11347125   7.015   0.931   4.021  0.6333 -1.4706 -0.2715
  147MOL   C11447126   7.185   0.872   4.540 -0.2434 -0.6477 -1.1739
  147MOL   C11547127   7.263   0.793   4.647  0.2172  0.3045  0.5972
  147MOL   C11647128   7.246   0.648   4.631 -0.4202  0.2034  0.0307
  147MOL   O11747129   7.142   0.601   4.581 -0.8956  0.2032 -0.1296
  147MOL   N11847130   7.343   0.565   4.659  0.2181 -0.1503  0.0813
  147MOL   C11947131   7.344   0.427   4.610 -0.4079  0.3519 -0.4867
  147MOL   C12047132   7.440   0.603   4.761 -0.0765  0.0341  0.6382
  147MOL   H12147133   7.181   0.975   4.575  1.2551 -0.9830  0.0730
  147MOL   H12247134   7.083   0.837   4.533 -0.8159  0.3158  1.7110
  147MOL   H12347135   7.366   0.820   4.623 -0.4004  1.2238 -1.1153
  147MOL   H12447136   7.446   0.388   4.619 -0.9748 -1.6859 -2.3800
  147MOL   H12547137   7.274   0.371   4.671 -1.5495  1.1412 -1.0502
  147MOL   H12647138   7.320   0.418   4.504  0.0062  0.5984 -0.6036
  147MOL   H12747139   7.380   0.616   4.852 -1.1646 -1.0551  0.0948
  147MOL   H12847140   7.499   0.691   4.736 -0.3143  0.3077  1.0350
  147MOL   H12947141   7.512   0.523   4.776 -0.6240 -0.4727  0.6078
  147MOL   C13047142   7.216   0.839   4.792 -0.1192 -0.1880 -0.2477
  147MOL   C13147143   7.262   0.980   4.833  0.0307  0.2273 -0.0121
  147MOL   C13247144   7.416   0.970   4.857 -0.3294  0.4920 -0.4777
  147MOL   O13347145   7.450   0.889   4.949 -0.0797  0.0046  0.1603
  147MOL   N13447146   7.499   1.046   4.781 -0.0310  0.0547  0.2150
  147MOL   C13547147   7.465   1.167   4.718  0.9639 -0.3625 -0.0006
  147MOL   C13647148   7.638   1.007   4.791  0.1338 -0.1968 -0.3637
  147MOL   H13747149   7.107   0.846   4.784 -0.1116  0.5178  0.2395
  147MOL   H13847150   7.227   0.771   4.876 -1.3883 -0.8124 -0.5732
  147MOL   H13947151   7.235   1.049   4.753  0.8108  1.2348  0.5743
  147MOL   H14047152   7.434   1.237   4.796  0.4834  0.9545 -1.3505
  147MOL   H14147153   7.557   1.205   4.673  2.2920 -0.7234  2.3369
  147MOL   H14247154   7.373   1.167   4.661 -0.5374  1.4653  2.3191
  147MOL   H14347155   7.670   0.933   4.864 -0.2881  0.6207  0.6731
  147MOL   H14447156   7.705   1.092   4.799 -0.8690  0.3643  2.6983
  147MOL   H14547157   7.661   0.973   4.690  0.3016  0.6665 -0.6197
  147MOL   C14647158   7.194   1.032   4.962  0.4757  0.4779  0.1269
  147MOL   C14747159   7.202   1.185   4.998 -0.0441  0.1174  0.0069
  147MOL   C14847160   7.159   1.192   5.144 -1.3688  0.4970  0.4995
  147MOL   O14947161   7.043   1.163   5.177  0.7510 -0.2288 -0.0478
  147MOL   N15047162   7.249   1.235   5.243 -0.1319 -0.0300  0.0353
  147MOL   C15147163   7.386   1.267   5.221 -0.5116  0.3535  0.8558
  147MOL   C15247164   7.199   1.261   5.383  0.0528  0.7119  0.2261
  147MOL   H15347165   7.088   1.009   4.950  0.8379 -1.3016  0.0669
  147MOL   H15447166   7.224   0.963   5.042 -0.1604 -0.8715 -0.7726
  147MOL   H15547167   7.307   1.214   4.994 -0.0269  0.1900  0.9145
  147MOL   H15647168   7.400   1.358   5.163  1.7594 -0.1673  0.5322
  147MOL   H15747169   7.449   1.272   5.309  0.4016  2.2481  0.1177
  147MOL   H15847170   7.451   1.199   5.165  0.6405  1.3869  0.9326
  147MOL   H15947171   7.112   1.197   5.403  1.3586 -0.7394  1.3984
  147MOL   H16047172   7.172   1.366   5.384 -1.1148  0.4354 -0.9787
  147MOL   H16147173   7.280   1.256   5.456  0.7764 -1.8019 -0.6980
  147MOL   C16247174   7.123   1.272   4.909  0.3910 -0.5692  0.2447
  147MOL   C16347175   7.153   1.432   4.930  0.8055  0.1110 -0.3534
  147MOL   C16447176   7.019   1.503   4.953 -0.0120 -0.1178 -0.9646
  147MOL   O16547177   6.932   1.504   4.865  0.6233 -0.0726  0.4976
  147MOL   N16647178   6.994   1.581   5.059 -0.2601 -0.1606 -0.3074
  147MOL   C16747179   7.079   1.581   5.177  0.2840 -0.0056 -0.0029
  147MOL   C16847180   6.884   1.679   5.068 -0.2186  0.1613  0.1091
  147MOL   H16947181   7.141   1.254   4.803 -2.6721 -0.8652 -0.2863
  147MOL   H17047182   7.016   1.252   4.914 -0.2155  1.5261 -2.9898
  147MOL   H17147183   7.212   1.444   5.021  1.3195 -1.9489 -0.3763
  147MOL   H17247184   7.030   1.625   5.263 -0.0047 -2.1380  0.9757
  147MOL   H17347185   7.106   1.478   5.202  4.1539  0.5731 -1.4625
  147MOL   H17447186   7.168   1.641   5.157  0.2545 -0.5969 -1.9872
  147MOL   H17547187   6.885   1.727   5.166  1.8218 -1.5553  0.9653
  147MOL   H17647188   6.791   1.638   5.029 -0.2188 -2.4979  2.7237
  147MOL   H17747189   6.902   1.758   4.995  0.3019  0.0580  0.1237
  147MOL   C17847190   7.235   1.487   4.814  0.0057  0.6971 -0.3264
  147MOL   C17947191   7.257   1.638   4.820 -0.0155  0.5191  0.0898
  147MOL   C18047192   7.147   1.723   4.746  0.4092  0.0995 -0.3953
  147MOL   O18147193   7.113   1.690   4.635  0.2989 -0.2246  0.5852
  147MOL   N18247194   7.087   1.825   4.808 -0.1750  0.5276 -0.2920
  147MOL   C18347195   6.963   1.879   4.762 -0.2323  0.5514  0.7061
  147MOL   C18447196   7.151   1.893   4.915 -0.4605 -0.0966  0.1143
  147MOL   H18547197   7.324   1.424   4.806  0.0253  0.5385  1.0485
  147MOL   H18647198   7.184   1.463   4.720 -1.4361 -0.5251  0.7402
  147MOL   H18747199   7.270   1.670   4.923  0.7849  2.3639 -0.5649
  147MOL   H18847200   6.984   1.939   4.674 -0.3362  0.6740  0.7645
  147MOL   H18947201   6.909   1.791   4.728  1.2333 -0.6323  1.3715
  147MOL   H19047202   6.905   1.949   4.822 -1.0286  0.1634  0.3889
  147MOL   H19147203   7.092   1.981   4.938  0.6162  0.8855 -0.8387
  147MOL   H19247204   7.254   1.925   4.899 -0.7590  0.1047 -1.4799
  147MOL   H19347205   7.150   1.827   5.002  0.4407  0.5541  0.6248
  147MOL   C19447206   7.395   1.682   4.758  0.2045  0.0792  0.0068
  147MOL   C19547207   7.414   1.697   4.599  0.6532 -0.2312  0.1391
  147MOL   C19647208   7.419   1.553   4.540 -0.7378  0.2555 -0.7043
  147MOL   O19747209   7.508   1.478   4.585 -0.4886 -0.1374  0.0582
  147MOL   N19847210   7.350   1.519   4.429  0.6429 -0.2906  0.4372
  147MOL   C19947211   7.288   1.625   4.353  0.4951  0.5319  1.1045
  147MOL   C20047212   7.358   1.382   4.376 -0.1866 -0.2117  0.2424
  147MOL   H20147213   7.426   1.776   4.804 -0.0705 -1.2829  3.0652
  147MOL   H20247214   7.458   1.607   4.807 -1.3520 -0.3774  1.3515
  147MOL   H20347215   7.333   1.763   4.570  0.2221 -0.7529  0.1447
  147MOL   H20447216   7.216   1.689   4.404  1.3768  1.1479  1.5811
  147MOL   H20547217   7.364   1.701   4.333 -0.5563  0.9068 -1.6823
  147MOL   H20647218   7.251   1.573   4.264 -1.5366  1.5307  1.3149
  147MOL   H20747219   7.374   1.306   4.453 -0.9725 -0.3993  0.2278
  147MOL   H20847220   7.427   1.372   4.293 -1.1679  0.3981 -0.6739
  147MOL   H20947221   7.264   1.360   4.324  0.4835  0.7365 -1.4072
  147MOL   C21047222   7.532   1.778   4.553 -0.4952 -0.5474  0.6217
  147MOL   C21147223   7.564   1.916   4.627 -0.4648  0.2171  0.0157
  147MOL   C21247224   7.440   2.003   4.627  0.6362 -0.0402 -0.3023
  147MOL   O21347225   7.359   2.004   4.530 -0.2685 -0.2986  0.1534
  147MOL   N21447226   7.421   2.099   4.717 -0.0179 -0.0909 -0.0272
  147MOL   C21547227   7.518   2.121   4.820 -0.0512  0.5575 -0.1001
  147MOL   C21647228   7.313   2.190   4.707 -0.1356 -0.0235 -0.2932
  147MOL   H21747229   7.612   1.704   4.558 -1.9410 -2.2120 -0.4327
  147MOL   H21847230   7.516   1.807   4.450  0.0106 -1.3284  0.3166
  147MOL   H21947231   7.596   1.893   4.729 -1.8614 -1.4050  0.1233
  147MOL   H22047232   7.483   2.205   4.881  0.5072 -0.1215  1.1697
  147MOL   H22147233   7.541   2.038   4.887  1.1985  1.6196  0.8133
  147MOL   H22247234   7.611   2.155   4.773  0.0087 -0.7234 -0.9266
  147MOL   H22347235   7.216   2.140   4.703  0.1230 -0.4959 -0.8941
  147MOL   H22447236   7.337   2.249   4.619 -0.1829  0.9852  0.3667
  147MOL   H22547237   7.298   2.258   4.791 -0.9701 -2.1682  1.3270
  147MOL   C22647238   7.690   1.973   4.570 -0.0017  0.2891  0.3750
  147MOL   C22747239   7.815   1.895   4.612  0.0902 -0.4531 -0.5775
  147MOL   C22847240   0.008   1.928   4.760 -0.1099 -1.2999  0.9141
  147MOL   O22947241   0.041   2.047   4.779  0.3436 -0.5520  0.3619
  147MOL   N23047242   0.026   1.839   4.858 -0.0315 -0.2833  0.2094
  147MOL   C23147243   7.825   1.700   4.851  0.0235  0.8346 -0.5714
  147MOL   C23247244   0.064   1.879   4.992  0.8315 -0.1856 -0.4708
  147MOL   H23347245   7.678   1.975   4.461 -1.4315  2.3360  0.5307
  147MOL   H23447246   7.700   2.081   4.585  0.7390  0.2762  0.0035
  147MOL   H23547247   7.806   1.787   4.606 -2.6860 -0.1263 -2.9096
  147MOL   H23647248   7.751   1.682   4.774  0.6075 -2.1354 -0.5104
  147MOL   H23747249   0.051   1.625   4.845  0.6857  1.4132  0.6328
  147MOL   H23847250   7.759   1.682   4.936 -0.7157  2.7964 -0.6882
  147MOL   H23947251   7.829   1.921   5.041  0.7952 -1.1166  0.2760
  147MOL   H24047252   0.136   1.961   4.988 -1.3144  1.8955  1.4928
  147MOL   H24147253   0.101   1.799   5.056  0.1290  1.1051  1.5887
  147MOL   C24247254   0.079   1.930   4.516 -0.1249 -0.2227  0.0464
  147MOL   C24347255   0.080   1.852   4.386 -1.0083  0.5624 -0.6731
  147MOL   C24447256   0.114   1.698   4.396 -0.1719 -0.0115  0.6826
  147MOL   O24547257   0.210   1.667   4.471  0.0949 -0.4013  0.0529
  147MOL   N24647258   0.042   1.606   4.323 -0.9287 -0.1542 -0.5935
  147MOL   C24747259   0.105   1.472   4.317  0.3701  0.7231 -0.3824
  147MOL   C24847260   7.790   1.636   4.227 -0.0634  0.0453  0.0146
  147MOL   H24947261   0.076   2.038   4.504 -3.3291 -0.2351  0.4196
  147MOL   H25047262   0.174   1.909   4.566 -0.0127  0.7793  0.2559
  147MOL   H25147263   7.827   1.856   4.362 -0.7989  1.1187 -1.5524
  147MOL   H25247264   0.167   1.440   4.401  1.5219 -0.5395 -1.6827
  147MOL   H25347265   0.024   1.400   4.330  0.1063  1.2138  0.7862
  147MOL   H25447266   0.154   1.465   4.220 -0.8379 -1.2868 -0.8927
  147MOL   H25547267   7.735   1.543   4.215  0.8448 -0.3295 -1.2439
  147MOL   H25647268   7.830   1.669   4.131  1.8450 -2.4331 -0.1010
  147MOL   H25747269   7.712   1.707   4.256 -0.5880 -0.9404  1.0547
  147MOL   C25847270   0.172   1.926   4.281 -0.2525  0.0183  0.4738
  147MOL   C25947271   0.324   1.891   4.274 -0.5702 -0.5800 -0.1544
  147MOL   C26047272   0.404   2.025   4.267  0.3875 -0.3908  0.2395
  147MOL   O26147273   0.379   2.100   4.174 -0.1510 -0.7289 -0.4064
  147MOL   N26247274   0.489   2.065   4.368 -0.2146 -0.6561  0.6910
  147MOL   C26347275   0.499   1.987   4.486 -0.1001 -0.3312  1.0738
  147MOL   C26447276   0.576   2.179   4.361  0.6515 -0.9044 -0.4904
  147MOL   H26547277   0.133   1.903   4.182 -0.6423 -2.5859  1.1875
  147MOL   H26647278   0.165   2.034   4.293  1.2759  0.1555  0.1420
  147MOL   H26747279   0.346   1.842   4.368  1.9013  1.4044  0.3442
  147MOL   H26847280   0.505   1.880   4.465  1.4483  0.0258 -0.4122
  147MOL   H26947281   0.588   1.999   4.547  1.4708  1.8311 -1.5122
  147MOL   H27047282   0.417   1.998   4.557  1.0291  1.0992  2.1727
  147MOL   H27147283   0.519   2.260   4.315  1.1025 -1.7730 -2.6257
  147MOL   H27247284   0.664   2.153   4.303  1.8253 -1.4095  1.4968
  147MOL   H27347285   0.602   2.213   4.461  1.2508  0.7303 -1.1688
  147MOL   C27447286   0.352   1.791   4.164 -0.2189 -0.1936 -0.3063
  147MOL   C27547287   0.494   1.725   4.172  0.3429  0.2742 -0.6680
  147MOL   C27647288   0.529   1.673   4.032 -0.2181  0.2225 -0.0875
  147MOL   O27747289   0.504   1.557   4.001 -0.1570 -0.0303 -0.5920
  147MOL   N27847290   0.593   1.760   3.953 -0.2212 -0.0365  0.3344
  147MOL   C27947291   0.629   1.907   3.983 -0.1873 -0.1766 -0.6474
  147MOL   C28047292   0.621   1.731   3.815  0.3050 -0.2818  0.2024
  147MOL   H28147293   0.276   1.712   4.161  0.8394 -1.2558  0.4383
  147MOL   H28247294   0.337   1.844   4.070 -1.4916  0.7232  0.3890
  147MOL   H28347295   0.569   1.796   4.205  0.1598  0.8677 -1.5081
  147MOL   H28447296   0.549   1.958   4.037 -0.5130 -0.3546 -0.9562
  147MOL   H28547297   0.715   1.914   4.049 -2.0090  0.4585  1.7184
  147MOL   H28647298   0.643   1.962   3.890  0.8323 -1.3205 -1.1940
  147MOL   H28747299   0.537   1.756   3.750 -0.9043 -1.8235  1.1372
  147MOL   H28847300   0.638   1.625   3.798  1.2934 -0.2635  1.0162
  147MOL   H28947301   0.717   1.774   3.785  0.0549 -0.3857 -0.7435
  147MOL   C29047302   0.508   1.614   4.275  0.1303 -0.1076 -0.2493
  147MOL   C29147303   0.641   1.537   4.299 -0.0106 -0.5182 -0.4368
  147MOL   C29247304   0.620   1.412   4.384  0.2551  0.1579  0.2597
  147MOL   O29347305   0.590   1.433   4.503  1.3308 -0.8787  0.0332
  147MOL   N29447306   0.620   1.289   4.320  0.6681  0.0377  0.5450
  147MOL   C29547307   0.651   1.268   4.174 -0.6714 -0.2249  0.2259
  147MOL   C29647308   0.587   1.168   4.382 -0.0677  0.0166  0.0143
  147MOL   H29747309   0.474   1.642   4.375  2.1343  0.6874  0.2421
  147MOL   H29847310   0.442   1.536   4.238 -1.2427  0.7959  0.2526
  147MOL   H29947311   0.685   1.515   4.202 -0.5984 -1.9841 -0.3794
  147MOL   H30047312   0.740   1.325   4.147 -1.0317 -0.0352 -0.5636
  147MOL   H30147313   0.685   1.169   4.144 -0.1260  0.3444 -1.0531
  147MOL   H30247314   0.560   1.303   4.125 -0.8788 -1.4496 -0.2659
  147MOL   H30347315   0.669   1.101   4.408 -2.1845 -2.1193  1.4615
  147MOL   H30447316   0.526   1.103   4.320 -0.3182 -0.5769  0.8660
  147MOL   H30547317   0.531   1.183   4.475 -1.6562  0.2002 -0.9576
  147MOL   C30647318   0.751   1.631   4.353  0.2305  0.3745 -0.1402
  147MOL   C30747319   0.854   1.694   4.254 -0.6259  0.5617  0.2408
  147MOL   C30847320   0.968   1.596   4.234  0.3215 -0.0323  0.0833
  147MOL   O30947321   1.053   1.591   4.325  0.0989 -0.4669  0.3332
  147MOL   N31047322   0.969   1.519   4.122 -0.4031 -0.3964  0.2003
  147MOL   C31147323   0.888   1.522   4.005 -0.3042  0.3013  0.5704
  147MOL   C31247324   1.071   1.408   4.112 -0.8618 -0.3376 -0.2074
  147MOL   H31347325   0.711   1.724   4.394 -2.4159 -0.1524 -1.3751
  147MOL   H31447326   0.795   1.579   4.437 -2.3144  0.4816  1.3183
  147MOL   H31547327   0.816   1.730   4.159  0.1693  0.6556 -0.0428
  147MOL   H31647328   0.841   1.617   3.979 -1.0220 -0.0524  0.5547
  147MOL   H31747329   0.941   1.488   3.916 -0.2151  2.2712 -0.1707
  147MOL   H31847330   0.804   1.452   4.011 -0.5314  0.3693 -1.4787
  147MOL   H31947331   1.085   1.360   4.209 -0.3830 -2.6613 -1.3882
  147MOL   H32047332   1.163   1.452   4.075 -1.3227 -0.0974 -1.0777
  147MOL   H32147333   1.061   1.328   4.039 -2.3892  0.0423 -0.4460
  147MOL   H32247334   0.889   1.794   4.281  0.3436  0.6879 -1.4067
  148MOL     C147335   2.777   2.831   0.041 -0.9889  0.7484 -0.0615
  148MOL     C247336   2.892   2.794   7.799  0.1805  0.3871  0.1519
  148MOL     C347337   3.009   2.785   0.040 -0.2180 -0.5914  0.0497
  148MOL     O447338   3.033   2.885   0.104  0.4126  0.6879 -0.5080
  148MOL     N547339   3.078   2.668   0.049 -0.2678  0.0452 -0.0533
  148MOL     C647340   3.088   2.563   7.801 -0.2720  0.4723  0.5639
  148MOL     C747341   3.195   2.660   0.136 -0.3287 -0.6002 -0.1513
  148MOL     H847342   2.779   2.932   0.083 -1.4155  1.0745 -0.7998
  148MOL     H947343   2.770   2.755   0.118 -1.2763 -0.1534 -0.9667
  148MOL    H1047344   2.881   2.697   7.751 -0.6192  0.7619 -0.4338
  148MOL    H1147345   3.187   2.520   7.785  0.2570  1.9964 -0.3720
  148MOL    H1247346   3.010   2.489   7.821 -2.2978  2.6401  0.9389
  148MOL    H1347347   3.055   2.602   7.705 -0.4202  1.8100  1.1480
  148MOL    H1447348   3.169   2.647   0.241 -1.1990  0.8293 -0.1777
  148MOL    H1547349   3.264   2.745   0.134 -0.8403 -0.2102 -2.3932
  148MOL    H1647350   3.255   2.571   0.117  0.9490 -0.3558  2.5104
  148MOL    H1747351   2.681   2.810   7.848 -0.8060  0.5408 -0.3480
  148MOL    C1847352   2.917   2.902   7.695 -0.1882 -0.5290 -0.0159
  148MOL    C1947353   2.888   2.871   7.543  0.1065  0.4935  0.0138
  148MOL    C2047354   2.941   2.984   7.442 -0.3734 -0.1076  0.0327
  148MOL    O2147355   2.867   3.080   7.424 -0.1026 -0.1264  0.2742
  148MOL    N2247356   3.060   2.972   7.380 -0.6843 -0.1480 -0.9181
  148MOL    C2347357   3.092   3.076   7.281 -0.5380  0.0905 -0.1528
  148MOL    C2447358   3.151   2.869   7.397 -1.1675  0.8888  0.0028
  148MOL    H2547359   2.851   2.986   7.719  0.4303 -0.2169  0.6032
  148MOL    H2647360   3.019   2.941   7.701 -0.4978  0.3289 -0.1574
  148MOL    H2747361   2.932   2.775   7.518 -0.7984  0.0180  0.2222
  148MOL    H2847362   3.197   3.105   7.289 -0.3907 -0.9040  1.9479
  148MOL    H2947363   3.057   3.052   7.181 -0.3623  2.3846 -0.7879
  148MOL    H3047364   3.044   3.171   7.305 -0.0908  0.0484  0.9627
  148MOL    H3147365   3.169   2.844   7.502  0.9933 -0.0417 -0.5551
  148MOL    H3247366   3.245   2.873   7.341 -0.7750 -1.9239  0.3521
  148MOL    H3347367   3.105   2.775   7.365 -1.2389  0.5094  1.1648
  148MOL    C3447368   2.739   2.841   7.525  0.9582 -0.0931  0.2767
  148MOL    C3547369   2.697   2.789   7.381  0.1942 -0.8223  0.2044
  148MOL    C3647370   2.549   2.822   7.363  0.7450 -0.4426 -0.5500
  148MOL    O3747371   2.462   2.761   7.426  0.9616 -0.0004  0.0580
  148MOL    N3847372   2.504   2.919   7.280  0.2874  0.4682  0.7592
  148MOL    C3947373   2.585   3.034   7.233 -0.5127  0.4835 -0.7278
  148MOL    C4047374   2.377   2.920   7.216  0.7770  0.5898  0.6402
  148MOL    H4147375   2.694   2.786   7.607 -0.3106  0.4651 -0.0138
  148MOL    H4247376   2.694   2.941   7.526  1.1941  0.0328 -0.9358
  148MOL    H4347377   2.762   2.836   7.306 -1.0530  0.6034  0.0007
  148MOL    H4447378   2.658   3.051   7.312 -1.3846 -0.6369  0.3348
  148MOL    H4547379   2.641   3.019   7.140 -0.2698  2.0769 -0.8562
  148MOL    H4647380   2.526   3.126   7.228 -0.3043  0.7331  1.1960
  148MOL    H4747381   2.386   2.959   7.114  1.0148 -0.5283  0.2310
  148MOL    H4847382   2.303   2.983   7.266  0.0828 -0.6954  1.2703
  148MOL    H4947383   2.341   2.818   7.202  0.3011  0.9245 -0.6992
  148MOL    C5047384   2.732   2.642   7.358  0.2892 -0.7202 -0.3451
  148MOL    C5147385   2.663   2.571   7.230  0.3794  0.0693 -0.1811
  148MOL    C5247386   2.681   2.417   7.232  0.5613  0.1370  0.7194
  148MOL    O5347387   2.799   2.375   7.242  0.2063  0.2192  0.4428
  148MOL    N5447388   2.572   2.334   7.215  0.6415 -0.0552 -0.2737
  148MOL    C5547389   2.588   2.187   7.209  0.0277 -0.0699 -0.3480
  148MOL    C5647390   2.432   2.381   7.231 -0.7651 -0.1699  0.2778
  148MOL    H5747391   2.838   2.617   7.348  0.1756 -0.8342 -1.3118
  148MOL    H5847392   2.689   2.586   7.441  0.5255  1.6798  1.4502
  148MOL    H5947393   2.558   2.602   7.231  0.4554  0.3279  0.0024
  148MOL    H6047394   2.694   2.163   7.203  0.8561  3.1775  0.4030
  148MOL    H6147395   2.544   2.141   7.298 -0.6616  1.1320 -0.0563
  148MOL    H6247396   2.541   2.158   7.115 -0.2151 -0.4313 -0.1197
  148MOL    H6347397   2.396   2.434   7.142 -1.5166  0.6930  1.0921
  148MOL    H6447398   2.420   2.443   7.319 -2.1477 -0.3092  0.2004
  148MOL    H6547399   2.366   2.297   7.250 -0.6998 -0.3592 -0.3284
  148MOL    C6647400   2.720   2.628   7.101 -0.1857  0.3258  0.3437
  148MOL    C6747401   2.633   2.604   6.973  0.2594 -0.0985 -0.0023
  148MOL    C6847402   2.729   2.619   6.848  0.4681 -0.5937 -1.4674
  148MOL    O6947403   2.724   2.728   6.791  0.2885 -0.4086 -0.3094
  148MOL    N7047404   2.799   2.518   6.798 -0.9684  0.3788 -0.6789
  148MOL    C7147405   2.902   2.547   6.697 -0.0313  0.5471 -0.8932
  148MOL    C7247406   2.754   2.378   6.819  0.1589  0.1789 -0.0409
  148MOL    H7347407   2.747   2.734   7.108  0.5442  0.1301  0.5200
  148MOL    H7447408   2.817   2.584   7.074  0.1270  0.9229  0.4744
  148MOL    H7547409   2.596   2.502   6.983 -0.8113  0.3832  1.0968
  148MOL    H7647410   2.915   2.464   6.628  0.1984 -0.7332  0.6918
  148MOL    H7747411   2.886   2.638   6.638 -0.9289  0.3376 -0.9836
  148MOL    H7847412   2.997   2.561   6.747 -2.0350  3.0351  2.4606
  148MOL    H7947413   2.739   2.349   6.923 -0.5838 -0.5327 -0.3426
  148MOL    H8047414   2.837   2.314   6.791  0.8073  1.1941 -0.4609
  148MOL    H8147415   2.674   2.337   6.757 -0.1013  0.0878  0.3503
  148MOL    C8247416   2.506   2.706   6.973 -0.2858  0.7861  0.0890
  148MOL    C8347417   2.395   2.687   6.869 -0.0435 -0.2505  0.0705
  148MOL    C8447418   2.257   2.748   6.919  0.4177  0.3051 -0.4579
  148MOL    O8547419   2.188   2.691   6.998  0.2864 -0.1518 -0.1379
  148MOL    N8647420   2.221   2.871   6.880  0.0561  0.1024  0.3169
  148MOL    C8747421   2.100   2.938   6.940 -0.0380 -0.4821  0.9356
  148MOL    C8847422   2.291   2.958   6.786 -0.2728  0.6202  0.1557
  148MOL    H8947423   2.457   2.689   7.069  0.4385  0.6297  0.4331
  148MOL    H9047424   2.532   2.812   6.969  1.8997  0.3479  1.7101
  148MOL    H9147425   2.434   2.730   6.777 -1.8239 -0.4234 -0.7883
  148MOL    H9247426   2.024   2.860   6.943 -1.5573  0.7605 -2.5602
  148MOL    H9347427   2.112   2.976   7.042  3.2292  1.1683 -0.0067
  148MOL    H9447428   2.060   3.021   6.882  2.3585  0.2866  0.3409
  148MOL    H9547429   2.384   3.000   6.824  0.6271 -0.9050 -0.3035
  148MOL    H9647430   2.233   3.040   6.744 -0.3003  0.5251  0.0049
  148MOL    H9747431   2.325   2.901   6.700 -2.0048 -3.1230  1.8133
  148MOL    C9847432   2.369   2.532   6.840  0.3065  0.1996 -0.3204
  148MOL    C9947433   2.263   2.498   6.751  0.3246 -0.2311  0.7002
  148MOL   C10047434   2.267   2.342   6.733  0.9149 -0.3642 -0.6410
  148MOL   O10147435   2.362   2.302   6.663 -0.6073  0.2300  0.3033
  148MOL   N10247436   2.172   2.258   6.789  0.1185  0.4741 -0.1182
  148MOL   C10347437   2.068   2.305   6.877 -0.2750  0.4874 -0.3173
  148MOL   C10447438   2.174   2.112   6.791 -0.6106  0.2923  0.4870
  148MOL   H10547439   2.463   2.491   6.805 -0.5507  0.7236 -3.3575
  148MOL   H10647440   2.354   2.485   6.938 -0.2915  0.5975 -0.2197
  148MOL   H10747441   2.165   2.528   6.788 -0.5593 -1.2050 -0.7904
  148MOL   H10847442   1.992   2.230   6.898  1.0414 -0.7431  0.0703
  148MOL   H10947443   2.118   2.343   6.967 -0.4457  1.0281 -0.4432
  148MOL   H11047444   2.023   2.396   6.837  1.3771  1.9174  0.9862
  148MOL   H11147445   2.131   2.071   6.882 -0.4310  0.6378  0.7276
  148MOL   H11247446   2.275   2.075   6.772 -1.3839 -1.1468 -0.9838
  148MOL   H11347447   2.128   2.090   6.694 -1.2630 -2.5370  1.4223
  148MOL   C11447448   2.290   2.565   6.609  0.2003  0.5533  0.3851
  148MOL   C11547449   2.195   2.530   6.494  0.5245  0.4096  0.1592
  148MOL   C11647450   2.235   2.586   6.363 -0.6534 -0.8335  0.2274
  148MOL   O11747451   2.190   2.698   6.337 -0.0768 -0.6799  0.3750
  148MOL   N11847452   2.300   2.505   6.275 -0.4128  0.9685  0.4168
  148MOL   C11947453   2.351   2.369   6.295  0.1726  0.5024 -0.3424
  148MOL   C12047454   2.338   2.567   6.147 -0.1705  0.1419  0.0910
  148MOL   H12147455   2.277   2.673   6.623  0.3034  0.6375 -0.1815
  148MOL   H12247456   2.390   2.539   6.577 -0.3214 -1.5490  0.4037
  148MOL   H12347457   2.198   2.421   6.493  0.1578  0.4030 -0.9866
  148MOL   H12447458   2.445   2.370   6.350  1.3572 -1.7268 -2.2077
  148MOL   H12547459   2.288   2.297   6.348 -0.2175  1.9162  1.1463
  148MOL   H12647460   2.360   2.315   6.201 -2.2030 -1.1155  0.2974
  148MOL   H12747461   2.393   2.660   6.161  2.5440 -1.3548 -0.1133
  148MOL   H12847462   2.251   2.600   6.090  0.4907 -1.1554 -1.7458
  148MOL   H12947463   2.388   2.492   6.084 -2.3089  1.5896 -3.4929
  148MOL   C13047464   2.042   2.557   6.530  0.7936  0.0490 -0.4051
  148MOL   C13147465   1.941   2.507   6.420  0.5871  0.3537  0.3964
  148MOL   C13247466   1.803   2.588   6.438 -0.3495 -0.1459 -0.2492
  148MOL   O13347467   1.752   2.590   6.548 -0.5931 -0.2036  0.1148
  148MOL   N13447468   1.753   2.663   6.333  0.7400  0.0583 -0.4911
  148MOL   C13547469   1.800   2.670   6.197 -0.5708  0.4721  0.0976
  148MOL   C13647470   1.644   2.752   6.362  0.1183 -0.7901  0.4368
  148MOL   H13747471   2.024   2.512   6.627 -0.0655 -2.1940 -1.5781
  148MOL   H13847472   2.025   2.663   6.552  0.2772 -0.5705  2.3574
  148MOL   H13947473   1.982   2.527   6.322 -1.1278  2.2943  0.0245
  148MOL   H14047474   1.907   2.652   6.189 -1.0939 -2.9671  0.0065
  148MOL   H14147475   1.744   2.610   6.124  2.1650 -2.6248  0.4286
  148MOL   H14247476   1.783   2.775   6.171 -3.9430  0.1494  0.7330
  148MOL   H14347477   1.585   2.758   6.271 -2.1271  2.9449  2.0480
  148MOL   H14447478   1.674   2.851   6.396  0.2591 -0.2837 -1.1343
  148MOL   H14547479   1.569   2.721   6.435 -0.8899 -1.4163 -0.8626
  148MOL   C14647480   1.920   2.355   6.429  0.3915  0.1667  0.4830
  148MOL   C14747481   1.920   2.283   6.291 -0.1067  0.0309 -0.3390
  148MOL   C14847482   1.814   2.330   6.191  0.3123  0.2040 -0.9455
  148MOL   O14947483   1.693   2.309   6.216 -0.1977 -0.3279  0.3013
  148MOL   N15047484   1.847   2.377   6.068  0.0527 -0.6333  0.3201
  148MOL   C15147485   1.987   2.404   6.040 -0.4891 -0.0028  0.0182
  148MOL   C15247486   1.761   2.386   5.952  0.5080 -0.1444  0.0487
  148MOL   H15347487   1.993   2.310   6.495  0.1614 -1.2765 -0.2426
  148MOL   H15447488   1.824   2.341   6.479  0.2193  0.5334  0.2601
  148MOL   H15547489   2.023   2.306   6.263  0.3365  1.0410  2.0139
  148MOL   H15647490   2.037   2.309   6.054 -1.8406 -0.3984  2.6530
  148MOL   H15747491   1.998   2.449   5.941  0.3656 -0.2596 -0.0019
  148MOL   H15847492   2.024   2.475   6.114 -1.4793 -0.6463  1.1657
  148MOL   H15947493   1.765   2.490   5.920  1.8781 -0.4408 -0.7400
  148MOL   H16047494   1.655   2.363   5.943  0.5007  0.3010 -1.0359
  148MOL   H16147495   1.805   2.313   5.885 -0.8449  0.7878 -1.9100
  148MOL   C16247496   1.894   2.132   6.305 -0.1223  0.8865  0.0090
  148MOL   C16347497   2.008   2.037   6.358 -0.5136  0.0083 -0.1563
  148MOL   C16447498   2.138   2.045   6.274 -0.1646 -0.5048 -0.3512
  148MOL   O16547499   2.131   2.080   6.158  0.2066  0.6126 -1.0890
  148MOL   N16647500   2.258   2.006   6.331  0.4789  0.0467 -0.1909
  148MOL   C16747501   2.278   1.987   6.474 -0.1210 -0.7796 -0.3797
  148MOL   C16847502   2.385   2.020   6.251  0.0194 -0.3809  0.4344
  148MOL   H16947503   1.801   2.110   6.357 -0.5680  2.0824 -0.2675
  148MOL   H17047504   1.871   2.087   6.209  0.0420  1.2028 -0.1810
  148MOL   H17147505   2.033   2.072   6.458  0.6473  0.7319 -0.6786
  148MOL   H17247506   2.382   1.966   6.499 -0.1169 -0.4153 -0.0786
  148MOL   H17347507   2.247   2.081   6.520 -0.2288 -0.3082 -1.4097
  148MOL   H17447508   2.216   1.904   6.509 -2.0505  0.5122 -0.6727
  148MOL   H17547509   2.452   1.940   6.283  2.0934  1.7863  1.6613
  148MOL   H17647510   2.428   2.117   6.274 -1.3014  0.1635  0.6266
  148MOL   H17747511   2.374   2.001   6.144  1.6479 -0.1214  0.2028
  148MOL   C17847512   1.962   1.893   6.366  0.4357  0.3000  0.1142
  148MOL   C17947513   1.853   1.865   6.477  0.4053  0.1016  0.1071
  148MOL   C18047514   1.920   1.843   6.614  0.0645 -0.2548 -0.3790
  148MOL   O18147515   1.990   1.740   6.620 -0.4361 -0.5869  0.1955
  148MOL   N18247516   1.887   1.912   6.723  0.1510 -0.0723 -0.2759
  148MOL   C18347517   1.809   2.034   6.717 -0.0057 -0.7353 -0.0947
  148MOL   C18447518   1.896   1.846   6.848 -0.1564 -0.3080 -0.5544
  148MOL   H18547519   1.911   1.874   6.272  2.0607  2.6501 -1.2786
  148MOL   H18647520   2.039   1.815   6.370 -0.6201 -0.7480  0.3845
  148MOL   H18747521   1.792   1.956   6.480  0.5614  0.1633  2.3656
  148MOL   H18847522   1.837   2.086   6.808 -0.3379 -0.6167 -0.0590
  148MOL   H18947523   1.841   2.092   6.630 -2.4706 -1.0262 -1.2537
  148MOL   H19047524   1.701   2.017   6.722 -1.1524  5.0159 -1.7816
  148MOL   H19147525   1.998   1.836   6.886  0.3514  1.0318 -1.5029
  148MOL   H19247526   1.842   1.752   6.840 -2.1126  0.6044  1.7079
  148MOL   H19347527   1.830   1.886   6.925 -0.5127 -0.4401 -0.7886
  148MOL   C19447528   1.783   1.731   6.431 -0.3552  0.5094  0.1681
  148MOL   C19547529   1.654   1.692   6.506  0.3331  1.0357 -0.4371
  148MOL   C19647530   1.665   1.549   6.568  0.6836  0.0456 -0.7128
  148MOL   O19747531   1.690   1.456   6.491  0.4934 -0.3911 -0.1612
  148MOL   N19847532   1.649   1.523   6.701 -0.0731 -0.3294  0.4955
  148MOL   C19947533   1.703   1.399   6.753 -0.8376  0.6916  0.3831
  148MOL   C20047534   1.559   1.600   6.790  0.7857  0.3659 -0.1904
  148MOL   H20147535   1.756   1.747   6.327 -3.3580 -0.2189  0.7956
  148MOL   H20247536   1.848   1.643   6.436 -0.9930 -0.0215 -0.6800
  148MOL   H20347537   1.636   1.761   6.588  3.9829  1.3736  0.1461
  148MOL   H20447538   1.793   1.370   6.699 -0.9461 -1.0272  1.1016
  148MOL   H20547539   1.730   1.414   6.857 -2.7024  1.4230  0.7868
  148MOL   H20647540   1.630   1.318   6.757  2.9814 -2.9904 -0.7482
  148MOL   H20747541   1.536   1.539   6.878  2.3920  0.7341  0.5190
  148MOL   H20847542   1.462   1.619   6.746  1.2495  1.7655 -0.6364
  148MOL   H20947543   1.606   1.690   6.830  2.2690 -0.5895  0.2931
  148MOL   C21047544   1.531   1.694   6.412 -0.2559 -0.1448  0.2815
  148MOL   C21147545   1.486   1.838   6.377  0.2036 -0.3390  1.2343
  148MOL   C21247546   1.424   1.909   6.498 -0.3863 -0.6384 -1.0317
  148MOL   O21347547   1.358   1.838   6.579 -0.2139  0.2643 -0.1980
  148MOL   N21447548   1.459   2.038   6.528 -0.0578 -0.1764 -0.7191
  148MOL   C21547549   1.393   2.096   6.642 -0.3057  0.1920  0.3981
  148MOL   C21647550   1.517   2.139   6.439 -0.3902  0.2123 -0.1021
  148MOL   H21747551   1.551   1.648   6.315 -2.6264  2.9119 -1.7421
  148MOL   H21847552   1.452   1.642   6.466 -0.2906 -2.6754 -2.0513
  148MOL   H21947553   1.575   1.892   6.345  0.6749 -1.4270  0.6572
  148MOL   H22047554   1.372   2.022   6.719 -1.7747  0.4676  0.2749
  148MOL   H22147555   1.444   2.174   6.698  3.6154 -1.7484 -0.3096
  148MOL   H22247556   1.294   2.137   6.621  0.3752  0.5958 -2.2588
  148MOL   H22347557   1.607   2.187   6.476 -0.3308 -0.7121  0.9831
  148MOL   H22447558   1.446   2.221   6.432  1.6741  2.1400  0.8149
  148MOL   H22547559   1.530   2.117   6.333 -0.7960 -1.1933  0.1299
  148MOL   C22647560   1.374   1.842   6.269  0.3045 -1.0943 -0.0764
  148MOL   C22747561   1.425   1.791   6.124 -0.0618  0.2752 -0.1248
  148MOL   C22847562   1.523   1.879   6.054  0.7917  0.8008 -0.2455
  148MOL   O22947563   1.499   1.995   6.052 -0.3822  0.2924 -0.3322
  148MOL   N23047564   1.635   1.835   6.002 -0.0341  0.7574  0.7910
  148MOL   C23147565   1.720   1.930   5.928 -0.4178  0.6211 -0.7184
  148MOL   C23247566   1.643   1.699   5.953 -0.1241 -0.2205  0.3231
  148MOL   H23347567   1.294   1.776   6.303 -0.6962 -0.5421 -1.3161
  148MOL   H23447568   1.339   1.944   6.259  0.6283 -1.2192 -3.1999
  148MOL   H23547569   1.464   1.690   6.135  1.0913  0.9307  2.0773
  148MOL   H23647570   1.823   1.897   5.935 -0.3027  0.9646 -0.8024
  148MOL   H23747571   1.689   1.937   5.824 -0.0154  0.0057 -0.8781
  148MOL   H23847572   1.717   2.032   5.965 -1.7275 -0.6174  2.7900
  148MOL   H23947573   1.727   1.688   5.885  0.1833  1.6194  0.3641
  148MOL   H24047574   1.560   1.684   5.885 -0.4716  2.3336  0.1395
  148MOL   H24147575   1.643   1.634   6.041  0.7054 -0.0670  0.4398
  148MOL   C24247576   1.309   1.776   6.022 -0.8047  0.0427  0.3092
  148MOL   C24347577   1.219   1.647   6.041  0.0791 -0.3016 -0.3432
  148MOL   C24447578   1.301   1.517   6.012  0.4902 -0.8077 -0.0368
  148MOL   O24547579   1.354   1.508   5.899 -0.3644  0.0133  0.3545
  148MOL   N24647580   1.327   1.427   6.110  0.1748  0.6446  0.4796
  148MOL   C24747581   1.424   1.329   6.093  0.6110 -0.5432 -0.2565
  148MOL   C24847582   1.290   1.442   6.254 -0.5576  0.5661 -0.3593
  148MOL   H24947583   1.236   1.854   6.044 -0.2502  0.8701 -0.7214
  148MOL   H25047584   1.346   1.781   5.919 -3.7902  0.0168 -0.8418
  148MOL   H25147585   1.173   1.650   6.140  0.9745 -0.0820  0.0665
  148MOL   H25247586   1.521   1.378   6.087 -0.2107  1.7547  3.4177
  148MOL   H25347587   1.436   1.248   6.166  0.2930 -0.4090 -0.0548
  148MOL   H25447588   1.405   1.275   6.000 -0.3157 -0.0479 -0.3637
  148MOL   H25547589   1.191   1.488   6.263 -0.2101  1.8308 -2.6071
  148MOL   H25647590   1.372   1.499   6.298 -0.8243  1.7756 -1.3864
  148MOL   H25747591   1.284   1.347   6.306  1.5412 -0.0717 -1.2358
  148MOL   C25847592   1.096   1.647   5.936 -0.3015  0.1495 -0.2466
  148MOL   C25947593   0.963   1.573   5.980 -0.5482  0.9562  0.0928
  148MOL   C26047594   0.991   1.419   5.984  0.2326 -0.2402  0.3481
  148MOL   O26147595   1.023   1.370   5.870  0.1686 -0.1027  0.1864
  148MOL   N26247596   0.985   1.351   6.100  0.4003  0.1945 -0.0280
  148MOL   C26347597   0.913   1.397   6.222 -0.4757  0.4891  0.1036
  148MOL   C26447598   1.027   1.210   6.107 -0.2733 -0.5741 -0.1312
  148MOL   H26547599   1.060   1.746   5.908  0.9924  1.0849  1.2878
  148MOL   H26647600   1.138   1.604   5.846 -0.1639 -0.5855  0.1596
  148MOL   H26747601   0.937   1.606   6.081 -3.6846  0.5084 -0.5177
  148MOL   H26847602   0.977   1.473   6.266 -1.1885  1.8811 -1.1834
  148MOL   H26947603   0.813   1.430   6.192 -0.8110  0.2651  0.9769
  148MOL   H27047604   0.891   1.321   6.297 -2.6939  0.5812 -0.4109
  148MOL   H27147605   1.043   1.180   6.211  0.4296 -0.4048 -0.1863
  148MOL   H27247606   1.125   1.196   6.062  0.6387 -0.4106  1.7407
  148MOL   H27347607   0.951   1.149   6.058 -0.4229 -0.1176 -0.4658
  148MOL   C27447608   0.836   1.593   5.886  0.5451 -0.8463  0.4958
  148MOL   C27547609   0.755   1.729   5.898  0.3099 -0.0026  0.2767
  148MOL   C27647610   0.683   1.737   6.024 -0.8445 -0.5416  0.3575
  148MOL   O27747611   0.580   1.673   6.037 -0.2999  0.0744 -0.0639
  148MOL   N27847612   0.734   1.805   6.127 -0.8684 -0.2325 -0.1719
  148MOL   C27947613   0.649   1.833   6.250 -0.1080 -0.1386  0.2955
  148MOL   C28047614   0.858   1.887   6.113  0.3253 -0.3157 -0.0323
  148MOL   H28147615   0.866   1.591   5.781  1.4960  1.5602  0.6945
  148MOL   H28247616   0.763   1.513   5.899 -0.5513  0.3783  1.9670
  148MOL   H28347617   0.825   1.811   5.887 -0.4661  1.0238  2.6242
  148MOL   H28447618   0.688   1.908   6.319 -0.1984 -0.3461  0.5702
  148MOL   H28547619   0.549   1.865   6.220  0.4191  0.2051 -1.1012
  148MOL   H28647620   0.637   1.748   6.317  2.9161 -1.9079 -1.3337
  148MOL   H28747621   0.881   1.918   6.216  0.2820 -1.4773  0.3335
  148MOL   H28847622   0.836   1.969   6.045 -0.5953  0.3332  1.0135
  148MOL   H28947623   0.948   1.832   6.087  0.5913 -0.2689  0.7594
  148MOL   C29047624   0.651   1.758   5.779 -0.8432  0.5277 -0.5328
  148MOL   C29147625   0.688   1.876   5.687 -0.2084 -0.3485 -0.5924
  148MOL   C29247626   0.677   2.012   5.763  0.2068 -0.4957 -0.4961
  148MOL   O29347627   0.590   2.033   5.848 -0.2336  0.3328 -0.7795
  148MOL   N29447628   0.767   2.111   5.731  0.2119  0.6610 -0.1148
  148MOL   C29547629   0.873   2.095   5.631  0.2232  0.1008 -0.1041
  148MOL   C29647630   0.775   2.226   5.819  0.0783  0.4978  0.6129
  148MOL   H29747631   0.649   1.670   5.714 -1.3280  0.9942 -1.1603
  148MOL   H29847632   0.546   1.759   5.809 -0.4778  1.5325  0.7608
  148MOL   H29947633   0.793   1.859   5.666  0.0065  0.8877 -0.5564
  148MOL   H30047634   0.936   2.006   5.632  0.9316  0.5925 -0.4356
  148MOL   H30147635   0.830   2.103   5.531 -0.3763 -0.0239  0.1414
  148MOL   H30247636   0.951   2.171   5.646 -0.5390  0.9027 -0.1537
  148MOL   H30347637   0.720   2.314   5.784 -0.3949  0.1084  0.3744
  148MOL   H30447638   0.878   2.260   5.813 -0.4024  1.5397 -2.5372
  148MOL   H30547639   0.753   2.195   5.921  1.6288 -1.8567  0.2710
  148MOL   C30647640   0.625   1.871   5.549  0.2866  0.0977 -0.7605
  148MOL   C30747641   0.469   1.908   5.542 -0.7297  0.6873 -0.6011
  148MOL   C30847642   0.438   2.050   5.516 -0.2516  0.2320  0.2905
  148MOL   O30947643   0.528   2.128   5.496 -0.6906 -0.5817 -0.0057
  148MOL   N31047644   0.308   2.091   5.502 -0.1932  0.5130  0.2343
  148MOL   C31147645   0.264   2.229   5.488  0.4760 -0.4891 -0.0828
  148MOL   C31247646   0.197   1.989   5.525  0.7181  0.2335  0.8016
  148MOL   H31347647   0.678   1.942   5.485  1.0625 -0.1171 -0.3509
  148MOL   H31447648   0.642   1.776   5.498 -2.1198 -1.3569  1.0519
  148MOL   H31547649   0.430   1.852   5.457 -1.3172  1.6809 -0.9901
  148MOL   H31647650   0.233   2.273   5.583  0.9872  2.7369 -1.3459
  148MOL   H31747651   0.343   2.290   5.443 -2.1402  2.1101 -1.3081
  148MOL   H31847652   0.178   2.236   5.422  0.5987  1.2408 -0.0914
  148MOL   H31947653   0.105   2.044   5.543 -1.4978 -3.4288  1.2158
  148MOL   H32047654   0.212   1.949   5.625  0.1518 -0.0423  0.7788
  148MOL   H32147655   0.185   1.903   5.459  1.9042 -0.1703  1.1056
  148MOL   H32247656   0.426   1.884   5.639  2.2851 -2.4484  0.0426
  149MOL     C147657   7.100   3.519   2.252  0.4229 -0.2325  0.3601
  149MOL     C247658   6.983   3.511   2.157 -0.1187  0.1013  0.3894
  149MOL     C347659   6.990   3.375   2.083  0.0773 -0.2217  0.3350
  149MOL     O447660   7.062   3.368   1.982  0.0212 -0.0472 -0.0712
  149MOL     N547661   6.919   3.266   2.130 -0.3243 -0.8684  0.3019
  149MOL     C647662   6.936   3.138   2.074  1.0271 -0.2612  0.1060
  149MOL     C747663   6.813   3.280   2.232 -0.2516  0.7547 -0.1199
  149MOL     H847664   7.194   3.509   2.197 -0.5204  1.5418 -1.6677
  149MOL     H947665   7.093   3.433   2.318 -0.4365 -0.5758 -0.1703
  149MOL    H1047666   6.895   3.509   2.222  0.4486 -3.1627  1.1289
  149MOL    H1147667   6.887   3.056   2.127  0.8868 -1.2795 -1.5563
  149MOL    H1247668   6.909   3.127   1.969 -1.5224  1.7573  0.4959
  149MOL    H1347669   7.043   3.117   2.078  0.9686 -0.4721  0.6992
  149MOL    H1447670   6.843   3.321   2.328  1.7319  0.5944 -0.6417
  149MOL    H1547671   6.772   3.183   2.260  1.0303  0.4040  0.5666
  149MOL    H1647672   6.734   3.349   2.200 -0.2440  0.7995 -0.0405
  149MOL    H1747673   7.111   3.615   2.303  0.4331  0.3863 -0.7730
  149MOL    C1847674   6.977   3.628   2.062  0.1192  0.3361 -0.0269
  149MOL    C1947675   6.889   3.753   2.094 -0.0875  0.2644 -0.4781
  149MOL    C2047676   6.929   3.830   2.218 -0.0293 -0.4144 -0.6058
  149MOL    O2147677   6.908   3.778   2.331 -0.0153  0.7598  0.0404
  149MOL    N2247678   6.991   3.958   2.208  0.1450  0.4449  0.2139
  149MOL    C2347679   7.024   4.032   2.325 -0.3210  0.2864  0.1211
  149MOL    C2447680   7.028   4.019   2.083  0.7263 -0.4937  0.1471
  149MOL    H2547681   7.082   3.652   2.044  0.4340 -0.4832  0.6878
  149MOL    H2647682   6.943   3.590   1.966  0.2467 -2.2395  0.9014
  149MOL    H2747683   6.886   3.813   2.003 -0.0701  0.5988 -0.2610
  149MOL    H2847684   7.074   4.126   2.302  1.4016 -0.6553 -0.1302
  149MOL    H2947685   6.930   4.046   2.378 -1.5668 -2.0252 -1.4090
  149MOL    H3047686   7.081   3.975   2.399 -0.2612  0.1098 -0.0602
  149MOL    H3147687   7.110   4.091   2.090  1.9720 -1.8507 -0.1785
  149MOL    H3247688   6.937   4.052   2.034  0.8666  1.6367  1.2377
  149MOL    H3347689   7.067   3.937   2.023 -1.4023 -2.0798  0.8780
  149MOL    C3447690   6.737   3.719   2.096 -0.1017  0.5308 -0.1761
  149MOL    C3547691   6.656   3.741   1.960 -0.0922  0.8785  0.1067
  149MOL    C3647692   6.664   3.887   1.912  0.1350  0.2052 -0.2912
  149MOL    O3747693   6.656   3.978   1.997  0.3364 -0.0795  0.2554
  149MOL    N3847694   6.675   3.922   1.779  0.7950  0.0799  0.2460
  149MOL    C3947695   6.669   3.820   1.671 -0.6235  0.2311  0.0901
  149MOL    C4047696   6.656   4.061   1.744  0.4098  0.2796  0.2723
  149MOL    H4147697   6.720   3.625   2.149  0.8296  0.1341 -0.5652
  149MOL    H4247698   6.685   3.784   2.167 -0.8963  1.0111 -1.1830
  149MOL    H4347699   6.720   3.684   1.893  1.0708  1.0963  1.0142
  149MOL    H4447700   6.575   3.764   1.678  0.0550 -0.8566  0.7130
  149MOL    H4547701   6.665   3.868   1.574  1.3581 -2.4045 -1.3780
  149MOL    H4647702   6.745   3.743   1.656 -1.1174 -0.3343  0.4526
  149MOL    H4747703   6.557   4.073   1.700  0.6056  0.7712 -0.0404
  149MOL    H4847704   6.729   4.105   1.677  0.9541 -2.0806 -0.7178
  149MOL    H4947705   6.649   4.135   1.824  0.4520  0.5192  0.0522
  149MOL    C5047706   6.508   3.706   1.980 -0.4457 -0.4977 -0.0688
  149MOL    C5147707   6.472   3.548   1.986  0.0123  0.7792  0.2870
  149MOL    C5247708   6.481   3.500   1.837 -0.6896 -0.9865 -0.6147
  149MOL    O5347709   6.419   3.558   1.752  0.7444 -0.0449 -0.1899
  149MOL    N5447710   6.561   3.400   1.799 -1.0273  0.0770 -0.2343
  149MOL    C5547711   6.578   3.360   1.668  0.1064 -0.2120  0.2420
  149MOL    C5647712   6.669   3.348   1.884  0.3567 -0.2680 -0.0905
  149MOL    H5747713   6.479   3.745   2.077  0.0704  0.6720 -0.3705
  149MOL    H5847714   6.447   3.767   1.913  0.0116  0.4738  0.3887
  149MOL    H5947715   6.536   3.486   2.048 -0.5372 -0.9206 -0.8371
  149MOL    H6047716   6.536   3.421   1.589  0.2942 -0.4002 -0.0043
  149MOL    H6147717   6.684   3.343   1.651  0.2694 -0.0808  1.0866
  149MOL    H6247718   6.527   3.263   1.665 -0.2653  0.0326 -1.6374
  149MOL    H6347719   6.721   3.258   1.853 -0.9849 -0.7595 -0.9378
  149MOL    H6447720   6.614   3.316   1.973 -0.6943  1.5657 -0.0485
  149MOL    H6547721   6.731   3.428   1.924  0.5062 -0.2823 -0.2987
  149MOL    C6647722   6.323   3.533   2.034 -0.0751 -0.5806 -0.0542
  149MOL    C6747723   6.300   3.461   2.171  0.4824  0.0705  0.5600
  149MOL    C6847724   6.376   3.528   2.286 -0.4817  0.2390 -0.4939
  149MOL    O6947725   6.496   3.507   2.289 -0.0728  0.5712 -0.1542
  149MOL    N7047726   6.310   3.605   2.377 -0.2900 -0.0205 -0.3990
  149MOL    C7147727   6.394   3.692   2.456 -0.4448 -0.7776  1.0045
  149MOL    C7247728   6.167   3.601   2.402  0.5480 -0.6096 -0.3029
  149MOL    H7347729   6.269   3.628   2.038  3.0706  1.2049  1.0817
  149MOL    H7447730   6.273   3.475   1.956  2.2425 -0.3270 -1.7694
  149MOL    H7547731   6.194   3.462   2.195  0.3041  0.3414 -0.2438
  149MOL    H7647732   6.461   3.752   2.395  0.0570  0.4299  2.6949
  149MOL    H7747733   6.339   3.759   2.522 -1.2769 -1.6239  1.1864
  149MOL    H7847734   6.452   3.632   2.526 -0.5114 -2.0721 -0.0369
  149MOL    H7947735   6.144   3.662   2.489  3.2811  1.3049 -0.8373
  149MOL    H8047736   6.135   3.497   2.407 -2.5779  0.3823  1.9512
  149MOL    H8147737   6.112   3.644   2.319 -1.9248 -0.9872  1.0799
  149MOL    C8247738   6.331   3.306   2.170  0.2314 -0.2072  0.4788
  149MOL    C8347739   6.307   3.225   2.303 -0.9847 -0.6671 -0.2300
  149MOL    C8447740   6.442   3.192   2.374  0.3036 -0.3687  0.1035
  149MOL    O8547741   6.531   3.134   2.310  0.7044 -0.4284 -0.1152
  149MOL    N8647742   6.461   3.228   2.500 -0.1615  0.2024 -0.4337
  149MOL    C8747743   6.365   3.284   2.597  0.7948 -0.4510 -0.0431
  149MOL    C8847744   6.590   3.199   2.572  0.4901  0.8222  0.3954
  149MOL    H8947745   6.295   3.255   2.082 -0.1530 -0.2126  0.6376
  149MOL    H9047746   6.438   3.314   2.151 -0.0249  1.9289 -0.2266
  149MOL    H9147747   6.247   3.290   2.367 -1.6961 -2.5176  0.9936
  149MOL    H9247748   6.261   3.252   2.589 -0.6250  2.7115  3.9295
  149MOL    H9347749   6.397   3.269   2.700  0.4844 -2.2740 -0.1875
  149MOL    H9447750   6.365   3.393   2.589 -0.3975 -0.3563  1.1897
  149MOL    H9547751   6.590   3.090   2.561 -0.4864  0.8899 -0.3183
  149MOL    H9647752   6.595   3.229   2.676 -0.2745  0.1262  0.6323
  149MOL    H9747753   6.682   3.222   2.517 -0.6323 -0.9055 -2.3395
  149MOL    C9847754   6.228   3.090   2.282 -0.2328  0.0916  0.7219
  149MOL    C9947755   6.081   3.109   2.228 -0.6240  0.4744  0.1204
  149MOL   C10047756   5.988   3.168   2.337 -0.6245  0.3071  0.1278
  149MOL   O10147757   6.015   3.129   2.455 -0.2220  0.4563  0.2029
  149MOL   N10247758   5.883   3.251   2.310 -0.3242 -0.2401  0.0129
  149MOL   C10347759   5.801   3.301   2.422  0.7776 -0.2379 -0.0776
  149MOL   C10447760   5.831   3.271   2.172  0.1565 -0.0315  0.0692
  149MOL   H10547761   6.272   3.022   2.209 -0.9171 -1.7834  2.0182
  149MOL   H10647762   6.219   3.033   2.374 -2.7761  1.5600  1.4358
  149MOL   H10747763   6.074   3.160   2.132 -1.1750  0.5899  0.2236
  149MOL   H10847764   5.863   3.347   2.499 -2.4608  0.8859  1.9422
  149MOL   H10947765   5.731   3.384   2.413  2.5263  0.8660 -4.7825
  149MOL   H11047766   5.742   3.220   2.466  0.5307 -0.8273 -1.4764
  149MOL   H11147767   5.752   3.345   2.162  1.2896  1.1002 -0.7529
  149MOL   H11247768   5.785   3.180   2.135 -0.3634  0.3525 -0.2360
  149MOL   H11347769   5.908   3.285   2.095 -0.9610 -0.1946 -1.0934
  149MOL   C11447770   6.022   2.967   2.189  0.2600  0.1244 -0.2752
  149MOL   C11547771   6.058   2.926   2.043  0.8013 -0.3960 -0.4624
  149MOL   C11647772   5.970   2.995   1.932 -0.7532 -0.0166 -0.3158
  149MOL   O11747773   5.851   3.004   1.950 -0.0259 -0.3430 -0.5749
  149MOL   N11847774   6.021   3.052   1.820 -1.0372  0.3493 -0.2806
  149MOL   C11947775   5.935   3.119   1.729 -0.0740  0.7249 -0.7819
  149MOL   C12047776   6.157   3.034   1.772 -0.5007 -0.6244 -0.3185
  149MOL   H12147777   6.057   2.895   2.262 -0.6337 -0.8451 -0.7842
  149MOL   H12247778   5.914   2.964   2.204  0.2160  1.4524 -0.2399
  149MOL   H12347779   6.163   2.948   2.025  0.4729  0.1907 -1.7567
  149MOL   H12447780   5.971   3.153   1.632  0.7493  1.1496 -0.3321
  149MOL   H12547781   5.845   3.063   1.701  1.0816 -0.9827 -1.1639
  149MOL   H12647782   5.907   3.207   1.785  1.8128  0.7177  0.2160
  149MOL   H12747783   6.230   2.979   1.831  1.8008 -0.6240 -3.0404
  149MOL   H12847784   6.210   3.129   1.760 -0.6753 -0.7180 -1.9203
  149MOL   H12947785   6.170   2.996   1.670  0.0663 -2.4247  0.4091
  149MOL   C13047786   6.040   2.781   2.013  0.3280  0.2532 -0.5437
  149MOL   C13147787   5.903   2.706   2.025  0.3448  0.0954 -0.6045
  149MOL   C13247788   5.858   2.708   2.175  0.7286  0.2192 -0.3599
  149MOL   O13347789   5.937   2.665   2.261 -0.3824  0.2262 -0.4601
  149MOL   N13447790   5.737   2.758   2.209  0.6323 -0.5603  0.3778
  149MOL   C13547791   5.618   2.769   2.116  0.5164 -0.7435 -0.4021
  149MOL   C13647792   5.700   2.793   2.344  0.3802  0.7569  0.3475
  149MOL   H13747793   6.090   2.764   1.918  0.5719 -0.9810 -0.2064
  149MOL   H13847794   6.107   2.724   2.078 -1.6393 -0.4563  0.9057
  149MOL   H13947795   5.828   2.764   1.972  1.1794  0.2133 -1.6758
  149MOL   H14047796   5.521   2.745   2.159 -1.8169 -0.2886 -5.0602
  149MOL   H14147797   5.613   2.872   2.081 -0.5357 -0.7801 -0.3687
  149MOL   H14247798   5.622   2.710   2.024 -2.5732 -0.9424 -0.4556
  149MOL   H14347799   5.592   2.795   2.360  0.6170 -0.4112  2.2502
  149MOL   H14447800   5.742   2.891   2.367  0.1378  0.6222  1.3711
  149MOL   H14547801   5.747   2.726   2.416  0.2075 -1.0521 -1.1718
  149MOL   C14647802   5.894   2.561   1.970 -0.1535  0.3759 -0.1050
  149MOL   C14747803   5.899   2.547   1.816 -0.2868 -0.2579  0.0981
  149MOL   C14847804   5.766   2.587   1.753 -0.3552  0.8641 -0.2320
  149MOL   O14947805   5.665   2.543   1.808 -0.0709  0.2735 -0.8125
  149MOL   N15047806   5.755   2.668   1.647  0.1478  0.4091  0.5834
  149MOL   C15147807   5.627   2.682   1.581 -0.0456  0.3278 -0.2884
  149MOL   C15247808   5.856   2.760   1.609 -0.3090  0.6486  0.0283
  149MOL   H15347809   5.977   2.500   2.004  1.0026 -0.0749 -3.4950
  149MOL   H15447810   5.817   2.503   2.021 -2.0974  1.8919 -1.2167
  149MOL   H15547811   5.983   2.610   1.786  0.4476 -0.8015  0.9709
  149MOL   H15647812   5.576   2.769   1.622 -1.2963 -1.2495  1.5988
  149MOL   H15747813   5.644   2.695   1.474 -1.3555  1.2005 -0.4104
  149MOL   H15847814   5.561   2.595   1.586  0.8582 -0.3778 -0.4616
  149MOL   H15947815   5.951   2.708   1.594 -0.5464  0.6848 -1.8025
  149MOL   H16047816   5.882   2.823   1.694  1.6966 -1.6351  1.1567
  149MOL   H16147817   5.833   2.822   1.522  0.9803  0.6093 -0.3547
  149MOL   C16247818   5.931   2.401   1.766 -0.1338 -0.4143  0.1777
  149MOL   C16347819   6.011   2.404   1.639 -0.4594  0.2417  0.6042
  149MOL   C16447820   5.973   2.272   1.562 -0.0594  0.0747  0.3633
  149MOL   O16547821   6.012   2.165   1.607  0.4440 -0.2769 -0.7007
  149MOL   N16647822   5.886   2.278   1.457  0.5305  0.2681 -0.6826
  149MOL   C16747823   5.823   2.399   1.415  0.5448 -0.4137  0.8562
  149MOL   C16847824   5.840   2.148   1.390  0.1186  0.2735 -0.6790
  149MOL   H16947825   5.981   2.346   1.845  0.7776 -1.4680 -1.1069
  149MOL   H17047826   5.842   2.341   1.748  0.3692 -1.0759 -0.1567
  149MOL   H17147827   5.972   2.486   1.580  0.6373 -0.5692 -1.2856
  149MOL   H17247828   5.740   2.433   1.476  0.9568  1.6691  0.3054
  149MOL   H17347829   5.898   2.478   1.404  1.0172 -0.9493  0.2118
  149MOL   H17447830   5.778   2.389   1.317  1.5592  1.8798  0.1100
  149MOL   H17547831   5.935   2.113   1.350  0.5114 -0.2331  0.6735
  149MOL   H17647832   5.764   2.164   1.314  2.3241 -1.2409 -3.2888
  149MOL   H17747833   5.808   2.073   1.462  3.4928 -1.8870 -1.3051
  149MOL   C17847834   6.168   2.420   1.650  0.1790 -0.4936 -0.6614
  149MOL   C17947835   6.239   2.459   1.519 -0.2618  0.2810  0.7562
  149MOL   C18047836   6.189   2.581   1.441 -0.0303  0.3975  0.4421
  149MOL   O18147837   6.120   2.564   1.340 -0.4179  0.6623 -0.4514
  149MOL   N18247838   6.227   2.703   1.470  0.1435  0.4558  0.4362
  149MOL   C18347839   6.320   2.739   1.575  0.3114 -0.6816 -1.0395
  149MOL   C18447840   6.180   2.811   1.392 -0.2694  0.0566  0.0880
  149MOL   H18547841   6.189   2.495   1.726 -1.6375 -1.4232  0.7922
  149MOL   H18647842   6.220   2.331   1.685  0.6161  0.5003  1.2770
  149MOL   H18747843   6.339   2.472   1.559  0.0715 -2.4912  0.9115
  149MOL   H18847844   6.421   2.702   1.559 -0.1674 -1.4511 -2.3588
  149MOL   H18947845   6.322   2.847   1.592  2.2919 -1.0200  1.1666
  149MOL   H19047846   6.300   2.678   1.664 -0.7620 -0.8079 -1.3548
  149MOL   H19147847   6.182   2.785   1.286  0.2631 -0.3327  0.1915
  149MOL   H19247848   6.226   2.908   1.412 -0.6428  0.0335  1.0986
  149MOL   H19347849   6.071   2.815   1.400 -0.3075  1.4619 -1.0263
  149MOL   C19447850   6.253   2.338   1.425  0.6056 -0.3227 -0.4077
  149MOL   C19547851   6.346   2.340   1.303  0.7193  0.1720 -0.5522
  149MOL   C19647852   6.342   2.214   1.222  0.8725  0.1164  1.3269
  149MOL   O19747853   6.412   2.124   1.272  0.7408  0.0825  0.1612
  149MOL   N19847854   6.238   2.188   1.138  0.1873  0.3472  0.7738
  149MOL   C19947855   6.158   2.292   1.063 -0.5093  0.3154  0.5496
  149MOL   C20047856   6.197   2.054   1.091 -0.7504 -0.6128 -0.4045
  149MOL   H20147857   6.268   2.245   1.480 -1.1774  0.3060  1.1821
  149MOL   H20247858   6.156   2.314   1.382 -0.4940 -0.0654  1.8902
  149MOL   H20347859   6.308   2.411   1.229  1.2875  0.9641 -0.0889
  149MOL   H20447860   6.119   2.249   0.971 -4.1789  2.1136  1.1637
  149MOL   H20547861   6.074   2.332   1.120 -0.4001  1.6113 -0.1662
  149MOL   H20647862   6.222   2.378   1.039 -1.1294  1.3916  2.6541
  149MOL   H20747863   6.268   1.981   1.132  0.7917  1.4002  0.6072
  149MOL   H20847864   6.213   2.050   0.983  3.5071 -0.6177  0.1232
  149MOL   H20947865   6.100   2.022   1.127 -1.5767 -1.7252 -3.4302
  149MOL   C21047866   6.492   2.383   1.339  0.1037 -0.3632 -0.7657
  149MOL   C21147867   6.562   2.486   1.241 -0.0914  0.0847  0.3362
  149MOL   C21247868   6.712   2.473   1.257 -0.5483 -0.0972 -0.7118
  149MOL   O21347869   6.757   2.528   1.351 -0.4949  0.4270 -0.2349
  149MOL   N21447870   6.788   2.408   1.164  0.3457  0.0370 -0.0544
  149MOL   C21547871   6.932   2.419   1.166 -0.0545 -0.4924 -0.1696
  149MOL   C21647872   6.729   2.306   1.075 -0.6560 -0.5133  0.0475
  149MOL   H21747873   6.519   2.416   1.439 -1.7100  1.5087 -0.8507
  149MOL   H21847874   6.550   2.291   1.344 -0.2374 -0.6261 -1.6055
  149MOL   H21947875   6.536   2.444   1.144  0.4903  1.3094 -0.3586
  149MOL   H22047876   6.977   2.410   1.066 -2.3261 -1.5174 -1.1259
  149MOL   H22147877   6.956   2.516   1.208 -0.1339  0.1929 -1.6662
  149MOL   H22247878   6.987   2.347   1.226 -0.3141  1.9251  3.0908
  149MOL   H22347879   6.684   2.357   0.990 -2.2090  1.1968  1.8253
  149MOL   H22447880   6.657   2.242   1.127 -1.6604  0.5537 -0.0013
  149MOL   H22547881   6.814   2.250   1.036 -1.3839 -2.2596  0.9157
  149MOL   C22647882   6.509   2.629   1.241  0.8887  0.8780  0.1968
  149MOL   C22747883   6.603   2.739   1.185 -0.5003  0.2540  0.6255
  149MOL   C22847884   6.538   2.880   1.224  0.0747 -0.4912 -0.0404
  149MOL   O22947885   6.454   2.934   1.154 -0.2265 -0.0256 -0.4787
  149MOL   N23047886   6.579   2.934   1.338 -0.2836 -0.6925  0.0284
  149MOL   C23147887   6.675   2.881   1.432 -0.5945 -0.3233 -0.3440
  149MOL   C23247888   6.517   3.058   1.373  0.7029 -1.2125 -0.0878
  149MOL   H23347889   6.410   2.642   1.196  0.9468  3.1777  0.6324
  149MOL   H23447890   6.501   2.650   1.348  0.2993 -2.0412  0.7448
  149MOL   H23547891   6.703   2.740   1.227  0.0355 -1.1323 -0.5773
  149MOL   H23647892   6.675   2.942   1.522 -1.2686 -0.8783  0.0401
  149MOL   H23747893   6.664   2.773   1.446  0.6979 -0.4789 -0.4675
  149MOL   H23847894   6.770   2.889   1.379 -2.1798 -2.6839 -3.7117
  149MOL   H23947895   6.448   3.030   1.453  0.0146  1.0181  0.1390
  149MOL   H24047896   6.460   3.121   1.304  1.2167  0.4691  1.0127
  149MOL   H24147897   6.586   3.122   1.427 -1.3986  0.3750  0.8137
  149MOL   C24247898   6.626   2.716   1.031  0.2497 -0.4111 -0.8392
  149MOL   C24347899   6.709   2.825   0.963 -0.1632 -0.0183 -0.1435
  149MOL   C24447900   6.666   2.846   0.813 -0.7978  0.8446  0.1506
  149MOL   O24547901   6.666   2.739   0.750 -0.3208  0.0422 -0.4188
  149MOL   N24647902   6.634   2.963   0.757  0.3599  0.2782 -0.4634
  149MOL   C24747903   6.611   2.977   0.616 -1.0529 -0.0044 -0.7602
  149MOL   C24847904   6.619   3.092   0.831 -0.3274  0.1477  0.4976
  149MOL   H24947905   6.668   2.620   1.004 -1.2467 -1.3952  0.2761
  149MOL   H25047906   6.531   2.723   0.978 -0.4225  0.3928  0.4420
  149MOL   H25147907   6.696   2.929   0.991  4.0778  0.6282 -0.2633
  149MOL   H25247908   6.562   3.066   0.578 -3.0842 -1.7115 -2.2678
  149MOL   H25347909   6.703   2.960   0.560 -0.9660 -0.9099 -0.3488
  149MOL   H25447910   6.541   2.898   0.587  1.1887 -3.1880  2.1068
  149MOL   H25547911   6.580   3.178   0.776 -3.0955 -0.1281  1.9137
  149MOL   H25647912   6.716   3.117   0.873 -0.2553  0.1142  0.3513
  149MOL   H25747913   6.557   3.087   0.920  0.1827  0.9301  0.8969
  149MOL   C25847914   6.860   2.791   0.974 -0.0675  0.2589 -0.4174
  149MOL   C25947915   6.949   2.921   0.983 -0.5711  0.1954  0.1466
  149MOL   C26047916   7.094   2.889   0.933 -1.0284  0.1551  0.3618
  149MOL   O26147917   7.163   2.815   0.999  0.0376 -0.3486  0.2766
  149MOL   N26247918   7.138   2.940   0.817  0.2142 -0.4425 -0.0228
  149MOL   C26347919   7.277   2.931   0.802  0.0956 -0.0919 -0.1620
  149MOL   C26447920   7.067   3.012   0.716  0.3802  0.1748 -0.0817
  149MOL   H26547921   6.883   2.729   1.061  2.1460  1.7884  0.1160
  149MOL   H26647922   6.900   2.721   0.901 -0.1169 -0.5488  0.3156
  149MOL   H26747923   6.899   2.998   0.924 -0.2009  1.1523  1.0622
  149MOL   H26847924   7.308   2.827   0.787  0.2445  0.0520 -0.8689
  149MOL   H26947925   7.325   2.988   0.722  0.8840  1.1015  1.1383
  149MOL   H27047926   7.325   2.973   0.890 -0.5915 -0.1298  0.2353
  149MOL   H27147927   7.117   2.989   0.622 -1.1558 -2.6234 -0.2630
  149MOL   H27247928   7.075   3.121   0.724  0.6456  0.0284  2.1316
  149MOL   H27347929   6.965   2.981   0.696 -0.6372  2.6990  1.0444
  149MOL   C27447930   6.965   2.973   1.129 -0.5079  0.6770  0.1487
  149MOL   C27547931   7.038   3.112   1.143  0.3672 -0.0060 -0.1656
  149MOL   C27647932   6.981   3.214   1.049 -0.2205 -0.1605 -0.0143
  149MOL   O27747933   7.045   3.226   0.944 -0.7242  0.0867 -0.0784
  149MOL   N27847934   6.876   3.293   1.085 -0.2795 -0.0113  0.2480
  149MOL   C27947935   6.837   3.413   1.005  0.0903 -0.6254  0.2739
  149MOL   C28047936   6.787   3.263   1.194  0.1331 -0.8424  0.2135
  149MOL   H28147937   6.863   2.976   1.168 -0.1761 -1.0040  1.1762
  149MOL   H28247938   7.018   2.893   1.180 -0.9858 -0.0201 -0.4347
  149MOL   H28347939   7.003   3.152   1.238 -2.2175 -2.1720 -0.1369
  149MOL   H28447940   6.787   3.482   1.072 -0.4317 -0.4096 -0.3382
  149MOL   H28547941   6.928   3.458   0.966 -0.7343 -1.4972 -2.7149
  149MOL   H28647942   6.769   3.385   0.925 -1.8678 -0.3625  1.8117
  149MOL   H28747943   6.758   3.159   1.204 -2.2067 -0.2398  0.0187
  149MOL   H28847944   6.693   3.319   1.188  1.2769  1.2619  1.1055
  149MOL   H28947945   6.838   3.292   1.286  0.3059 -1.2253  0.2393
  149MOL   C29047946   7.198   3.110   1.159  0.5567  0.3333 -0.5186
  149MOL   C29147947   7.265   3.007   1.261 -0.1573  0.0220 -0.7091
  149MOL   C29247948   7.190   2.985   1.394 -0.0673 -0.1623 -0.5411
  149MOL   O29347949   7.167   3.082   1.473  0.3883  0.5383  0.7811
  149MOL   N29447950   7.147   2.861   1.425  0.8391 -0.0217 -0.0145
  149MOL   C29547951   7.042   2.843   1.533 -0.2960  0.5899 -0.4332
  149MOL   C29647952   7.183   2.734   1.365 -0.1059 -0.2816  0.1531
  149MOL   H29747953   7.247   3.117   1.062 -0.9128 -0.1016 -1.3058
  149MOL   H29847954   7.218   3.214   1.184  0.2429  0.3175 -0.2085
  149MOL   H29947955   7.263   2.916   1.201 -0.3759 -1.0675  0.9231
  149MOL   H30047956   6.964   2.916   1.514  0.2235  1.0890 -0.6728
  149MOL   H30147957   7.005   2.740   1.530 -1.6055  1.0837 -2.1198
  149MOL   H30247958   7.092   2.848   1.630 -1.2948 -1.8993  0.2577
  149MOL   H30347959   7.292   2.726   1.373 -0.2586 -2.3322  0.3145
  149MOL   H30447960   7.168   2.727   1.258  0.3864  2.0567 -0.0915
  149MOL   H30547961   7.129   2.649   1.408 -1.3326 -0.0498 -0.9137
  149MOL   C30647962   7.410   3.048   1.286 -0.7656  0.5792 -0.6718
  149MOL   C30747963   7.504   3.047   1.168 -0.0477  0.3372 -0.3552
  149MOL   C30847964   7.623   3.148   1.184  0.1632  0.0878  0.5225
  149MOL   O30947965   7.608   3.257   1.128 -0.5262  0.8146 -0.0133
  149MOL   N31047966   7.728   3.125   1.255 -0.0500  0.0610 -0.0333
  149MOL   C31147967   7.839   3.214   1.255 -0.1595 -0.5260  0.5074
  149MOL   C31247968   7.746   2.998   1.332  0.2349 -0.0954 -0.5420
  149MOL   H31347969   7.426   3.144   1.337  1.3194  0.0632 -0.2857
  149MOL   H31447970   7.440   2.970   1.356  1.3361  0.9900 -1.0851
  149MOL   H31547971   7.538   2.948   1.138  0.0305  0.4593 -0.6709
  149MOL   H31647972   0.075   3.174   1.303  0.3534 -0.1408 -0.1142
  149MOL   H31747973   0.018   3.231   1.152  0.1874  0.5528  0.7856
  149MOL   H31847974   7.824   3.312   1.301 -1.5602 -0.4710 -0.0538
  149MOL   H31947975   7.667   2.977   1.404  1.7752 -1.1863  0.8866
  149MOL   H32047976   7.830   3.006   1.401 -1.9917  0.3481  2.1982
  149MOL   H32147977   7.768   2.911   1.271 -0.6932 -1.6788  1.3313
  149MOL   H32247978   7.460   3.088   1.077  0.2749  1.2717 -0.1036
  150MOL     C147979   7.353   2.155   3.233 -0.5320 -0.2421  0.5162
  150MOL     C247980   7.424   2.197   3.104  0.5820 -0.2677 -0.2880
  150MOL     C347981   7.468   2.345   3.127  0.4463 -1.0728 -0.7359
  150MOL     O447982   7.377   2.436   3.133  0.1477 -0.3822  0.3536
  150MOL     N547983   7.596   2.375   3.126 -0.1163 -1.0103  0.1938
  150MOL     C647984   7.714   2.283   3.109 -0.1506  0.2443  0.0833
  150MOL     C747985   7.642   2.506   3.150  0.3099  0.1062  0.6004
  150MOL     H847986   7.256   2.199   3.252  0.1891  2.3504 -1.5919
  150MOL     H947987   7.421   2.174   3.316  0.2027 -0.3200 -0.0612
  150MOL    H1047988   7.509   2.129   3.092  0.3757 -0.6297  0.3167
  150MOL    H1147989   7.741   2.226   3.198 -1.0097 -0.1733  0.0829
  150MOL    H1247990   7.703   2.215   3.024  2.1966 -1.2794  0.9278
  150MOL    H1347991   7.810   2.332   3.092 -0.3701  1.2796  1.7290
  150MOL    H1447992   7.695   2.507   3.246  1.9087  1.3444 -0.2728
  150MOL    H1547993   7.564   2.583   3.145  1.5794  1.3522 -0.3920
  150MOL    H1647994   7.712   2.537   3.072  0.0772 -0.9036 -0.0112
  150MOL    H1747995   7.339   2.047   3.242  0.5721 -0.2568  2.3470
  150MOL    C1847996   7.334   2.180   2.976  0.2056  0.2712 -0.6890
  150MOL    C1947997   7.397   2.192   2.832  0.0165  1.0043  0.3399
  150MOL    C2047998   7.282   2.200   2.728 -0.1233 -0.2756 -1.1869
  150MOL    O2147999   7.221   2.100   2.700 -0.9606  0.2224 -0.3986
  150MOL    N2248000   7.254   2.322   2.677 -0.1698  0.3451  0.0780
  150MOL    C2348001   7.157   2.326   2.564  0.0079 -0.0421 -0.1462
  150MOL    C2448002   7.312   2.447   2.714  0.0887 -0.9242 -0.3657
  150MOL    H2548003   7.291   2.081   2.994  1.3348  0.1861  1.6787
  150MOL    H2648004   7.251   2.250   2.982 -0.2479 -0.4137  1.7796
  150MOL    H2748005   7.455   2.284   2.842  1.6665 -0.3059  3.5281
  150MOL    H2848006   7.117   2.420   2.527 -3.2749 -1.0041  0.8337
  150MOL    H2948007   7.200   2.279   2.476  0.5830  0.0159  0.0955
  150MOL    H3048008   7.070   2.266   2.590 -1.6078  1.3761 -2.1719
  150MOL    H3148009   7.316   2.474   2.819  0.9966  0.8221 -0.8341
  150MOL    H3248010   7.259   2.524   2.657  1.2058 -0.8037 -1.2530
  150MOL    H3348011   7.414   2.456   2.677 -1.0668 -1.1836 -3.7895
  150MOL    C3448012   7.497   2.075   2.802 -0.4053 -0.3453  0.2417
  150MOL    C3548013   7.592   2.083   2.684 -0.1487 -0.2210 -0.0435
  150MOL    C3648014   7.685   2.215   2.694 -0.3204  0.6037 -0.0913
  150MOL    O3748015   7.639   2.306   2.629  0.4196 -0.6184 -0.3579
  150MOL    N3848016   7.798   2.219   2.776 -0.1261  0.0202  0.5696
  150MOL    C3948017   0.016   2.105   2.823 -1.4063 -0.0943 -0.1733
  150MOL    C4048018   0.012   2.347   2.786 -0.2421 -0.4724 -0.0010
  150MOL    H4148019   7.564   2.055   2.886  0.0862  1.0681  0.2044
  150MOL    H4248020   7.448   1.979   2.789 -0.0184 -0.4564 -0.4276
  150MOL    H4348021   7.665   2.003   2.698 -0.0963 -0.2802 -0.6330
  150MOL    H4448022   0.077   2.055   2.748 -2.1275  1.3767 -1.7827
  150MOL    H4548023   0.078   2.132   2.908 -0.9629 -0.7207 -0.2914
  150MOL    H4648024   7.800   2.032   2.864  0.1367 -2.5222 -1.7000
  150MOL    H4748025   0.094   2.343   2.858  0.2711 -1.9268 -0.6550
  150MOL    H4848026   7.808   2.436   2.812  0.4838  0.2923 -0.9977
  150MOL    H4948027   0.069   2.369   2.697 -0.1487 -1.3183 -0.1578
  150MOL    C5048028   7.526   2.070   2.550  0.0232  0.0898 -0.0273
  150MOL    C5148029   7.625   2.059   2.426  0.6680 -0.2772 -0.1420
  150MOL    C5248030   7.569   2.138   2.309  0.0865 -0.7042 -0.9193
  150MOL    O5348031   7.463   2.105   2.260 -0.1953 -0.0158  0.4236
  150MOL    N5448032   7.631   2.251   2.259 -0.3318 -0.1779 -0.1432
  150MOL    C5548033   7.773   2.285   2.276  0.3455  0.4286  0.2294
  150MOL    C5648034   7.568   2.349   2.174  0.1508  0.4249  0.1884
  150MOL    H5748035   7.479   1.972   2.554  0.1434  0.1009  3.0750
  150MOL    H5848036   7.455   2.150   2.532 -1.9061 -0.9349  2.7055
  150MOL    H5948037   7.720   2.106   2.451  1.1022  0.1950 -2.5915
  150MOL    H6048038   7.808   2.375   2.227  0.2365  1.0527  1.2825
  150MOL    H6148039   7.801   2.310   2.378  4.2046  1.0050 -0.8978
  150MOL    H6248040   7.837   2.203   2.245 -2.9960 -2.7715  1.4181
  150MOL    H6348041   7.464   2.319   2.161  0.9944 -2.2355 -0.7743
  150MOL    H6448042   7.609   2.354   2.073  0.2314 -1.3292  0.1188
  150MOL    H6548043   7.578   2.449   2.216  0.8316  0.7139 -0.6388
  150MOL    C6648044   7.666   1.914   2.389 -0.1289 -0.1794 -0.0921
  150MOL    C6748045   7.786   1.896   2.301  0.1603  0.4348  0.0243
  150MOL    C6848046   7.774   1.777   2.204  0.4088  0.1942  0.2018
  150MOL    O6948047   7.767   1.665   2.253  0.1632  0.3285 -0.6322
  150MOL    N7048048   7.759   1.808   2.068  0.4936  0.1632  0.3996
  150MOL    C7148049   7.737   1.694   1.974 -0.2252  0.5694 -0.0370
  150MOL    C7248050   7.753   1.946   2.015  0.3929 -0.4493 -0.6329
  150MOL    H7348051   7.678   1.855   2.481 -0.2225  0.7520  0.5206
  150MOL    H7448052   7.576   1.870   2.346 -0.4436  0.6222 -0.2548
  150MOL    H7548053   7.813   1.990   2.254 -1.7744  0.5637 -0.9061
  150MOL    H7648054   7.821   1.625   1.979 -0.8582 -0.3506 -1.5402
  150MOL    H7748055   7.642   1.645   1.994 -0.8521  0.5775 -2.7729
  150MOL    H7848056   7.736   1.723   1.869 -1.7951 -1.5199 -0.6296
  150MOL    H7948057   7.663   1.997   2.050 -0.5301 -0.9269 -2.2780
  150MOL    H8048058   7.748   1.946   1.906  0.6379 -1.4284 -0.6513
  150MOL    H8148059   7.838   2.006   2.046 -0.9050  2.0226 -1.6999
  150MOL    C8248060   0.065   1.869   2.385 -0.4142  0.7319 -0.0561
  150MOL    C8348061   0.198   1.853   2.300  1.1420  0.0106  0.5688
  150MOL    C8448062   0.299   1.767   2.383 -0.4061  0.2718  0.2525
  150MOL    O8548063   0.338   1.808   2.488  0.2518  0.5139 -0.5044
  150MOL    N8648064   0.346   1.649   2.343  0.3049  0.3394  0.0808
  150MOL    C8748065   0.457   1.580   2.412  0.3134  0.4008 -0.6015
  150MOL    C8848066   0.289   1.575   2.231  0.4465 -0.8334 -0.7469
  150MOL    H8948067   0.086   1.943   2.462  0.2512 -0.8818  1.3397
  150MOL    H9048068   0.053   1.776   2.441  1.0643  1.3305  1.2682
  150MOL    H9148069   0.181   1.799   2.208 -0.4722  0.9834  0.2845
  150MOL    H9248070   0.545   1.642   2.432  3.8434 -4.5378  0.3723
  150MOL    H9348071   0.424   1.515   2.493  0.1081 -1.0802 -1.8301
  150MOL    H9448072   0.504   1.505   2.347  1.2650 -0.1576  0.6871
  150MOL    H9548073   0.356   1.582   2.146  0.8987  3.4828 -0.1484
  150MOL    H9648074   0.190   1.588   2.187  0.9947 -1.4897 -2.1969
  150MOL    H9748075   0.298   1.468   2.247  1.0832 -0.6015  0.5867
  150MOL    C9848076   0.255   1.997   2.264 -0.7090 -0.6903 -0.4138
  150MOL    C9948077   0.338   2.012   2.135 -0.1218  0.8118 -0.6394
  150MOL   C10048078   0.453   1.917   2.126 -0.6139 -0.2832  0.6008
  150MOL   O10148079   0.539   1.929   2.211  0.0163 -0.5402 -0.3171
  150MOL   N10248080   0.467   1.825   2.028  0.6917  0.3776 -0.0596
  150MOL   C10348081   0.361   1.783   1.930 -0.9809  0.5995  0.0738
  150MOL   C10448082   0.591   1.766   1.992 -0.2303  0.5268 -0.2773
  150MOL   H10548083   0.178   2.073   2.255 -0.1973  0.1223  1.7497
  150MOL   H10648084   0.323   2.022   2.346  1.3206 -2.6980 -1.4294
  150MOL   H10748085   0.264   1.990   2.058  1.1519  0.4398 -1.7608
  150MOL   H10848086   0.379   1.694   1.870 -1.1792  0.9372 -0.4807
  150MOL   H10948087   0.270   1.758   1.985  0.3144  0.3054  2.1463
  150MOL   H11048088   0.335   1.858   1.856 -0.6918  1.6099  0.9796
  150MOL   H11148089   0.601   1.666   2.034 -0.0991  0.6631  0.0228
  150MOL   H11248090   0.671   1.816   2.047 -0.8238 -2.1879  3.2127
  150MOL   H11348091   0.599   1.764   1.884 -0.0238 -1.2101 -0.2419
  150MOL   C11448092   0.388   2.152   2.116 -0.0001  0.1171  0.3129
  150MOL   C11548093   0.489   2.183   1.997  0.2428  0.5060 -0.4772
  150MOL   C11648094   0.544   2.328   2.008  0.6112 -0.1334  0.7019
  150MOL   O11748095   0.485   2.416   1.938  0.9703 -0.2825  0.0416
  150MOL   N11848096   0.631   2.368   2.097 -0.2529  0.3470 -0.2653
  150MOL   C11948097   0.664   2.507   2.128  1.5113 -0.1382 -0.4753
  150MOL   C12048098   0.683   2.272   2.187  0.0842 -0.6286 -0.0031
  150MOL   H12148099   0.299   2.215   2.114  0.6030  0.9711  0.6928
  150MOL   H12248100   0.423   2.175   2.216  0.2980  0.4510  0.1306
  150MOL   H12348101   0.576   2.118   2.001 -1.8452 -2.3527  0.0752
  150MOL   H12448102   0.614   2.576   2.061 -1.6093 -2.0114 -0.1956
  150MOL   H12548103   0.634   2.558   2.220  0.1354  1.1770 -1.6398
  150MOL   H12648104   0.769   2.535   2.129  1.2353  0.9025  0.8767
  150MOL   H12748105   0.649   2.281   2.290  0.0962  2.5181 -0.2316
  150MOL   H12848106   0.787   2.302   2.189  0.4680 -1.7277 -2.0642
  150MOL   H12948107   0.696   2.167   2.158 -0.0697 -1.0847  1.5354
  150MOL   C13048108   0.414   2.165   1.865  0.5316 -0.4022  0.1592
  150MOL   C13148109   0.489   2.186   1.733  0.2208  0.1033  0.4116
  150MOL   C13248110   0.389   2.210   1.613 -0.1064  0.6779 -0.4021
  150MOL   O13348111   0.305   2.120   1.587 -0.4636 -0.3514 -0.1792
  150MOL   N13448112   0.399   2.322   1.540  0.0592 -0.1980  0.5019
  150MOL   C13548113   0.477   2.438   1.569  0.1293  0.2757 -0.5973
  150MOL   C13648114   0.315   2.326   1.420 -0.2336 -0.5390 -0.1713
  150MOL   H13748115   0.374   2.063   1.865 -1.9937  0.5377 -0.8387
  150MOL   H13848116   0.325   2.227   1.853  0.5095 -0.5455 -0.4807
  150MOL   H13948117   0.551   2.274   1.744 -1.0398  0.9817  0.5430
  150MOL   H14048118   0.428   2.526   1.528 -1.7812 -0.4830  0.0129
  150MOL   H14148119   0.491   2.443   1.677  3.7955 -1.2591 -0.9208
  150MOL   H14248120   0.583   2.436   1.545  0.7212 -0.8256  1.9050
  150MOL   H14348121   0.213   2.322   1.460 -0.3432 -1.4832 -0.5367
  150MOL   H14448122   0.339   2.254   1.342  0.0608  0.0897 -0.6618
  150MOL   H14548123   0.312   2.425   1.374 -1.4149  0.4112  1.8821
  150MOL   C14648124   0.581   2.057   1.700 -0.4304  0.1550  0.4574
  150MOL   C14748125   0.686   2.074   1.588  0.0189  0.8107 -0.2864
  150MOL   C14848126   0.728   1.930   1.547 -0.2730  0.1800  0.6083
  150MOL   O14948127   0.764   1.854   1.636  0.2475 -0.4898 -0.4208
  150MOL   N15048128   0.713   1.887   1.416 -0.2931  0.5949 -0.5589
  150MOL   C15148129   0.721   1.975   1.300 -0.1332 -0.5407  0.6230
  150MOL   C15248130   0.746   1.746   1.377 -0.2051  0.8570  0.0209
  150MOL   H15348131   0.634   2.036   1.793 -1.2160 -0.1349  0.8400
  150MOL   H15448132   0.513   1.973   1.689 -0.4454  0.1304  0.7571
  150MOL   H15548133   0.643   2.110   1.495  0.9488  0.0313 -1.0323
  150MOL   H15648134   0.629   1.959   1.243 -0.2145 -1.4354  0.9861
  150MOL   H15748135   0.728   2.083   1.313  0.0980 -0.4488 -0.2130
  150MOL   H15848136   0.787   1.942   1.219 -0.1210  0.9856 -0.0095
  150MOL   H15948137   0.690   1.712   1.290  1.5930  1.9329 -1.6215
  150MOL   H16048138   0.716   1.675   1.454  0.1679 -0.1114 -0.7037
  150MOL   H16148139   0.851   1.728   1.351 -0.6096 -1.3544 -0.1943
  150MOL   C16248140   0.805   2.165   1.610  0.2046  0.3025 -0.0970
  150MOL   C16348141   0.929   2.120   1.687 -0.3353 -0.1068  0.5931
  150MOL   C16448142   0.907   2.118   1.835  0.0541  1.0004  0.2749
  150MOL   O16548143   0.849   2.211   1.875  0.2897 -0.0317 -0.7566
  150MOL   N16648144   0.959   2.020   1.918 -0.2635 -0.2961  0.3653
  150MOL   C16748145   0.942   2.019   2.066 -0.4890  0.5437 -0.5505
  150MOL   C16848146   1.039   1.908   1.856  0.2376  0.5409 -0.2970
  150MOL   H16948147   0.844   2.181   1.510  0.6759 -0.1691  0.0096
  150MOL   H17048148   0.784   2.266   1.648 -1.3347  0.6020 -1.6339
  150MOL   H17148149   0.957   2.023   1.647 -1.0513  0.4988 -1.4303
  150MOL   H17248150   0.981   1.925   2.106 -1.1944  0.8304  0.8378
  150MOL   H17348151   1.011   2.085   2.118  3.4742 -0.4633 -4.2304
  150MOL   H17448152   0.836   2.011   2.088 -0.3614  0.3952  0.0177
  150MOL   H17548153   0.985   1.841   1.789 -1.1277  1.9229 -0.6376
  150MOL   H17648154   1.086   1.842   1.929 -4.0831  1.0035  3.0944
  150MOL   H17748155   1.126   1.945   1.802 -0.2535  1.2769 -0.5961
  150MOL   C17848156   1.049   2.210   1.658  0.2422  0.6288  0.3963
  150MOL   C17948157   1.119   2.192   1.516  0.4390  0.2151  0.1766
  150MOL   C18048158   1.155   2.042   1.487  0.0089  0.9006  0.3235
  150MOL   O18148159   1.208   1.979   1.581  0.1172 -0.0451 -1.2974
  150MOL   N18248160   1.120   1.983   1.369 -0.2551  0.2962  0.2702
  150MOL   C18348161   1.145   1.846   1.343 -0.0417  0.3999 -0.4154
  150MOL   C18448162   1.056   2.044   1.250  0.5982  0.3504  0.1973
  150MOL   H18548163   1.013   2.313   1.660  1.1506  0.9309  1.5287
  150MOL   H18648164   1.122   2.201   1.739 -0.5254 -0.7494  0.9558
  150MOL   H18748165   1.037   2.213   1.448 -0.6989 -1.3012  1.0550
  150MOL   H18848166   1.227   1.790   1.390 -0.5470 -0.7106 -0.8236
  150MOL   H18948167   1.057   1.788   1.370  1.3625 -0.2056  3.0810
  150MOL   H19048168   1.166   1.832   1.236 -2.9924  0.1586 -1.0048
  150MOL   H19148169   1.031   1.976   1.169  2.3600 -0.5489  0.3788
  150MOL   H19248170   1.132   2.108   1.205  1.4088 -0.9006 -0.2276
  150MOL   H19348171   0.967   2.106   1.264 -0.2974 -0.8791 -0.0256
  150MOL   C19448172   1.237   2.283   1.494  0.7328  0.2703 -1.0045
  150MOL   C19548173   1.202   2.439   1.480  0.4002  0.1833 -0.7130
  150MOL   C19648174   1.083   2.458   1.381 -0.8890  0.3017 -0.1757
  150MOL   O19748175   1.096   2.413   1.267  0.0415  0.0353  0.2992
  150MOL   N19848176   0.968   2.522   1.417 -0.0653 -0.1986 -0.1749
  150MOL   C19948177   0.944   2.581   1.550 -0.8322 -0.2604 -0.1388
  150MOL   C20048178   0.858   2.548   1.324 -0.1969 -0.1266  0.7864
  150MOL   H20148179   1.317   2.270   1.567 -0.9318 -3.7284  0.2413
  150MOL   H20248180   1.284   2.260   1.398 -0.1511  1.6137 -1.7735
  150MOL   H20348181   1.185   2.480   1.579 -2.7787 -0.1254 -1.0802
  150MOL   H20448182   0.853   2.640   1.556  0.4283  1.6120  1.1232
  150MOL   H20548183   0.918   2.498   1.616  1.1588 -1.7614 -1.1622
  150MOL   H20648184   1.028   2.642   1.584 -0.3211 -0.8784 -0.2786
  150MOL   H20748185   0.816   2.448   1.311 -0.7135  0.2372 -0.4320
  150MOL   H20848186   0.897   2.582   1.228 -1.5095  2.3118  1.0795
  150MOL   H20948187   0.774   2.612   1.352 -2.2533 -0.7899 -3.3537
  150MOL   C21048188   1.332   2.514   1.439  0.4437  0.4315  0.4264
  150MOL   C21148189   1.434   2.550   1.550  0.2261  0.0112 -0.1345
  150MOL   C21248190   1.428   2.704   1.566 -0.2405  0.9710 -0.2490
  150MOL   O21348191   1.469   2.777   1.473 -0.6860 -0.6018 -0.2385
  150MOL   N21448192   1.382   2.758   1.681  0.0102 -0.3776  0.0325
  150MOL   C21548193   1.376   2.906   1.694 -0.2042  0.1700  0.1247
  150MOL   C21648194   1.300   2.692   1.789 -0.1965 -0.1290  0.4267
  150MOL   H21748195   1.385   2.459   1.361  1.8486  1.5633  0.5630
  150MOL   H21848196   1.305   2.603   1.382  2.3837  2.2671  2.2865
  150MOL   H21948197   1.396   2.501   1.639  1.7966 -1.0624 -0.0256
  150MOL   H22048198   1.474   2.942   1.725  1.0691 -0.4195 -3.0489
  150MOL   H22148199   1.339   2.961   1.607  0.9134 -0.9777 -1.0912
  150MOL   H22248200   1.307   2.947   1.768  0.0634 -2.0622  1.6531
  150MOL   H22348201   1.211   2.642   1.751  1.0601 -0.7405 -1.8194
  150MOL   H22448202   1.263   2.758   1.867 -1.2331  2.3308 -2.0570
  150MOL   H22548203   1.360   2.609   1.826  1.0835  1.3836  1.8082
  150MOL   C22648204   1.576   2.499   1.519 -0.0423 -0.8084 -0.2009
  150MOL   C22748205   1.609   2.354   1.574  0.1279 -0.0635 -0.0122
  150MOL   C22848206   1.583   2.343   1.728  0.7849 -0.5292 -0.0886
  150MOL   O22948207   1.611   2.437   1.801  0.3537 -0.2915  0.0738
  150MOL   N23048208   1.516   2.239   1.788 -0.3900 -0.3738 -0.8314
  150MOL   C23148209   1.506   2.107   1.725  0.0429 -0.0493  0.8703
  150MOL   C23248210   1.485   2.249   1.929 -0.4911 -0.1472 -0.0649
  150MOL   H23348211   1.613   2.504   1.416  1.0342  1.1991  0.2562
  150MOL   H23448212   1.648   2.563   1.571  0.2255 -3.0427  2.2722
  150MOL   H23548213   1.542   2.283   1.526  1.5054 -1.7708  0.5154
  150MOL   H23648214   1.417   2.056   1.764  0.0406 -0.9581 -0.2817
  150MOL   H23748215   1.498   2.115   1.617 -1.0483  4.2551  1.1944
  150MOL   H23848216   1.600   2.056   1.746  1.0746  2.0047  1.3691
  150MOL   H23948217   1.410   2.177   1.960  1.4117 -1.2599  2.0356
  150MOL   H24048218   1.442   2.342   1.967  0.6368 -0.2022  1.3535
  150MOL   H24148219   1.565   2.226   1.998 -0.8576  1.3750  0.8901
  150MOL   C24248220   1.752   2.299   1.536 -0.1018 -1.0172 -0.7421
  150MOL   C24348221   1.754   2.230   1.403  0.1821  0.3844 -0.4490
  150MOL   C24448222   1.686   2.095   1.418  0.5257 -0.2138  0.8046
  150MOL   O24548223   1.724   2.019   1.508  0.6547 -0.2015  0.4133
  150MOL   N24648224   1.570   2.074   1.353 -0.1918 -0.2039  0.6709
  150MOL   C24748225   1.507   1.945   1.375  0.1041  0.4010 -0.0231
  150MOL   C24848226   1.495   2.166   1.269 -0.3852  0.3405 -0.4271
  150MOL   H24948227   1.812   2.390   1.548  2.2310 -2.4136 -1.4181
  150MOL   H25048228   1.794   2.231   1.610 -3.2902  1.0069  3.1210
  150MOL   H25148229   1.696   2.290   1.333  2.9477  1.5342 -1.7950
  150MOL   H25248230   1.525   1.917   1.479 -0.6498  1.5448  0.4114
  150MOL   H25348231   1.400   1.947   1.356 -0.0446 -0.0068  0.7564
  150MOL   H25448232   1.532   1.859   1.312 -2.0069 -0.5943  0.4488
  150MOL   H25548233   1.405   2.120   1.229 -1.1938 -0.6640  2.3810
  150MOL   H25648234   1.563   2.188   1.187 -1.8498  0.7338 -1.5707
  150MOL   H25748235   1.466   2.263   1.308 -0.4051  0.5346 -0.9188
  150MOL   C25848236   1.902   2.199   1.348 -0.3918 -0.3222 -0.1716
  150MOL   C25948237   2.008   2.315   1.359 -0.3898  0.5862  0.0232
  150MOL   C26048238   1.965   2.430   1.275 -0.0679 -0.2307  0.1513
  150MOL   O26148239   1.944   2.404   1.155 -0.2445  0.1877 -0.0204
  150MOL   N26248240   1.965   2.559   1.313  0.4461  0.2267  0.1044
  150MOL   C26348241   1.958   2.610   1.448  0.2741 -0.5317 -0.3974
  150MOL   C26448242   1.912   2.657   1.208 -0.2272  0.1194 -0.7914
  150MOL   H26548243   1.945   2.111   1.395 -1.7307 -0.8807  0.0124
  150MOL   H26648244   1.886   2.176   1.243  2.3477 -1.6213 -0.3563
  150MOL   H26748245   2.019   2.345   1.463 -1.6413 -0.3901  0.4524
  150MOL   H26848246   1.853   2.603   1.477  0.4954  3.5151  1.7571
  150MOL   H26948247   2.030   2.562   1.513  1.5033 -0.3774 -1.6057
  150MOL   H27048248   1.991   2.713   1.460 -0.6681 -0.4712  1.7956
  150MOL   H27148249   1.980   2.696   1.133  1.1368  1.0115  0.8642
  150MOL   H27248250   1.856   2.729   1.267 -0.0693 -0.7893  0.4993
  150MOL   H27348251   1.831   2.608   1.154  0.2388 -1.5576 -0.0139
  150MOL   C27448252   2.142   2.257   1.303 -0.0361 -0.1650 -0.1507
  150MOL   C27548253   2.262   2.357   1.300 -0.8160 -0.8784  0.2745
  150MOL   C27648254   2.360   2.309   1.198  0.2876 -0.1532  0.0811
  150MOL   O27748255   2.427   2.206   1.217 -0.2246 -0.4252 -0.3408
  150MOL   N27848256   2.369   2.372   1.079 -0.0050 -0.2040  0.7941
  150MOL   C27948257   2.474   2.331   0.987  0.1564  0.4673 -0.7661
  150MOL   C28048258   2.286   2.484   1.031 -0.5833  0.1576  0.4010
  150MOL   H28148259   2.173   2.174   1.367  4.0747  0.6035 -0.9887
  150MOL   H28248260   2.116   2.215   1.206 -2.1111  1.5119 -0.3383
  150MOL   H28348261   2.223   2.456   1.277 -0.2805 -0.4743  1.0730
  150MOL   H28448262   2.564   2.371   1.033  1.2106 -1.5009 -1.0205
  150MOL   H28548263   2.474   2.222   0.985  1.8886  0.4449 -0.2830
  150MOL   H28648264   2.474   2.375   0.887  1.0071  1.1719 -0.4566
  150MOL   H28748265   2.185   2.460   1.064 -0.1223  1.3414  2.7413
  150MOL   H28848266   2.292   2.505   0.924 -0.6050 -1.3405  0.0965
  150MOL   H28948267   2.317   2.575   1.083 -1.6294  0.5901  0.2683
  150MOL   C29048268   2.327   2.381   1.444  0.2101  0.0138 -0.1142
  150MOL   C29148269   2.452   2.473   1.449 -0.4768  0.6262  1.0203
  150MOL   C29248270   2.569   2.423   1.542 -0.3938 -0.7110 -0.0073
  150MOL   O29348271   2.548   2.413   1.663  0.2102  0.1657 -0.1022
  150MOL   N29448272   2.693   2.400   1.491 -0.2925  0.1299 -0.5441
  150MOL   C29548273   2.803   2.355   1.573  0.0904  0.2684 -0.4977
  150MOL   C29648274   2.722   2.398   1.346 -0.4367 -0.3385  0.0635
  150MOL   H29748275   2.252   2.429   1.507  0.0464 -0.1416 -0.1912
  150MOL   H29848276   2.357   2.279   1.466 -2.8508 -1.1634 -1.1679
  150MOL   H29948277   2.491   2.486   1.348 -1.0327  0.1444  0.7398
  150MOL   H30048278   2.807   2.246   1.578 -3.4962  0.0270 -1.5173
  150MOL   H30148279   2.900   2.396   1.546 -0.0278  0.4624 -0.6242
  150MOL   H30248280   2.780   2.380   1.676  1.8187 -2.9963  0.7544
  150MOL   H30348281   2.819   2.357   1.320  0.0831  2.1757 -2.1328
  150MOL   H30448282   2.737   2.503   1.323  0.7382 -0.7982 -1.3364
  150MOL   H30548283   2.643   2.357   1.282 -1.0919  0.1666  0.5479
  150MOL   C30648284   2.399   2.615   1.478  0.6733 -0.5484  0.1598
  150MOL   C30748285   2.510   2.722   1.488  0.5253 -0.4968  0.5960
  150MOL   C30848286   2.596   2.750   1.362  0.5202 -0.8735  0.1468
  150MOL   O30948287   2.538   2.725   1.260 -0.1296 -0.0405 -0.1968
  150MOL   N31048288   2.717   2.811   1.371 -0.0058  0.0014 -0.2796
  150MOL   C31148289   2.769   2.879   1.489  0.1084  0.4100 -0.0330
  150MOL   C31248290   2.807   2.836   1.260  0.2769 -0.0476 -0.6759
  150MOL   H31348291   2.332   2.638   1.396  2.3892  0.7172 -0.9114
  150MOL   H31448292   2.341   2.626   1.570  0.0948 -0.4536 -0.2115
  150MOL   H31548293   2.460   2.813   1.519  0.7833 -0.1563  0.0122
  150MOL   H31648294   2.695   2.870   1.569 -2.1754  1.2470 -1.9878
  150MOL   H31748295   2.873   2.856   1.509  0.0989  1.7316  1.6567
  150MOL   H31848296   2.771   2.983   1.459  0.6219  0.5489  0.4834
  150MOL   H31948297   2.911   2.807   1.274  0.9044  1.6077 -1.7372
  150MOL   H32048298   2.794   2.941   1.232  2.2860  0.3528 -0.1767
  150MOL   H32148299   2.783   2.772   1.175 -1.4671  0.8347 -0.8777
  150MOL   H32248300   2.574   2.680   1.565  0.3354 -0.2233  0.9031
  151MOL     C148301   6.103   5.977   3.879  0.7667 -0.4421 -0.2514
  151MOL     C248302   6.044   5.959   4.022 -0.7304  0.0507 -0.9077
  151MOL     C348303   5.940   6.067   4.053 -0.2600 -0.0695  0.1521
  151MOL     O448304   5.974   6.176   4.101 -0.2453 -0.5669  0.1586
  151MOL     N548305   5.810   6.046   4.031 -0.5021 -0.1340  0.2145
  151MOL     C648306   5.708   6.153   4.057 -0.2381 -0.5118 -0.0940
  151MOL     C748307   5.756   5.919   3.978 -0.5794 -0.2003  0.0238
  151MOL     H848308   6.161   5.891   3.845  1.8779 -0.4800  1.6618
  151MOL     H948309   6.151   6.075   3.869  2.7536 -1.2552  1.0354
  151MOL    H1048310   5.998   5.861   4.027  0.8110 -0.7351 -1.6374
  151MOL    H1148311   5.761   6.248   4.048  2.0578 -1.8122 -0.6315
  151MOL    H1248312   5.624   6.156   3.987 -0.7460 -0.5674  0.5147
  151MOL    H1348313   5.668   6.154   4.158  1.7949 -1.3342  0.7482
  151MOL    H1448314   5.801   5.895   3.882  0.0827  3.9125 -0.8022
  151MOL    H1548315   5.650   5.924   3.954 -0.3542 -1.6460 -1.2997
  151MOL    H1648316   5.777   5.838   4.048  0.8650  0.1765  0.0541
  151MOL    H1748317   6.021   5.994   3.809  2.7244 -0.8094 -2.7128
  151MOL    C1848318   6.161   5.960   4.120  0.3362  0.5022 -0.5052
  151MOL    C1948319   6.251   5.842   4.110 -0.2922  0.1948  0.6118
  151MOL    C2048320   6.182   5.706   4.136  0.2725  0.1724 -0.3109
  151MOL    O2148321   6.100   5.703   4.231 -0.0880  0.0266  0.2763
  151MOL    N2248322   6.208   5.593   4.055 -0.0456 -0.1749  0.2066
  151MOL    C2348323   6.129   5.473   4.074  0.0285 -0.2625  0.0080
  151MOL    C2448324   6.315   5.578   3.959 -0.1687  0.4952 -1.1934
  151MOL    H2548325   6.210   6.056   4.100  1.6334 -0.1016 -0.2801
  151MOL    H2648326   6.127   5.966   4.224 -1.0717  0.6259 -0.9694
  151MOL    H2748327   6.291   5.836   4.009 -0.5761  1.9779  0.3800
  151MOL    H2848328   6.126   5.417   3.981 -0.2287 -0.8524  0.3741
  151MOL    H2948329   6.187   5.408   4.139  2.8421  2.5181  0.4159
  151MOL    H3048330   6.029   5.497   4.110 -1.0152 -0.9647 -2.3456
  151MOL    H3148331   6.293   5.512   3.875 -0.2527  1.7159 -2.1342
  151MOL    H3248332   6.402   5.519   3.990 -1.0295 -0.7369 -1.0777
  151MOL    H3348333   6.360   5.666   3.913 -1.6869  0.3704 -2.9706
  151MOL    C3448334   6.380   5.854   4.200 -0.3956  0.7588 -0.0213
  151MOL    C3548335   6.366   5.875   4.354 -0.6714  0.5206  1.1060
  151MOL    C3648336   6.350   6.022   4.406 -0.1772  0.7271 -0.2694
  151MOL    O3748337   6.435   6.106   4.379 -0.2194  0.2090  0.3877
  151MOL    N3848338   6.248   6.056   4.486  0.2631  0.2713  0.2664
  151MOL    C3948339   6.142   5.959   4.528  0.6401 -0.2448  0.3559
  151MOL    C4048340   6.238   6.199   4.536  0.3237 -0.0904  0.1918
  151MOL    H4148341   6.454   5.778   4.174  1.6762  2.3281  1.0655
  151MOL    H4248342   6.435   5.941   4.163 -0.0195  0.1568 -0.9071
  151MOL    H4348343   6.277   5.821   4.387 -0.4557  0.6429  1.9022
  151MOL    H4448344   6.071   5.913   4.459 -0.0365  1.1364  0.1083
  151MOL    H4548345   6.179   5.881   4.593  2.2002  0.0285 -0.1769
  151MOL    H4648346   6.084   6.024   4.594  0.0242  0.7928 -1.1618
  151MOL    H4748347   6.285   6.203   4.634  0.6462  0.3431  0.0202
  151MOL    H4848348   6.138   6.237   4.555 -0.7202 -2.2943 -0.7025
  151MOL    H4948349   6.279   6.270   4.464  0.6577 -1.3720 -0.9154
  151MOL    C5048350   6.486   5.803   4.427 -0.0159  0.2410 -0.1083
  151MOL    C5148351   6.489   5.646   4.407 -0.3387  0.8591 -0.3688
  151MOL    C5248352   6.363   5.584   4.472 -0.2208 -0.1219  0.2871
  151MOL    O5348353   6.303   5.652   4.556 -0.6395  0.0275 -0.2723
  151MOL    N5448354   6.313   5.465   4.435  0.2083  0.1576  0.1160
  151MOL    C5548355   6.182   5.419   4.479 -0.4813  0.0025  0.1643
  151MOL    C5648356   6.378   5.376   4.338 -0.0891  0.0538 -0.8765
  151MOL    H5748357   6.575   5.844   4.380  1.4058 -4.1827 -1.4686
  151MOL    H5848358   6.487   5.830   4.532 -0.0405 -1.6746  0.3940
  151MOL    H5948359   6.490   5.615   4.302 -1.3854  0.0532 -0.1495
  151MOL    H6048360   6.113   5.462   4.406 -0.3367 -0.4322 -0.2211
  151MOL    H6148361   6.170   5.311   4.472 -0.3650 -0.0472  0.7340
  151MOL    H6248362   6.160   5.453   4.581  0.6277 -0.6938  0.6373
  151MOL    H6348363   6.421   5.440   4.261 -1.6517  1.4096 -0.6364
  151MOL    H6448364   6.314   5.302   4.290  0.6572 -1.5775  0.5826
  151MOL    H6548365   6.462   5.336   4.396 -0.7019  1.1279  0.7772
  151MOL    C6648366   6.614   5.591   4.467 -0.1125  0.1587 -0.0411
  151MOL    C6748367   6.641   5.609   4.620  0.1831  0.1907 -0.3353
  151MOL    C6848368   6.761   5.708   4.646  0.6212 -0.3339  0.3049
  151MOL    O6948369   6.869   5.677   4.600 -0.0914  0.0881 -0.1710
  151MOL    N7048370   6.746   5.818   4.724  0.4027  0.3576 -0.1616
  151MOL    C7148371   6.621   5.877   4.782 -0.0155  0.2470 -0.0402
  151MOL    C7248372   6.869   5.898   4.750  0.5164 -1.0152 -0.0736
  151MOL    H7348373   6.617   5.485   4.440  3.6051 -0.0755  0.9479
  151MOL    H7448374   6.704   5.632   4.421  0.6506 -2.4978 -1.0522
  151MOL    H7548375   6.551   5.665   4.646  1.1802  1.2139  1.0196
  151MOL    H7648376   6.537   5.809   4.797  0.0115  0.4529  1.0737
  151MOL    H7748377   6.643   5.908   4.884 -0.9032 -1.1727  0.6033
  151MOL    H7848378   6.582   5.954   4.716  0.2358  1.5921  1.3702
  151MOL    H7948379   6.955   5.842   4.787  0.8280  0.7433  1.9537
  151MOL    H8048380   6.846   5.971   4.828  0.4373  0.1262 -1.1395
  151MOL    H8148381   6.902   5.948   4.659  1.1044  1.4777  1.4539
  151MOL    C8248382   6.632   5.480   4.709  0.4440 -0.3576 -0.1092
  151MOL    C8348383   6.756   5.388   4.701 -0.3207 -0.9433  0.0051
  151MOL    C8448384   6.733   5.275   4.598  0.2084 -0.2991 -1.2763
  151MOL    O8548385   6.620   5.220   4.608 -0.2053 -0.0740 -0.6718
  151MOL    N8648386   6.829   5.233   4.518  0.0200  0.2718 -0.6596
  151MOL    C8748387   6.804   5.146   4.408 -0.1882 -0.6091  0.0524
  151MOL    C8848388   6.967   5.283   4.529 -0.3798  0.8797  0.0790
  151MOL    H8948389   6.602   5.510   4.809 -2.2639 -0.1043 -0.9793
  151MOL    H9048390   6.537   5.436   4.680  0.0521  0.8654 -0.6876
  151MOL    H9148391   6.849   5.442   4.681 -1.1927  0.6662  0.2629
  151MOL    H9248392   6.734   5.193   4.338 -0.4406  1.5467  1.6969
  151MOL    H9348393   6.892   5.117   4.352 -0.1902  1.2592 -0.9472
  151MOL    H9448394   6.753   5.055   4.442 -0.2611 -0.5877  0.0024
  151MOL    H9548395   7.013   5.280   4.628  2.7578 -0.4682 -1.3453
  151MOL    H9648396   6.972   5.388   4.499 -0.4392  1.6236  2.4993
  151MOL    H9748397   7.038   5.228   4.468 -0.1003 -0.3439  1.4586
  151MOL    C9848398   6.775   5.320   4.838  0.1146  0.5134 -0.6693
  151MOL    C9948399   6.816   5.409   4.959 -0.0932  0.3681  0.1143
  151MOL   C10048400   6.970   5.438   4.952  1.0187  0.4429 -0.3126
  151MOL   O10148401   7.045   5.339   4.931  0.4784  0.1264 -0.4442
  151MOL   N10248402   7.022   5.563   4.970 -0.4675  0.6191 -0.2806
  151MOL   C10348403   6.945   5.673   5.027  0.1213  0.3687 -0.5064
  151MOL   C10448404   7.159   5.592   4.931  0.4132 -0.8007 -0.1020
  151MOL   H10548405   6.680   5.272   4.863  1.1762 -1.0957  0.3940
  151MOL   H10648406   6.831   5.228   4.828 -0.5682 -0.2974  2.4206
  151MOL   H10748407   6.761   5.503   4.955 -0.6081  0.0742  0.3151
  151MOL   H10848408   7.012   5.743   5.078 -0.0956 -0.4509  0.9141
  151MOL   H10948409   6.885   5.726   4.952 -2.7045 -0.3076  1.2041
  151MOL   H11048410   6.874   5.634   5.100  2.5797 -0.8711  1.2852
  151MOL   H11148411   7.180   5.699   4.933 -0.5170 -0.5912 -1.3495
  151MOL   H11248412   7.183   5.568   4.827 -0.5967  0.7562 -0.7105
  151MOL   H11348413   7.235   5.553   4.999  0.4103 -0.9004 -0.1546
  151MOL   C11448414   6.777   5.330   5.089  0.1916  0.2266 -0.2271
  151MOL   C11548415   6.623   5.343   5.116 -0.3593  0.0446  0.4783
  151MOL   C11648416   6.599   5.460   5.216  0.1103  0.0527  0.0337
  151MOL   O11748417   6.663   5.462   5.322  0.3325  0.0648  0.6014
  151MOL   N11848418   6.533   5.569   5.183  0.3196  0.4235 -0.5174
  151MOL   C11948419   6.494   5.667   5.285 -0.7902  0.1045 -0.2249
  151MOL   C12048420   6.484   5.612   5.053  0.2884  0.5303  0.2037
  151MOL   H12148421   6.812   5.227   5.088 -0.1763  0.1145 -1.4169
  151MOL   H12248422   6.831   5.378   5.171 -1.3523  0.9600  0.3754
  151MOL   H12348423   6.569   5.369   5.024 -1.0252  2.8724  1.6339
  151MOL   H12448424   6.518   5.768   5.252  0.9178 -0.3268 -0.3341
  151MOL   H12548425   6.386   5.654   5.295 -0.2816 -3.3651  1.0770
  151MOL   H12648426   6.541   5.658   5.383  1.0246 -0.5813 -1.1329
  151MOL   H12748427   6.440   5.526   5.002 -0.6352  0.3433  1.3128
  151MOL   H12848428   6.565   5.651   4.990 -0.4307 -1.1961 -1.8856
  151MOL   H12948429   6.403   5.684   5.063 -0.0658  0.3092 -1.0038
  151MOL   C13048430   6.567   5.210   5.172 -0.0085  1.0630 -0.5376
  151MOL   C13148431   6.548   5.095   5.074  0.0552 -0.1442 -0.0236
  151MOL   C13248432   6.437   5.106   4.965  0.0911 -0.8234 -0.3251
  151MOL   O13348433   6.338   5.161   5.003  0.4396 -0.1783 -0.2694
  151MOL   N13448434   6.447   5.066   4.838  0.3893  0.2383 -0.7268
  151MOL   C13548435   6.556   4.973   4.798 -0.7539 -0.1477  0.4315
  151MOL   C13648436   6.344   5.107   4.739 -0.4214  0.3333  0.2796
  151MOL   H13748437   6.644   5.173   5.240 -0.9639 -0.6576 -0.3669
  151MOL   H13848438   6.480   5.227   5.234  0.9841 -0.1863  1.2436
  151MOL   H13948439   6.638   5.083   5.014 -1.1800  0.0515 -1.9571
  151MOL   H14048440   6.553   4.963   4.689  0.9707  4.6169 -0.2006
  151MOL   H14148441   6.657   4.995   4.832  0.1107  0.5569 -2.4373
  151MOL   H14248442   6.535   4.877   4.844 -0.9595 -1.8178 -2.9613
  151MOL   H14348443   6.334   5.216   4.747  2.4741  0.6401  0.2728
  151MOL   H14448444   6.256   5.043   4.747  0.9626 -1.3740  1.9706
  151MOL   H14548445   6.384   5.097   4.638 -1.7937 -1.8110 -0.0694
  151MOL   C14648446   6.522   4.968   5.161  0.1122 -0.4141  0.7960
  151MOL   C14748447   6.642   4.900   5.237  0.3125 -0.3442 -0.5922
  151MOL   C14848448   6.755   4.873   5.137  0.8168  0.2739  0.0741
  151MOL   O14948449   6.724   4.836   5.024  0.1255 -0.0593  0.0337
  151MOL   N15048450   6.885   4.868   5.174 -0.6117  0.6259  0.2467
  151MOL   C15148451   6.931   4.900   5.309  0.6332  0.0125 -0.0611
  151MOL   C15248452   6.991   4.843   5.076 -0.3088  0.5750  0.6055
  151MOL   H15348453   6.466   4.997   5.250 -1.3513 -0.4039 -0.1106
  151MOL   H15448454   6.451   4.901   5.113  2.5304 -2.5480  0.1156
  151MOL   H15548455   6.678   4.983   5.297  1.0233 -1.6387  0.8340
  151MOL   H15648456   7.038   4.880   5.315  0.4727 -0.1733  2.5488
  151MOL   H15748457   6.914   5.006   5.326  2.6040  0.7336 -2.2484
  151MOL   H15848458   6.888   4.839   5.388  1.1469 -3.1591 -2.1366
  151MOL   H15948459   7.087   4.893   5.095  1.3189 -1.9361 -0.7685
  151MOL   H16048460   6.958   4.884   4.981  1.3941  0.0052 -0.2471
  151MOL   H16148461   7.014   4.737   5.063  0.3156  0.6067  1.4093
  151MOL   C16248462   6.600   4.777   5.322  0.1270 -0.4901 -0.4951
  151MOL   C16348463   6.507   4.810   5.446 -0.8513  0.7269  0.8133
  151MOL   C16448464   6.589   4.893   5.549  0.6413 -0.0397 -0.0367
  151MOL   O16548465   6.705   4.865   5.570 -0.2554 -0.4343  0.4171
  151MOL   N16648466   6.535   4.995   5.619  0.4018 -0.4203 -0.1456
  151MOL   C16748467   6.609   5.050   5.737  0.1255 -0.0095  0.9688
  151MOL   C16848468   6.388   5.031   5.612  0.1598 -0.4869  0.0492
  151MOL   H16948469   6.546   4.710   5.255 -0.4340 -0.0867 -0.4483
  151MOL   H17048470   6.681   4.716   5.363 -0.6426 -0.1117  1.6350
  151MOL   H17148471   6.420   4.871   5.422 -1.3088 -0.3680 -0.3382
  151MOL   H17248472   6.655   4.968   5.792  0.4253 -0.5502 -0.0795
  151MOL   H17348473   6.673   5.127   5.696 -2.2328  0.9512 -1.0454
  151MOL   H17448474   6.543   5.103   5.806 -0.3356 -0.9283  1.2452
  151MOL   H17548475   6.356   5.090   5.527  0.3029 -0.9624 -0.3400
  151MOL   H17648476   6.354   5.087   5.699 -0.6702  2.0588 -1.8813
  151MOL   H17748477   6.331   4.938   5.604 -0.8754  0.0429  1.1051
  151MOL   C17848478   6.436   4.685   5.499  0.5343  0.9923 -0.3737
  151MOL   C17948479   6.516   4.606   5.605  0.5817  0.9458 -0.2165
  151MOL   C18048480   6.476   4.448   5.589 -0.5877 -0.2266  0.6184
  151MOL   O18148481   6.357   4.420   5.564  0.2368  0.3204  0.7807
  151MOL   N18248482   6.577   4.357   5.584 -0.4555  0.4860 -0.4471
  151MOL   C18348483   6.698   4.361   5.662 -0.6458 -0.2442 -0.0152
  151MOL   C18448484   6.552   4.225   5.530 -0.6719 -0.2864  0.1238
  151MOL   H18548485   6.339   4.720   5.536  1.4527  1.3292  1.7605
  151MOL   H18648486   6.415   4.621   5.413 -1.4295  0.8158  0.1949
  151MOL   H18748487   6.618   4.621   5.570 -0.4182  2.0690 -2.7933
  151MOL   H18848488   6.751   4.267   5.678 -1.1657 -0.5754 -0.2453
  151MOL   H18948489   6.760   4.446   5.633 -2.0268  1.7819  2.7219
  151MOL   H19048490   6.676   4.378   5.767 -0.0756 -2.0606  0.4263
  151MOL   H19148491   6.493   4.179   5.609 -1.1619 -1.3899 -0.8619
  151MOL   H19248492   6.641   4.161   5.528  0.3440  1.0743  0.6353
  151MOL   H19348493   6.501   4.238   5.434 -2.6483 -2.2857  0.8576
  151MOL   C19448494   6.511   4.636   5.756  0.3201 -0.3401  0.0048
  151MOL   C19548495   6.390   4.588   5.847 -0.2155 -0.2618  0.1865
  151MOL   C19648496   6.260   4.652   5.814  0.1916  0.0885 -0.6453
  151MOL   O19748497   6.251   4.779   5.809 -0.4903 -0.1164  0.4620
  151MOL   N19848498   6.152   4.577   5.803  0.2089  0.0276  0.0933
  151MOL   C19948499   6.026   4.634   5.756  0.6038 -0.3851 -0.3390
  151MOL   C20048500   6.136   4.431   5.812  0.1502  0.8126 -0.1208
  151MOL   H20148501   6.596   4.586   5.803  0.1142 -1.7774 -1.1197
  151MOL   H20248502   6.519   4.745   5.758 -1.0058 -0.2059 -1.1821
  151MOL   H20348503   6.386   4.479   5.836  0.6589 -0.1968 -0.9220
  151MOL   H20448504   6.040   4.713   5.682 -2.0283  1.3022  0.8908
  151MOL   H20548505   5.946   4.571   5.718 -1.1767  1.0609  0.9708
  151MOL   H20648506   5.983   4.691   5.838 -0.6813 -0.8225 -0.7051
  151MOL   H20748507   6.167   4.401   5.712 -0.0442  0.2142 -0.0015
  151MOL   H20848508   6.033   4.402   5.830  0.0846  0.0622 -1.6358
  151MOL   H20948509   6.195   4.369   5.880  0.2487  0.0271 -0.9203
  151MOL   C21048510   6.415   4.603   6.000  0.4705 -1.1478  0.0914
  151MOL   C21148511   6.516   4.508   6.074  0.6273  0.0212  0.3994
  151MOL   C21248512   6.473   4.356   6.068  0.1144  0.1563  0.9944
  151MOL   O21348513   6.355   4.331   6.088 -0.2298 -0.1665 -0.3266
  151MOL   N21448514   6.559   4.268   6.024 -0.2923  0.4138 -0.2276
  151MOL   C21548515   6.515   4.151   5.955 -0.0829  0.9523 -0.3706
  151MOL   C21648516   6.705   4.282   6.034  0.1660  0.0249 -0.0672
  151MOL   H21748517   6.425   4.709   6.024  2.3482 -1.4436  0.6853
  151MOL   H21848518   6.316   4.588   6.043 -0.7355  1.8009 -1.5184
  151MOL   H21948519   6.609   4.518   6.018 -0.1543  1.1637 -0.7122
  151MOL   H22048520   6.597   4.094   5.912  1.0891  1.3528  1.2730
  151MOL   H22148521   6.465   4.084   6.025 -3.8021  0.1846 -3.5457
  151MOL   H22248522   6.446   4.186   5.878 -0.7806 -0.7486 -0.5390
  151MOL   H22348523   6.748   4.182   6.037 -0.5420 -0.2365  1.6508
  151MOL   H22448524   6.738   4.337   6.123 -0.1375 -0.4545  0.3419
  151MOL   H22548525   6.748   4.328   5.945  0.3592 -1.0439 -0.5254
  151MOL   C22648526   6.549   4.556   6.216 -0.9159 -0.3189  0.0430
  151MOL   C22748527   6.658   4.675   6.216 -0.0141 -0.3649  0.7415
  151MOL   C22848528   6.800   4.620   6.171  0.6229  0.0263  0.1154
  151MOL   O22948529   6.844   4.520   6.227  0.4521 -0.1803 -0.1752
  151MOL   N23048530   6.880   4.681   6.083  0.4524  0.9210  0.2363
  151MOL   C23148531   6.828   4.789   6.013 -0.1736 -0.3340  0.1055
  151MOL   C23248532   7.013   4.632   6.054 -0.2729 -0.0945 -0.8314
  151MOL   H23348533   6.455   4.589   6.260 -0.6085  0.8706 -0.1624
  151MOL   H23448534   6.580   4.470   6.275 -1.5473  0.0794  0.9750
  151MOL   H23548535   6.613   4.752   6.153 -0.6859 -0.2960  1.2949
  151MOL   H23648536   6.749   4.755   5.946 -0.4693  0.3895  0.0821
  151MOL   H23748537   6.802   4.877   6.072 -2.0840 -0.5953 -0.2957
  151MOL   H23848538   6.906   4.828   5.948 -0.7677  1.7792  0.5913
  151MOL   H23948539   7.072   4.721   6.029 -0.6227  1.1880  2.5778
  151MOL   H24048540   7.007   4.567   5.967 -0.6446  1.8459 -2.2834
  151MOL   H24148541   7.065   4.583   6.136  0.7185  0.5206 -1.0856
  151MOL   C24248542   6.670   4.715   6.366  0.1913 -0.2945 -0.5647
  151MOL   C24348543   6.774   4.822   6.409  0.2906 -0.6809  1.0379
  151MOL   C24448544   6.816   4.793   6.554 -0.2627  0.1210 -1.0702
  151MOL   O24548545   6.728   4.780   6.640 -0.5379 -0.6886  0.2398
  151MOL   N24648546   6.949   4.764   6.587 -0.2796 -0.1310  0.5174
  151MOL   C24748547   7.053   4.790   6.495 -0.0877  0.2444 -0.3362
  151MOL   C24848548   6.989   4.729   6.724 -0.3845 -1.0617  0.1363
  151MOL   H24948549   6.572   4.752   6.396  0.8720 -0.3925  1.9184
  151MOL   H25048550   6.696   4.621   6.416 -2.0130 -2.2136 -2.8793
  151MOL   H25148551   6.863   4.807   6.348 -2.8918 -0.4603 -3.9320
  151MOL   H25248552   7.063   4.722   6.410 -0.5331  1.7721 -1.6439
  151MOL   H25348553   7.043   4.887   6.446  1.1988  0.5927  0.0778
  151MOL   H25448554   7.153   4.807   6.536 -0.0656  1.7369 -0.9712
  151MOL   H25548555   7.093   4.704   6.745  0.0628  0.2607 -0.4463
  151MOL   H25648556   6.920   4.659   6.769 -0.6517 -0.7127  0.2697
  151MOL   H25748557   6.968   4.819   6.782 -0.8120 -0.8817 -0.2953
  151MOL   C25848558   6.724   4.963   6.381 -0.4219 -0.0889  0.0106
  151MOL   C25948559   6.637   5.054   6.477  0.3349  0.8158  0.0328
  151MOL   C26048560   6.485   5.027   6.454 -0.5647 -0.0556 -0.1694
  151MOL   O26148561   6.431   5.040   6.347 -0.1999 -0.1901  0.4017
  151MOL   N26248562   6.404   5.000   6.560 -0.0032  0.0217 -0.0259
  151MOL   C26348563   6.260   4.968   6.537  0.3248  0.1427 -0.3501
  151MOL   C26448564   6.450   4.992   6.704 -0.4076  0.1328 -0.4843
  151MOL   H26548565   6.819   5.017   6.379 -0.2153 -0.4614 -0.7823
  151MOL   H26648566   6.687   4.966   6.278  1.3151 -2.0004 -0.7156
  151MOL   H26748567   6.663   5.025   6.580  1.7965 -1.0845 -0.8313
  151MOL   H26848568   6.212   5.031   6.462 -1.5284 -1.4857 -0.5748
  151MOL   H26948569   6.250   4.866   6.497  1.3763 -0.4201  0.8122
  151MOL   H27048570   6.194   4.964   6.623  2.0357  0.8399  1.0128
  151MOL   H27148571   6.373   4.935   6.757 -0.4602  0.2407 -0.4455
  151MOL   H27248572   6.471   5.090   6.745 -1.9837 -0.2700  1.3499
  151MOL   H27348573   6.535   4.924   6.709  1.0000  1.7668 -1.6620
  151MOL   C27448574   6.666   5.205   6.464  0.4103  0.1251  0.1930
  151MOL   C27548575   6.764   5.254   6.579 -0.4309  0.4502  0.4044
  151MOL   C27648576   6.687   5.279   6.711  0.3736 -0.0246 -0.4353
  151MOL   O27748577   6.571   5.318   6.704  0.0377 -0.2328  0.2881
  151MOL   N27848578   6.742   5.238   6.833  0.0295 -0.3127  0.3244
  151MOL   C27948579   6.885   5.234   6.858 -0.8126  0.1316  0.2913
  151MOL   C28048580   6.658   5.258   6.945 -1.2514 -0.2380  0.2484
  151MOL   H28148581   6.695   5.236   6.364  1.3854 -2.0868 -0.2280
  151MOL   H28248582   6.585   5.278   6.473 -0.2561 -0.8936  3.2153
  151MOL   H28348583   6.846   5.186   6.602 -1.5419 -0.5623  1.4640
  151MOL   H28448584   6.936   5.154   6.804  1.3633  1.2788  0.5837
  151MOL   H28548585   6.930   5.328   6.826  0.4224 -0.1556  1.1240
  151MOL   H28648586   6.920   5.219   6.960  0.2205  2.8587  0.3997
  151MOL   H28748587   6.553   5.234   6.929 -1.1938  0.8608 -2.0681
  151MOL   H28848588   6.663   5.365   6.967 -2.5200 -0.6542  2.7156
  151MOL   H28948589   6.702   5.206   7.030  2.8170  0.2728 -1.3916
  151MOL   C29048590   6.832   5.389   6.542  0.2840  0.6592  0.0546
  151MOL   C29148591   6.970   5.377   6.468 -0.3987 -0.0509  0.6189
  151MOL   C29248592   7.028   5.513   6.458  0.1374 -0.2498 -0.0191
  151MOL   O29348593   6.974   5.588   6.379 -0.1651  0.0529  0.0330
  151MOL   N29448594   7.136   5.553   6.528 -0.1067 -0.4055 -0.0382
  151MOL   C29548595   7.173   5.480   6.647 -0.0545  0.0239  0.4046
  151MOL   C29648596   7.196   5.682   6.504  0.5497  0.8745  0.4281
  151MOL   H29748597   6.757   5.448   6.489  1.2644 -0.1915 -2.3434
  151MOL   H29848598   6.857   5.441   6.634  2.3396 -1.4022  0.6924
  151MOL   H29948599   7.025   5.316   6.539 -1.4193 -0.8824  0.7018
  151MOL   H30048600   7.254   5.541   6.688  0.9402 -1.0099  0.0144
  151MOL   H30148601   7.095   5.466   6.722 -1.6656 -0.1648 -1.2753
  151MOL   H30248602   7.224   5.384   6.636 -1.6905 -0.9462  1.1783
  151MOL   H30348603   7.142   5.767   6.545 -0.1516  1.4279 -1.5930
  151MOL   H30448604   7.199   5.689   6.395 -1.1710  0.1962  0.3224
  151MOL   H30548605   7.302   5.689   6.528  0.5232  1.5684  0.3572
  151MOL   C30648606   6.957   5.312   6.324  0.0649 -0.1374 -0.0983
  151MOL   C30748607   7.102   5.292   6.259  0.0778 -0.0583 -0.8515
  151MOL   C30848608   7.199   5.198   6.336 -0.4002 -0.0205 -0.4114
  151MOL   O30948609   7.150   5.120   6.414 -0.3479 -0.0826  0.0338
  151MOL   N31048610   7.331   5.223   6.329 -0.3090  0.2564 -0.0226
  151MOL   C31148611   7.389   5.301   6.221  0.3358 -0.4897 -0.1955
  151MOL   C31248612   7.426   5.156   6.413 -0.3299  0.6692  0.0257
  151MOL   H31348613   6.894   5.223   6.332  1.7783 -1.3577  0.3181
  151MOL   H31448614   6.890   5.374   6.266  0.1806  2.5489  2.5018
  151MOL   H31548615   7.078   5.256   6.159  1.2331 -1.1600 -0.7482
  151MOL   H31648616   7.333   5.302   6.128  1.3805 -2.4555 -0.8711
  151MOL   H31748617   7.403   5.397   6.271  2.3399 -1.6020  1.4610
  151MOL   H31848618   7.486   5.257   6.194  1.8572  0.5557  3.2620
  151MOL   H31948619   7.527   5.198   6.409 -0.2172  0.3700 -0.2957
  151MOL   H32048620   7.426   5.050   6.391  2.8500  0.9363 -1.5692
  151MOL   H32148621   7.391   5.181   6.513  0.6546 -2.2352  1.1393
  151MOL   H32248622   7.158   5.384   6.243  0.3864 -0.3470 -1.4603
  152MOL     C148623   2.752   4.383   3.566 -0.3827 -0.2530  0.7380
  152MOL     C248624   2.803   4.519   3.615  0.2959 -0.8545  0.2826
  152MOL     C348625   2.702   4.638   3.608 -0.4095 -0.5111 -0.8763
  152MOL     O448626   2.718   4.723   3.520 -0.0386 -0.5989 -0.4121
  152MOL     N548627   2.596   4.647   3.693  0.2905 -0.3848 -0.2536
  152MOL     C648628   2.488   4.753   3.669  0.4606  0.5612 -0.6996
  152MOL     C748629   2.572   4.559   3.804 -0.2125  0.1134 -0.4929
  152MOL     H848630   2.723   4.320   3.650  1.6611  1.5626  2.8530
  152MOL     H948631   2.824   4.317   3.519 -0.1388  0.2931  0.3340
  152MOL    H1048632   2.835   4.515   3.719  0.7672 -0.3478  0.1604
  152MOL    H1148633   2.442   4.785   3.762  0.3824  0.7086 -0.7894
  152MOL    H1248634   2.529   4.848   3.635  0.8339  0.3522 -0.8479
  152MOL    H1348635   2.419   4.713   3.595  0.3224 -2.1133  0.8074
  152MOL    H1448636   2.467   4.558   3.831 -0.2894  0.0102 -0.7996
  152MOL    H1548637   2.614   4.585   3.902 -1.5178 -0.1449  0.1425
  152MOL    H1648638   2.608   4.456   3.795  3.3518  1.5456 -4.2195
  152MOL    H1748639   2.663   4.400   3.505  0.1843 -2.1586 -0.6586
  152MOL    C1848640   2.935   4.549   3.542 -0.3836 -0.3140 -0.0193
  152MOL    C1948641   3.025   4.669   3.571 -0.1470 -0.1708 -0.4937
  152MOL    C2048642   3.148   4.676   3.477 -0.8545  0.9843 -0.1008
  152MOL    O2148643   3.238   4.594   3.502  0.2863 -0.5189 -0.0873
  152MOL    N2248644   3.167   4.786   3.401  0.2305 -0.0505  0.1125
  152MOL    C2348645   3.308   4.819   3.375  0.2327 -0.3881  0.7905
  152MOL    C2448646   3.062   4.885   3.365  0.2149 -0.4964 -0.0578
  152MOL    H2548647   3.003   4.466   3.562 -0.5972 -0.6612 -0.7349
  152MOL    H2648648   2.926   4.553   3.433  0.7864 -0.1030 -0.1151
  152MOL    H2748649   2.958   4.748   3.540 -1.3881 -1.4126 -1.0233
  152MOL    H2848650   3.321   4.876   3.283 -1.8802 -0.2975  0.5179
  152MOL    H2948651   3.329   4.896   3.449  0.0111  1.0124 -0.5749
  152MOL    H3048652   3.376   4.734   3.380 -0.9816 -1.3830  0.7453
  152MOL    H3148653   3.050   4.960   3.442 -0.5959 -0.6085 -0.0720
  152MOL    H3248654   2.963   4.841   3.351  0.7266 -1.2872 -1.3976
  152MOL    H3348655   3.082   4.936   3.271  1.2069  0.1845  0.5232
  152MOL    C3448656   3.067   4.676   3.719  0.7934 -0.1127  0.0082
  152MOL    C3548657   3.074   4.822   3.781 -0.7206 -0.3327  0.2832
  152MOL    C3648658   3.159   4.808   3.904 -0.1742 -0.6038 -0.5547
  152MOL    O3748659   3.120   4.721   3.982  0.1532 -0.4102  0.2218
  152MOL    N3848660   3.274   4.883   3.922  0.3986  0.3774  0.0428
  152MOL    C3948661   3.352   4.858   4.040 -1.2225  0.0810 -0.5794
  152MOL    C4048662   3.346   4.952   3.813  0.2218 -0.9654 -0.4934
  152MOL    H4148663   3.002   4.620   3.786 -0.5382  1.3568 -0.0098
  152MOL    H4248664   3.172   4.648   3.723  1.0883  0.6764 -1.7108
  152MOL    H4348665   3.117   4.890   3.708 -0.7114  0.1499  0.7421
  152MOL    H4448666   3.407   4.935   4.092 -0.8425  1.0130 -2.3216
  152MOL    H4548667   3.287   4.843   4.126 -0.6072  0.2207 -0.0923
  152MOL    H4648668   3.411   4.766   4.034  0.8458  1.2965  0.9115
  152MOL    H4748669   3.432   5.008   3.850 -0.1163 -1.3989  1.0246
  152MOL    H4848670   3.276   5.011   3.754 -0.8902 -2.1659 -0.4153
  152MOL    H4948671   3.371   4.882   3.734  1.7258 -0.7776 -0.1919
  152MOL    C5048672   2.923   4.869   3.814 -0.1460 -0.1940 -0.9837
  152MOL    C5148673   2.897   5.023   3.833 -0.1575 -0.2877 -0.2145
  152MOL    C5248674   2.954   5.107   3.713 -0.1706 -0.3431  0.4299
  152MOL    O5348675   3.072   5.142   3.718 -0.5499  0.5672  0.5338
  152MOL    N5448676   2.873   5.145   3.613  0.1260  0.4370  0.7146
  152MOL    C5548677   2.918   5.256   3.522 -0.1432  0.5582 -0.0177
  152MOL    C5648678   2.741   5.089   3.577 -0.4708  0.8229  0.7654
  152MOL    H5748679   2.858   4.832   3.734  1.5162 -0.8904 -2.0486
  152MOL    H5848680   2.890   4.817   3.904  1.5316  2.0100  0.9854
  152MOL    H5948681   2.789   5.008   3.833  0.0726 -2.0806  0.3441
  152MOL    H6048682   3.018   5.236   3.482 -0.3526 -0.2584 -0.1372
  152MOL    H6148683   2.847   5.274   3.442  0.9730 -0.4732 -1.2569
  152MOL    H6248684   2.925   5.345   3.586 -1.9778  1.3202 -0.8339
  152MOL    H6348685   2.675   5.165   3.535  0.8148  1.1998 -0.6008
  152MOL    H6448686   2.687   5.057   3.666 -0.7668 -1.0958 -0.0761
  152MOL    H6548687   2.763   5.008   3.508  0.6549  0.9314  0.9846
  152MOL    C6648688   2.944   5.085   3.972  0.1166  0.3420  0.0986
  152MOL    C6748689   2.868   5.205   4.031 -0.2061 -0.1223 -0.1768
  152MOL    C6848690   2.730   5.162   4.094  0.0922  0.6202  1.0776
  152MOL    O6948691   2.648   5.104   4.026 -0.0650  0.2219  0.1363
  152MOL    N7048692   2.696   5.185   4.218  0.4833 -0.0905  0.0023
  152MOL    C7148693   2.794   5.233   4.315  0.1118  0.7855 -0.4042
  152MOL    C7248694   2.566   5.160   4.280  0.0203  0.4368  0.7054
  152MOL    H7348695   2.926   5.003   4.041 -1.7213  0.7341  0.0998
  152MOL    H7448696   3.052   5.099   3.970  0.1156  0.2622 -0.8321
  152MOL    H7548697   2.937   5.244   4.106  0.5998 -2.2739  0.2379
  152MOL    H7648698   2.819   5.338   4.302 -0.0769  1.0537  1.2480
  152MOL    H7748699   2.776   5.207   4.419  2.0955  2.1794  0.3317
  152MOL    H7848700   2.876   5.161   4.308 -1.8727 -1.8481  2.4375
  152MOL    H7948701   2.483   5.222   4.247 -0.5651 -0.8640 -0.3308
  152MOL    H8048702   2.574   5.159   4.389 -0.6882 -1.5834  0.7618
  152MOL    H8148703   2.537   5.060   4.248 -1.1641  0.8694  0.4029
  152MOL    C8248704   2.854   5.319   3.928  0.1166 -0.0673  0.4077
  152MOL    C8348705   2.815   5.456   3.982  0.1332  0.2688 -0.6332
  152MOL    C8448706   2.669   5.502   3.961 -0.0304 -0.5431 -0.2965
  152MOL    O8548707   2.622   5.492   3.848  0.4245 -0.7943  0.2372
  152MOL    N8648708   2.601   5.560   4.065  0.9088 -0.4085  0.4073
  152MOL    C8748709   2.661   5.620   4.189  0.0070 -0.2518 -0.1149
  152MOL    C8848710   2.454   5.585   4.057  1.0631 -0.2840 -0.3189
  152MOL    H8948711   2.952   5.338   3.884 -0.8074  1.5196 -1.0242
  152MOL    H9048712   2.779   5.292   3.854 -1.6792 -0.9406  2.4590
  152MOL    H9148713   2.823   5.450   4.091 -0.4441 -1.6659 -0.6846
  152MOL    H9248714   2.747   5.683   4.166 -0.3864 -0.2851 -1.7251
  152MOL    H9348715   2.581   5.675   4.237 -0.6088 -1.2316 -0.0074
  152MOL    H9448716   2.677   5.531   4.250 -2.2967  1.0083  2.4211
  152MOL    H9548717   2.408   5.534   3.972 -0.7398 -0.0349  0.5004
  152MOL    H9648718   2.445   5.692   4.043  1.8730 -0.1267  0.2907
  152MOL    H9748719   2.407   5.554   4.150 -0.8329 -0.7157 -1.3946
  152MOL    C9848720   2.913   5.573   3.943 -0.4381 -0.3964 -0.1105
  152MOL    C9948721   3.054   5.570   4.009 -0.0575 -0.2374 -0.3923
  152MOL   C10048722   3.048   5.544   4.160  0.8994  0.0930 -0.1314
  152MOL   O10148723   2.983   5.621   4.234 -0.5010  0.2194  0.3485
  152MOL   N10248724   3.108   5.445   4.220  0.1194  0.2880 -0.5281
  152MOL   C10348725   3.205   5.364   4.145  0.3627  0.5881 -0.1422
  152MOL   C10448726   3.104   5.431   4.366  0.5312 -0.8502  0.0852
  152MOL   H10548727   2.921   5.579   3.835  1.3174  0.3402  0.0465
  152MOL   H10648728   2.866   5.669   3.961  0.0492 -0.0419 -0.7280
  152MOL   H10748729   3.111   5.505   3.943 -1.2208 -0.5967 -1.0487
  152MOL   H10848730   3.164   5.314   4.057  3.5215 -1.1256 -0.7217
  152MOL   H10948731   3.290   5.422   4.109 -1.1345  1.9500 -1.5416
  152MOL   H11048732   3.229   5.277   4.206  1.8368  0.1710 -1.2822
  152MOL   H11148733   3.204   5.450   4.405  1.2759 -0.4709 -1.9557
  152MOL   H11248734   3.104   5.324   4.389 -0.3917 -1.2159 -1.4826
  152MOL   H11348735   3.018   5.476   4.417 -0.1676 -1.6824 -0.3319
  152MOL   C11448736   3.143   5.698   3.985  0.4492 -0.3676  0.0425
  152MOL   C11548737   3.167   5.741   3.832  0.6431  0.4425 -0.1185
  152MOL   C11648738   3.261   5.642   3.761 -0.8569  0.0589  0.4103
  152MOL   O11748739   3.374   5.626   3.801 -0.8871  0.0728  0.1012
  152MOL   N11848740   3.203   5.572   3.663 -0.2475 -0.6415 -0.2030
  152MOL   C11948741   3.259   5.452   3.610  0.3640 -0.1912 -0.5662
  152MOL   C12048742   3.096   5.627   3.577 -0.0118 -0.0965  0.2153
  152MOL   H12148743   3.100   5.779   4.043  0.4402 -0.4397  0.1374
  152MOL   H12248744   3.242   5.681   4.027  2.0711  1.6463 -2.8361
  152MOL   H12348745   3.067   5.734   3.790  0.9781  0.7293 -0.9978
  152MOL   H12448746   3.353   5.428   3.661 -0.5176  1.2235  1.8023
  152MOL   H12548747   3.188   5.372   3.633  0.4471 -0.3151 -0.7376
  152MOL   H12648748   3.288   5.450   3.505 -1.7814  0.1011 -1.1841
  152MOL   H12748749   3.002   5.604   3.627  0.0595  0.6531  0.6909
  152MOL   H12848750   3.078   5.576   3.482  1.8511 -0.6076  0.1043
  152MOL   H12948751   3.092   5.735   3.571 -1.1381 -0.2324 -1.8672
  152MOL   C13048752   3.216   5.889   3.818  0.2574  0.5156 -0.0558
  152MOL   C13148753   3.117   5.999   3.873 -0.1406  0.0748 -0.4793
  152MOL   C13248754   2.961   5.982   3.858 -0.9999  0.2694 -0.0962
  152MOL   O13348755   2.926   5.952   3.745  0.3681 -0.3998  0.5138
  152MOL   N13448756   2.880   5.990   3.970 -0.2295  0.1809 -0.4856
  152MOL   C13548757   2.731   5.995   3.949 -0.1874 -0.2913  0.1349
  152MOL   C13648758   2.917   6.026   4.113  0.0511 -0.3453  0.6642
  152MOL   H13748759   3.315   5.903   3.862  1.3032 -0.1314 -2.1428
  152MOL   H13848760   3.220   5.903   3.710 -0.7230 -2.4157 -0.5048
  152MOL   H13948761   3.135   5.996   3.980  0.2930  0.0153 -0.5563
  152MOL   H14048762   2.689   6.096   3.956 -0.5864 -0.4501  0.0277
  152MOL   H14148763   2.708   5.971   3.846 -0.6486  0.7738 -0.0190
  152MOL   H14248764   2.672   5.927   4.010 -0.2927 -0.1359  0.2057
  152MOL   H14348765   3.007   5.972   4.142 -0.6671 -2.2045 -0.4521
  152MOL   H14448766   2.835   6.007   4.182  1.3390 -1.9941  1.7812
  152MOL   H14548767   2.936   6.133   4.123 -2.4341 -0.0571  2.9573
  152MOL   C14648768   3.156   6.135   3.806  0.2654 -0.3880 -0.1802
  152MOL   C14748769   3.102   6.266   3.866  0.1693 -0.8737 -0.3122
  152MOL   C14848770   3.110   6.383   3.765  0.2233  0.6764 -0.5508
  152MOL   O14948771   3.210   6.457   3.755 -0.8403  0.5408  0.1062
  152MOL   N15048772   3.000   6.417   3.695 -0.6479 -0.1136 -0.0306
  152MOL   C15148773   3.006   6.523   3.598 -0.3632 -0.0459  0.1592
  152MOL   C15248774   2.877   6.333   3.693  0.2219 -0.2313  0.5028
  152MOL   H15348775   3.265   6.143   3.813  0.1506  0.3784  0.9998
  152MOL   H15448776   3.144   6.117   3.700  1.3791 -3.1604  0.1191
  152MOL   H15548777   2.998   6.253   3.897  0.1566 -0.7938 -0.3204
  152MOL   H15648778   3.037   6.488   3.499 -3.2093  0.8099 -1.1004
  152MOL   H15748779   2.907   6.565   3.575 -0.4090  0.4569  1.2592
  152MOL   H15848780   3.068   6.608   3.625 -0.7547  0.5949 -0.9282
  152MOL   H15948781   2.894   6.229   3.669 -1.8232 -0.6393  0.7435
  152MOL   H16048782   2.802   6.368   3.622  0.0276 -0.9449  0.3623
  152MOL   H16148783   2.830   6.337   3.791  0.1479  0.9221  0.4280
  152MOL   C16248784   3.174   6.311   3.997  0.8323  0.4459  0.2346
  152MOL   C16348785   3.117   6.434   4.072  0.4734  0.4953  0.3023
  152MOL   C16448786   3.195   6.439   4.213  0.5211  0.3142 -1.1423
  152MOL   O16548787   3.157   6.378   4.316  0.2662 -0.2109  0.3284
  152MOL   N16648788   3.296   6.528   4.219 -0.0114  0.4943 -0.0651
  152MOL   C16748789   3.383   6.563   4.103 -0.2083 -0.2560 -0.7750
  152MOL   C16848790   3.348   6.567   4.350  0.6173  0.3418  0.0720
  152MOL   H16948791   3.195   6.221   4.056 -1.7978  0.5431  1.3940
  152MOL   H17048792   3.274   6.340   3.963  1.2750 -1.5095 -0.1760
  152MOL   H17148793   3.139   6.529   4.024 -1.9846  0.7632 -0.3913
  152MOL   H17248794   3.409   6.481   4.036 -0.5665 -1.7770  0.9262
  152MOL   H17348795   3.333   6.641   4.045  0.6519 -1.2210 -2.8607
  152MOL   H17448796   3.476   6.600   4.145 -0.7614 -0.7883  0.9570
  152MOL   H17548797   3.417   6.650   4.337  2.9779 -1.7324 -1.0260
  152MOL   H17648798   3.384   6.480   4.404  0.9578  0.8464  0.6625
  152MOL   H17748799   3.268   6.600   4.416  1.0127 -2.2981  1.9648
  152MOL   C17848800   2.956   6.429   4.091 -0.3158 -0.4255  0.3555
  152MOL   C17948801   2.894   6.565   4.134  0.3671 -0.1892 -0.4167
  152MOL   C18048802   2.757   6.552   4.201  0.2317 -0.5692  0.2234
  152MOL   O18148803   2.655   6.541   4.128  0.2894  0.9144  0.6275
  152MOL   N18248804   2.748   6.553   4.331 -0.1282  0.1829  0.6570
  152MOL   C18348805   2.854   6.518   4.427  0.7599 -0.8003  0.4581
  152MOL   C18448806   2.628   6.604   4.389 -0.7748 -0.1398 -0.3931
  152MOL   H18548807   2.897   6.391   4.008 -3.9897  1.1513  2.1226
  152MOL   H18648808   2.929   6.354   4.166  2.2816 -0.7971  0.9784
  152MOL   H18748809   2.964   6.611   4.204  1.2668  0.9952 -2.0549
  152MOL   H18848810   2.955   6.500   4.389  0.8058 -0.8588  0.6082
  152MOL   H18948811   2.881   6.592   4.502  0.8850 -0.4046  0.0310
  152MOL   H19048812   2.812   6.430   4.474 -0.0484 -0.4258  0.4347
  152MOL   H19148813   2.628   6.692   4.453 -0.2350 -0.5778  0.2110
  152MOL   H19248814   2.588   6.530   4.459 -1.3613  2.2115  1.8129
  152MOL   H19348815   2.545   6.609   4.318  0.4212  2.0984 -1.6745
  152MOL   C19448816   2.886   6.655   4.005 -0.4115  0.7581  0.6492
  152MOL   C19548817   2.940   6.801   4.017  0.3112  0.2884 -0.6569
  152MOL   C19648818   3.088   6.822   4.071 -0.0880 -0.0758  1.0759
  152MOL   O19748819   3.110   6.785   4.186  0.2357  0.2094  0.4424
  152MOL   N19848820   3.181   6.882   3.996 -0.1382  0.8136  0.3980
  152MOL   C19948821   3.312   6.928   4.057 -0.3450  0.3463 -0.4844
  152MOL   C20048822   3.166   6.926   3.859 -0.0251 -0.4403  0.5445
  152MOL   H20148823   2.943   6.608   3.925 -0.7516  0.0525  0.8225
  152MOL   H20248824   2.790   6.657   3.953 -1.0005 -1.3858  1.5890
  152MOL   H20348825   2.933   6.831   3.912 -1.4383  2.5107  0.0684
  152MOL   H20448826   3.308   7.025   4.106  2.0143 -0.3713  1.2112
  152MOL   H20548827   3.345   6.855   4.130 -1.4131  1.9400  1.6492
  152MOL   H20648828   3.392   6.914   3.984 -0.5059  1.4070 -0.8834
  152MOL   H20748829   3.086   6.999   3.851  1.0009  0.7645  1.1246
  152MOL   H20848830   3.147   6.844   3.789  1.3280  1.4653 -2.1621
  152MOL   H20948831   3.257   6.978   3.830 -0.2296 -1.0936 -1.3659
  152MOL   C21048832   2.829   6.877   4.091 -0.2240 -0.8532 -0.4190
  152MOL   C21148833   2.810   7.018   4.036 -0.7052  0.1316 -1.2220
  152MOL   C21248834   2.928   7.117   4.050 -0.2099  0.4710  0.1753
  152MOL   O21348835   2.975   7.121   4.163 -0.4553  0.0149  0.0216
  152MOL   N21448836   2.969   7.195   3.950 -0.4089  0.2758  0.4967
  152MOL   C21548837   2.906   7.223   3.823  0.5073 -0.2124  0.0061
  152MOL   C21648838   3.089   7.267   3.974 -0.3938 -0.3576 -0.1301
  152MOL   H21748839   2.733   6.827   4.105  0.4322 -2.1542 -0.5034
  152MOL   H21848840   2.853   6.888   4.196  0.1509  4.2263 -0.9320
  152MOL   H21948841   2.791   7.016   3.929 -0.4452 -0.2904 -1.2578
  152MOL   H22048842   2.963   7.290   3.760  1.8096 -1.0745  0.2372
  152MOL   H22148843   2.886   7.127   3.775 -0.9047  0.0666  0.0040
  152MOL   H22248844   2.815   7.275   3.853  0.8197  0.7610 -0.7347
  152MOL   H22348845   3.142   7.268   3.879 -1.0054 -0.2684 -0.4685
  152MOL   H22448846   3.155   7.215   4.044 -0.0107  0.9104  0.4731
  152MOL   H22548847   3.077   7.372   4.001  2.7009  0.3505 -1.2439
  152MOL   C22648848   2.695   7.076   4.116 -0.4160 -0.8692 -0.4018
  152MOL   C22748849   2.555   7.010   4.111  0.1486 -0.2695  0.2886
  152MOL   C22848850   2.524   6.961   3.965  0.0417  0.5010  0.6639
  152MOL   O22948851   2.542   7.048   3.871  0.8235 -0.0284  0.1143
  152MOL   N23048852   2.467   6.834   3.941  0.0311  0.6193 -0.3395
  152MOL   C23148853   2.458   6.784   3.805 -0.5693  0.1579 -0.0714
  152MOL   C23248854   2.422   6.746   4.051 -0.1774 -0.2512 -0.0054
  152MOL   H23348855   2.725   7.090   4.220 -1.6562  2.4313 -0.4490
  152MOL   H23448856   2.696   7.177   4.074 -2.9262 -0.6769 -0.0263
  152MOL   H23548857   2.576   6.929   4.180  0.4013  1.3913  2.2058
  152MOL   H23648858   2.360   6.798   3.758 -0.9613  0.0090  0.6949
  152MOL   H23748859   2.539   6.831   3.749  3.0673 -2.7464  2.5102
  152MOL   H23848860   2.483   6.680   3.785  0.2531  0.4314 -0.5191
  152MOL   H23948861   2.370   6.656   4.018  0.7535 -0.1453 -1.7803
  152MOL   H24048862   2.357   6.800   4.120 -1.6736  0.4681 -1.9363
  152MOL   H24148863   2.515   6.726   4.104  0.6199  0.8705 -0.9754
  152MOL   C24248864   2.441   7.100   4.165 -0.6791  0.4535  0.5325
  152MOL   C24348865   2.454   7.142   4.315  0.1995 -0.0832  0.3111
  152MOL   C24448866   2.447   7.019   4.411 -0.0867  0.2181  0.1810
  152MOL   O24548867   2.401   6.911   4.371 -0.0776 -0.4169 -0.5910
  152MOL   N24648868   2.492   7.041   4.535  0.1091  0.1798  0.0248
  152MOL   C24748869   2.542   7.170   4.595  0.4975 -0.4803  0.1377
  152MOL   C24848870   2.487   6.934   4.633  0.0791  0.5010 -0.1612
  152MOL   H24948871   2.423   7.188   4.104  1.6835 -0.4240 -1.5579
  152MOL   H25048872   2.352   7.039   4.151 -1.6067  2.5287 -3.2934
  152MOL   H25148873   2.557   7.173   4.331  0.2704  0.8741 -1.8091
  152MOL   H25248874   2.576   7.243   4.522  0.8250  0.2897  1.0466
  152MOL   H25348875   2.464   7.219   4.654  1.0236  0.6499 -0.0895
  152MOL   H25448876   2.638   7.164   4.646  0.6570 -1.0476 -0.2239
  152MOL   H25548877   2.577   6.876   4.615  1.4298  2.4757  0.0928
  152MOL   H25648878   2.396   6.876   4.617  1.0136 -0.4810 -1.9633
  152MOL   H25748879   2.484   6.970   4.736 -1.5788 -0.3000  0.0854
  152MOL   C25848880   2.349   7.253   4.347 -0.6640  0.6841  0.4058
  152MOL   C25948881   2.390   7.389   4.271  0.4367 -1.0037 -0.6217
  152MOL   C26048882   2.535   7.441   4.298 -0.7523 -0.0329 -0.8998
  152MOL   O26148883   2.565   7.465   4.420  0.6485 -0.5114  0.0223
  152MOL   N26248884   2.625   7.450   4.196  0.0459  0.2973 -0.3426
  152MOL   C26348885   2.588   7.448   4.053  0.3613  0.1197  0.2518
  152MOL   C26448886   2.762   7.480   4.225 -0.7112  0.0600  0.7588
  152MOL   H26548887   2.246   7.220   4.336  0.5978 -3.6510  0.4888
  152MOL   H26648888   2.347   7.264   4.455  0.8902 -0.9467  0.6348
  152MOL   H26748889   2.384   7.384   4.163 -2.0482  1.8167 -0.6773
  152MOL   H26848890   2.665   7.492   3.989  2.8660  0.3458  3.2984
  152MOL   H26948891   2.574   7.345   4.021 -0.9024 -0.0975  1.4646
  152MOL   H27048892   2.492   7.492   4.027  0.9065  0.4834 -1.2070
  152MOL   H27148893   2.817   7.494   4.132 -2.2533 -0.7470 -0.2923
  152MOL   H27248894   2.810   7.397   4.277  0.3313 -0.7046 -1.3799
  152MOL   H27348895   2.762   7.579   4.271  0.6651  0.1116  0.6394
  152MOL   C27448896   2.287   7.490   4.312  0.7926  0.0651  0.7627
  152MOL   C27548897   2.160   7.505   4.227  0.2979 -0.7683  0.4393
  152MOL   C27648898   2.183   7.531   4.073 -0.1139 -0.8612  1.2815
  152MOL   O27748899   2.220   7.648   4.038  0.5769  0.6990  0.0675
  152MOL   N27848900   2.177   7.429   3.982 -0.7547 -0.1234 -0.5165
  152MOL   C27948901   2.224   7.450   3.847  0.8591  0.1433 -0.2282
  152MOL   C28048902   2.112   7.309   4.013  0.2574 -0.0475 -0.3338
  152MOL   H28148903   2.273   7.478   4.419 -1.0860  1.4314  0.6914
  152MOL   H28248904   2.331   7.587   4.294 -1.1354  0.7078 -0.7373
  152MOL   H28348905   2.103   7.413   4.238  0.7075 -1.0570  0.1272
  152MOL   H28448906   2.133   7.458   3.788  0.7910  0.7090 -0.0423
  152MOL   H28548907   2.294   7.532   3.834 -0.4507  1.1135 -1.3118
  152MOL   H28648908   2.279   7.358   3.825 -1.3191 -1.3297  0.2459
  152MOL   H28748909   2.007   7.326   4.039  1.1480  3.9786  0.9138
  152MOL   H28848910   2.165   7.259   4.094  0.8047 -1.3912 -1.5070
  152MOL   H28948911   2.103   7.249   3.923 -1.2338 -1.3874  0.6763
  152MOL   C29048912   2.059   7.610   4.284 -0.6165 -0.4234  0.1035
  152MOL   C29148913   1.931   7.656   4.215 -0.2757 -0.8740  0.0775
  152MOL   C29248914   1.941   7.794   4.129 -0.1700  0.6234  0.2672
  152MOL   O29348915   1.937   0.048   4.189 -0.4808 -0.1628 -0.2866
  152MOL   N29448916   1.954   7.793   3.994  0.8924  0.2095  0.3020
  152MOL   C29548917   2.017   0.053   3.924  0.5525  0.2122 -0.7227
  152MOL   C29648918   1.900   7.681   3.909 -0.1667 -0.2616 -0.0249
  152MOL   H29748919   2.020   7.574   4.379 -3.0544  1.8655  0.0308
  152MOL   H29848920   2.117   7.696   4.320 -0.2743 -0.7785  0.4016
  152MOL   H29948921   1.911   7.580   4.140  0.8059  0.3444 -1.4854
  152MOL   H30048922   2.074   0.115   3.993 -0.3327  0.5466 -0.2914
  152MOL   H30148923   2.090   0.020   3.850  1.9748 -1.1696  1.2340
  152MOL   H30248924   1.936   0.106   3.874  0.4323 -0.5306 -1.3280
  152MOL   H30348925   1.813   7.630   3.951  0.7241 -2.0713 -0.3554
  152MOL   H30448926   1.980   7.612   3.886  1.8514  1.2295  2.2620
  152MOL   H30548927   1.869   7.735   3.819  1.6826  0.6962 -0.1003
  152MOL   C30648928   1.809   7.649   4.313  0.3591 -0.1106 -0.0531
  152MOL   C30748929   1.668   7.656   4.258  0.2205 -0.2265  0.2489
  152MOL   C30848930   1.621   7.533   4.189 -0.1675  0.6336 -0.0735
  152MOL   O30948931   1.701   7.442   4.162 -0.0814 -0.1272  0.4116
  152MOL   N31048932   1.491   7.516   4.177 -1.1537 -0.0984  0.5560
  152MOL   C31148933   1.401   7.630   4.181 -0.2235  0.8598  0.5091
  152MOL   C31248934   1.422   7.390   4.180  0.7253  0.4809  0.6073
  152MOL   H31348935   1.811   7.555   4.369 -3.4952  0.1388  0.6071
  152MOL   H31448936   1.823   7.727   4.388 -2.0269  1.6657 -1.4006
  152MOL   H31548937   1.606   7.687   4.343  0.1508 -0.1369  0.1656
  152MOL   H31648938   1.433   7.716   4.124  2.7523 -1.2586 -1.1676
  152MOL   H31748939   1.299   7.608   4.149  0.2788  0.6661 -0.9734
  152MOL   H31848940   1.394   7.671   4.282 -0.8747  4.4299 -0.9444
  152MOL   H31948941   1.337   7.404   4.247  0.9049  0.4812  0.8324
  152MOL   H32048942   1.484   7.304   4.204 -1.9926 -1.0203  2.5464
  152MOL   H32148943   1.386   7.370   4.079 -0.6496 -1.5060  1.4604
  152MOL   H32248944   1.660   7.741   4.191  1.1147 -1.3763 -1.3356
  153MOL     C148945   5.771   5.716   6.211 -0.3802  0.3719 -0.4385
  153MOL     C248946   5.721   5.576   6.255  0.6264  0.1204  0.3440
  153MOL     C348947   5.567   5.563   6.217  0.2274 -0.3446  0.3748
  153MOL     O448948   5.505   5.664   6.195 -0.3297 -0.0381  0.7857
  153MOL     N548949   5.507   5.439   6.212 -0.7994  0.1828 -0.6237
  153MOL     C648950   5.582   5.313   6.195  0.3042 -0.3955  0.2190
  153MOL     C748951   5.359   5.422   6.183  0.1349  0.3250 -0.2611
  153MOL     H848952   5.879   5.731   6.203 -0.6238  2.5099  0.0035
  153MOL     H948953   5.732   5.802   6.265  2.9839  2.6302 -1.4448
  153MOL    H1048954   5.784   5.506   6.201  0.6230  1.3754 -1.3110
  153MOL    H1148955   5.519   5.224   6.195  1.0127 -0.9147  1.4069
  153MOL    H1248956   5.654   5.306   6.113 -1.5375  2.6712 -1.7135
  153MOL    H1348957   5.632   5.312   6.292  1.0621 -0.6906 -0.1663
  153MOL    H1448958   5.336   5.360   6.096 -0.0500  0.4140 -0.2770
  153MOL    H1548959   5.307   5.513   6.154 -1.8353 -0.7468 -0.1492
  153MOL    H1648960   5.303   5.370   6.260  1.8293  1.9127  2.1355
  153MOL    H1748961   5.730   5.736   6.111 -0.4940 -1.5293 -0.7863
  153MOL    C1848962   5.737   5.566   6.406  0.0162  0.2019 -0.8871
  153MOL    C1948963   5.861   5.494   6.474 -0.2296 -0.0588  0.2302
  153MOL    C2048964   5.831   5.338   6.474  0.5075  0.2975 -0.1599
  153MOL    O2148965   5.730   5.294   6.531 -0.4569  0.0505  0.1974
  153MOL    N2248966   5.918   5.257   6.407  0.2899  0.1584  0.3655
  153MOL    C2348967   5.911   5.110   6.414  0.4165 -0.0339 -0.0914
  153MOL    C2448968   6.023   5.303   6.313 -0.4520  0.1098  0.2794
  153MOL    H2548969   5.717   5.662   6.454  4.0357  1.0081 -0.7017
  153MOL    H2648970   5.654   5.505   6.442 -0.4069  1.7430  0.8472
  153MOL    H2748971   5.952   5.513   6.417 -0.0633 -4.4435 -1.1608
  153MOL    H2848972   5.968   5.057   6.337  1.3591  0.5117  0.2171
  153MOL    H2948973   5.933   5.077   6.515  0.9835  2.0416  0.4902
  153MOL    H3048974   5.808   5.083   6.394  0.0832  0.9909  0.2104
  153MOL    H3148975   6.115   5.338   6.359  0.3464 -0.1448 -1.0839
  153MOL    H3248976   5.976   5.374   6.244  2.3038  1.9231  0.1961
  153MOL    H3348977   6.057   5.219   6.252 -1.6834 -1.3727  1.5815
  153MOL    C3448978   5.889   5.551   6.620  0.2382  0.9064 -0.7215
  153MOL    C3548979   6.009   5.512   6.701 -0.1610 -0.0300  0.3148
  153MOL    C3648980   5.994   5.386   6.784  0.0383  0.5698  0.5371
  153MOL    O3748981   5.887   5.372   6.841  0.3126 -0.8358 -0.5585
  153MOL    N3848982   6.083   5.286   6.781  0.4549 -0.1183 -0.6869
  153MOL    C3948983   6.039   5.153   6.819  0.8488 -0.2530 -0.0160
  153MOL    C4048984   6.219   5.293   6.752 -0.1502  0.0308  0.8290
  153MOL    H4148985   5.868   5.657   6.607  0.1921  1.1041  0.9526
  153MOL    H4248986   5.801   5.513   6.671  0.3410  2.2494  0.4955
  153MOL    H4348987   6.088   5.481   6.632  1.5492  1.0282  1.7620
  153MOL    H4448988   6.103   5.074   6.778 -1.0910 -1.8122 -0.0891
  153MOL    H4548989   6.023   5.132   6.925 -2.8436  0.0652 -0.4497
  153MOL    H4648990   5.942   5.138   6.772 -0.5109  0.7549  2.3887
  153MOL    H4748991   6.280   5.223   6.809  2.6346  2.9442  1.5790
  153MOL    H4848992   6.259   5.393   6.772  1.5631 -0.3830 -0.4362
  153MOL    H4948993   6.245   5.270   6.648  1.2087  0.7823  0.9762
  153MOL    C5048994   6.064   5.628   6.780  0.8981  0.2462  0.4496
  153MOL    C5148995   6.156   5.717   6.697 -0.0441 -0.1667  0.6351
  153MOL    C5248996   6.296   5.668   6.659  0.5385 -0.2479  1.1207
  153MOL    O5348997   6.375   5.652   6.754  0.3108 -0.2934 -0.3918
  153MOL    N5448998   6.331   5.632   6.534  0.6862  0.5480  0.6981
  153MOL    C5548999   6.245   5.645   6.411 -0.7063 -0.1056 -0.4241
  153MOL    C5649000   6.466   5.587   6.501  0.3200  0.3845 -0.8570
  153MOL    H5749001   5.979   5.683   6.820  0.6046  0.8822 -1.0539
  153MOL    H5849002   6.120   5.582   6.862 -0.8230 -0.5950  1.1818
  153MOL    H5949003   6.096   5.734   6.607 -0.5373  0.8465  1.1456
  153MOL    H6049004   6.309   5.623   6.326  3.1102  0.4556  2.1752
  153MOL    H6149005   6.175   5.561   6.411  1.9562 -2.4078  0.2580
  153MOL    H6249006   6.190   5.738   6.401 -0.5060  0.3201  2.0825
  153MOL    H6349007   6.533   5.565   6.584  0.4432 -2.1467 -1.5875
  153MOL    H6449008   6.518   5.659   6.437  4.1551 -0.8762  0.7383
  153MOL    H6549009   6.470   5.493   6.445 -0.1394 -0.0348 -0.1890
  153MOL    C6649010   6.170   5.860   6.757 -0.4967  0.1455 -0.1822
  153MOL    C6749011   6.225   5.974   6.663  0.5791  0.7325  0.0520
  153MOL    C6849012   6.269   6.097   6.751  0.0414  0.2296 -1.0888
  153MOL    O6949013   6.187   6.146   6.829  0.1588 -0.2521  0.2061
  153MOL    N7049014   6.398   6.148   6.747 -0.6168  0.6314  0.1169
  153MOL    C7149015   6.433   6.257   6.832  0.0954 -0.3745  0.0282
  153MOL    C7249016   6.481   6.120   6.628 -0.5823 -0.3408  0.0325
  153MOL    H7349017   6.072   5.881   6.799 -1.9576 -1.0837 -2.7989
  153MOL    H7449018   6.232   5.855   6.846 -2.6863  1.5109  1.4551
  153MOL    H7549019   6.321   5.935   6.628  0.3056  0.4552 -0.3976
  153MOL    H7649020   6.351   6.277   6.901 -0.5383  0.9034 -1.0661
  153MOL    H7749021   6.532   6.249   6.878  0.5653  2.8990 -0.2729
  153MOL    H7849022   6.435   6.340   6.761 -1.2347 -1.2131 -1.0277
  153MOL    H7949023   6.507   6.017   6.607  1.3393  0.0501  0.3183
  153MOL    H8049024   6.579   6.169   6.632 -0.9317  0.5697 -1.9658
  153MOL    H8149025   6.438   6.155   6.534 -0.6127  1.2475  0.6093
  153MOL    C8249026   6.134   6.006   6.537 -0.0835  0.0100  0.0534
  153MOL    C8349027   6.010   6.088   6.559  0.0880 -0.3314 -0.5994
  153MOL    C8449028   5.893   6.023   6.653 -0.7667 -0.4212  0.5975
  153MOL    O8549029   5.859   5.906   6.633 -0.4041 -0.1362 -0.6546
  153MOL    N8649030   5.843   6.102   6.751  0.2032 -0.1313 -0.2480
  153MOL    C8749031   5.852   6.254   6.760 -0.1761  0.3840 -0.8405
  153MOL    C8849032   5.757   6.033   6.849 -0.5345  0.0963 -0.1865
  153MOL    H8949033   6.192   6.055   6.459 -1.3960  2.3995  0.5328
  153MOL    H9049034   6.107   5.912   6.489 -1.4316 -0.2089  1.2223
  153MOL    H9149035   6.048   6.181   6.601  0.4599 -1.3466  1.3326
  153MOL    H9249036   5.954   6.288   6.776 -0.4717  0.4479  0.9840
  153MOL    H9349037   5.814   6.294   6.666  2.1544 -1.4625 -2.6232
  153MOL    H9449038   5.789   6.295   6.839  2.9199  3.6304  0.0740
  153MOL    H9549039   5.754   6.090   6.942  0.9029 -0.8331  0.4536
  153MOL    H9649040   5.788   5.933   6.880 -1.2164  0.6038  2.2607
  153MOL    H9749041   5.656   6.038   6.807  0.8541  0.6811 -3.5968
  153MOL    C9849042   5.941   6.116   6.418  0.3347  0.8048  0.5920
  153MOL    C9949043   6.001   6.235   6.336  0.1151  0.4418 -0.1671
  153MOL   C10049044   6.000   6.361   6.428  0.5894  0.1961 -0.2490
  153MOL   O10149045   5.891   6.411   6.458 -0.4653  0.1300  0.6013
  153MOL   N10249046   6.117   6.418   6.463 -0.4759  0.3306  0.0240
  153MOL   C10349047   6.250   6.361   6.439 -0.1109 -0.0584  0.1405
  153MOL   C10449048   6.120   6.553   6.506 -0.6367  0.3258  0.1603
  153MOL   H10549049   5.924   6.026   6.359 -2.9290  0.6930  1.6181
  153MOL   H10649050   5.838   6.146   6.438 -0.0932 -0.8133  0.8613
  153MOL   H10749051   6.099   6.202   6.304  0.0947 -2.0276  2.1410
  153MOL   H10849052   6.251   6.253   6.427  2.3154  0.0484 -0.6942
  153MOL   H10949053   6.300   6.401   6.351  0.0758  1.1599  0.7842
  153MOL   H11049054   6.315   6.369   6.526 -0.8416  0.1714  0.6795
  153MOL   H11149055   6.090   6.607   6.416 -0.7048 -0.5397 -0.3474
  153MOL   H11249056   6.218   6.593   6.532 -1.6054  1.7035  1.7994
  153MOL   H11349057   6.053   6.578   6.588 -0.1143 -0.4983  0.8469
  153MOL   C11449058   5.941   6.253   6.198  0.2768  0.3267 -0.0543
  153MOL   C11549059   5.786   6.291   6.183  0.4352  0.2788  0.0680
  153MOL   C11649060   5.682   6.178   6.220 -0.8312 -0.6611  0.2547
  153MOL   O11749061   5.716   6.066   6.178  0.0119  0.4767 -1.0824
  153MOL   N11849062   5.577   6.207   6.308  0.4871  0.0560  0.3410
  153MOL   C11949063   5.499   6.102   6.369  0.3805  0.1147  0.0938
  153MOL   C12049064   5.536   6.335   6.351  0.3104  0.0325 -0.0577
  153MOL   H12149065   6.001   6.326   6.144 -0.3634 -0.2169 -1.5441
  153MOL   H12249066   5.944   6.158   6.145  0.0848  0.4610 -0.3067
  153MOL   H12349067   5.760   6.381   6.240 -1.1359  0.2099 -0.5208
  153MOL   H12449068   5.493   6.018   6.300 -0.0177  2.0327 -2.2846
  153MOL   H12549069   5.547   6.060   6.457  3.1777 -0.6399 -1.7226
  153MOL   H12649070   5.396   6.133   6.389  0.5135  0.2046  0.6300
  153MOL   H12749071   5.497   6.393   6.267 -0.4737  1.2352  1.1200
  153MOL   H12849072   5.612   6.390   6.407 -0.7221 -0.9474  2.3663
  153MOL   H12949073   5.465   6.335   6.433 -0.3069 -1.8530 -0.5720
  153MOL   C13049074   5.756   6.322   6.030  0.0982 -0.3904 -0.5857
  153MOL   C13149075   5.775   6.471   6.000 -0.3776  0.3045 -0.0127
  153MOL   C13249076   5.643   6.548   6.025 -1.1527 -0.5828  1.1352
  153MOL   O13349077   5.558   6.537   5.937 -0.6943 -0.2494  0.3507
  153MOL   N13449078   5.624   6.642   6.118  0.4245  0.1282  0.1329
  153MOL   C13549079   5.723   6.670   6.222 -0.8195  0.0995 -1.7460
  153MOL   C13649080   5.491   6.695   6.143  1.0536  0.0365 -0.7258
  153MOL   H13749081   5.810   6.254   5.964 -1.6605 -0.8132 -1.6170
  153MOL   H13849082   5.653   6.300   6.003  0.2354 -2.4689  0.4318
  153MOL   H13949083   5.860   6.498   6.063  0.3296 -0.0862 -0.7926
  153MOL   H14049084   5.703   6.758   6.282 -1.5031 -1.6631  0.6885
  153MOL   H14149085   5.722   6.590   6.295 -0.9058  0.9397 -0.8241
  153MOL   H14249086   5.822   6.664   6.176 -0.5437 -0.9642 -1.0386
  153MOL   H14349087   5.488   6.767   6.225 -0.7641  1.4189 -1.9682
  153MOL   H14449088   5.413   6.619   6.142  0.9725  0.1248 -1.8724
  153MOL   H14549089   5.462   6.766   6.066 -1.3046  1.2375  1.1951
  153MOL   C14649090   5.826   6.488   5.856 -0.0610 -0.0130 -0.5011
  153MOL   C14749091   5.905   6.608   5.823 -0.8813 -0.5128  0.6089
  153MOL   C14849092   6.041   6.612   5.903 -0.1459  0.4354  0.0902
  153MOL   O14949093   6.037   6.647   6.020  0.4083  0.3571  0.4652
  153MOL   N15049094   6.158   6.603   5.840 -0.5796  0.2354  0.7500
  153MOL   C15149095   6.284   6.608   5.914 -0.1860 -0.2715  0.1448
  153MOL   C15249096   6.183   6.608   5.697  0.1104 -0.3085  0.2311
  153MOL   H15349097   5.894   6.405   5.838  0.1932 -0.0913  0.7746
  153MOL   H15449098   5.743   6.480   5.786 -0.8982 -0.1411  0.5008
  153MOL   H15549099   5.925   6.587   5.718 -0.5207  2.9356 -0.0593
  153MOL   H15649100   6.275   6.598   6.022 -1.1224 -1.2558 -0.0094
  153MOL   H15749101   6.344   6.525   5.875  0.5922  0.0414  0.6690
  153MOL   H15849102   6.316   6.708   5.883 -1.2991  0.2227  0.5642
  153MOL   H15949103   6.286   6.634   5.675  1.1225 -4.3394 -0.3206
  153MOL   H16049104   6.125   6.697   5.674 -0.2674 -0.2776  1.2819
  153MOL   H16149105   6.154   6.520   5.639 -0.3573  0.2151 -0.3386
  153MOL   C16249106   5.832   6.747   5.822  0.0302 -0.1009  0.4529
  153MOL   C16349107   5.716   6.758   5.722 -0.8477 -0.2785  0.3892
  153MOL   C16449108   5.763   6.729   5.578 -0.2201 -0.2038  0.4394
  153MOL   O16549109   5.873   6.771   5.546 -0.7372  0.3519 -0.1302
  153MOL   N16649110   5.677   6.670   5.488  0.1617 -0.5605  0.0921
  153MOL   C16749111   5.562   6.590   5.546  0.1113  0.1188  0.1033
  153MOL   C16849112   5.707   6.655   5.348 -0.1932  0.1075 -0.2108
  153MOL   H16949113   5.791   6.765   5.922 -0.0069  1.5049  0.1505
  153MOL   H17049114   5.907   6.823   5.800 -1.3804  1.1630 -0.0899
  153MOL   H17149115   5.637   6.689   5.750 -0.8609 -0.6371 -0.4919
  153MOL   H17249116   5.468   6.640   5.569  1.6116  2.1210  2.1958
  153MOL   H17349117   5.518   6.514   5.483 -0.7499 -0.8541  1.8320
  153MOL   H17449118   5.599   6.520   5.621  0.6649 -0.0568 -0.3332
  153MOL   H17549119   5.813   6.653   5.323 -0.3499  1.4126 -1.0324
  153MOL   H17649120   5.668   6.745   5.301  1.2388  1.1125  0.4958
  153MOL   H17749121   5.667   6.567   5.297  0.5424 -1.2064  1.4222
  153MOL   C17849122   5.660   6.906   5.745  0.3328 -0.1019  0.4563
  153MOL   C17949123   5.520   6.925   5.696  0.0251 -0.2743 -0.0034
  153MOL   C18049124   5.512   7.072   5.656  0.1704 -0.8040  0.4613
  153MOL   O18149125   5.501   7.154   5.745  0.6095 -0.6474 -0.4857
  153MOL   N18249126   5.523   7.115   5.527 -0.5196  0.2453  0.0377
  153MOL   C18349127   5.536   7.261   5.506  0.0288  0.2486 -0.7791
  153MOL   C18449128   5.565   7.032   5.414 -0.1227  0.3510  0.4249
  153MOL   H18549129   5.672   6.940   5.848 -0.4699 -0.2393  0.5991
  153MOL   H18649130   5.732   6.967   5.690 -0.8193 -0.0488 -1.0325
  153MOL   H18749131   5.490   6.861   5.613  0.3643 -0.7519  0.2398
  153MOL   H18849132   5.584   7.321   5.584 -0.1613 -1.6731  0.8400
  153MOL   H18949133   5.602   7.272   5.419  1.8159  1.1435  0.6593
  153MOL   H19049134   5.435   7.299   5.492 -0.1541 -0.0668 -0.3093
  153MOL   H19149135   5.654   6.976   5.440  0.7900  1.5608 -0.0571
  153MOL   H19249136   5.590   7.090   5.324 -0.4394 -0.3817 -0.1418
  153MOL   H19349137   5.495   6.955   5.382  1.2379 -0.2511 -1.2020
  153MOL   C19449138   5.421   6.868   5.806 -0.0018  0.1698  0.1046
  153MOL   C19549139   5.270   6.897   5.793  0.4338  0.9455  0.3688
  153MOL   C19649140   5.195   6.868   5.924 -0.0372 -0.0664 -0.3934
  153MOL   O19749141   5.196   6.746   5.960 -0.0222 -0.3172  0.3245
  153MOL   N19849142   5.153   6.964   6.011 -0.4309  0.4212  0.0461
  153MOL   C19949143   5.095   6.922   6.143 -0.0217  0.4056  0.1323
  153MOL   C20049144   5.178   7.106   5.991 -0.0128 -0.0337  0.4077
  153MOL   H20149145   5.438   6.761   5.817 -1.5938  0.0893  1.9848
  153MOL   H20249146   5.458   6.931   5.887  0.2996  0.4870 -0.2744
  153MOL   H20349147   5.275   7.004   5.771 -3.0580  0.9898 -0.5070
  153MOL   H20449148   5.044   7.002   6.197 -0.9147  0.0640 -0.1964
  153MOL   H20549149   5.018   6.845   6.133  1.7021 -1.2172 -1.0238
  153MOL   H20649150   5.174   6.879   6.204 -0.4098 -1.3649 -0.5746
  153MOL   H20749151   5.133   7.147   5.899 -1.4930  3.2885  2.4928
  153MOL   H20849152   5.285   7.122   5.995  0.3832 -1.4739 -2.7857
  153MOL   H20949153   5.128   7.159   6.072 -1.3612 -2.7408  1.3789
  153MOL   C21049154   5.204   6.818   5.677 -0.6219  0.6448  0.1405
  153MOL   C21149155   5.158   6.904   5.555  0.5644 -0.1184  0.1761
  153MOL   C21249156   5.055   7.018   5.591 -0.1080  0.5669  0.2540
  153MOL   O21349157   4.979   7.001   5.684  0.1687  0.2919 -0.4899
  153MOL   N21449158   5.058   7.129   5.519 -0.0411  0.6335 -0.1076
  153MOL   C21549159   5.133   7.140   5.395 -0.5144 -0.6279  0.5256
  153MOL   C21649160   4.998   7.247   5.577 -0.5801  0.2428  0.0285
  153MOL   H21749161   5.277   6.743   5.644 -0.3504  0.3128  1.4521
  153MOL   H21849162   5.120   6.755   5.708  0.1899  0.5796  2.3184
  153MOL   H21949163   5.254   6.948   5.528 -0.0237  0.9965 -0.1291
  153MOL   H22049164   5.242   7.146   5.402 -0.7959  4.7868  2.6269
  153MOL   H22149165   5.097   7.075   5.316 -0.2874  1.4301 -1.3071
  153MOL   H22249166   5.099   7.238   5.361  2.1537  1.1451  2.7070
  153MOL   H22349167   4.892   7.252   5.554 -0.7904 -0.7288  0.7577
  153MOL   H22449168   5.048   7.335   5.536  0.1924 -0.8152 -1.3260
  153MOL   H22549169   5.011   7.251   5.685  1.1293  0.0858 -0.1630
  153MOL   C22649170   5.107   6.819   5.447 -0.0680 -0.3560  0.0935
  153MOL   C22749171   5.002   6.705   5.486  0.6939 -0.2628  0.3792
  153MOL   C22849172   5.072   6.561   5.480  0.0877 -0.4459  0.2180
  153MOL   O22949173   5.139   6.531   5.380  0.1245 -0.1195  0.0891
  153MOL   N23049174   5.080   6.487   5.593  0.2096  0.0112 -0.2006
  153MOL   C23149175   5.007   6.509   5.716  0.4162  0.6489  0.2033
  153MOL   C23249176   5.171   6.369   5.594  0.1410 -0.4494  0.5855
  153MOL   H23349177   5.065   6.876   5.364 -0.6836  0.6185  1.0659
  153MOL   H23449178   5.183   6.765   5.390  0.1510 -0.1876  0.2272
  153MOL   H23549179   4.970   6.724   5.588 -1.2180 -1.1088 -0.0383
  153MOL   H23649180   5.064   6.555   5.797 -1.1064  0.2647  1.5123
  153MOL   H23749181   4.914   6.564   5.710 -0.0815 -0.3335 -1.3618
  153MOL   H23849182   4.992   6.411   5.763 -0.4826 -0.5910 -2.6002
  153MOL   H23949183   5.201   6.323   5.688 -2.9397 -2.1618  0.7834
  153MOL   H24049184   5.270   6.392   5.555 -0.2152  0.5655  0.2624
  153MOL   H24149185   5.118   6.292   5.538 -1.2099 -0.9697  2.5103
  153MOL   C24249186   4.880   6.699   5.387  0.2239 -0.0549 -0.6381
  153MOL   C24349187   4.764   6.804   5.408  0.3983 -1.2849 -0.3324
  153MOL   C24449188   4.700   6.782   5.548  0.6327 -0.5631 -0.4568
  153MOL   O24549189   4.678   6.666   5.584 -0.1616  0.3700  0.1296
  153MOL   N24649190   4.656   6.882   5.630  0.0577  0.1978 -0.0749
  153MOL   C24749191   4.646   7.028   5.584  0.5310 -1.2349 -0.4305
  153MOL   C24849192   4.619   6.860   5.776  0.5390 -0.0452 -0.1936
  153MOL   H24949193   4.910   6.703   5.282  0.7438  1.6950 -0.4354
  153MOL   H25049194   4.841   6.597   5.389 -1.3309  0.5182 -0.5471
  153MOL   H25149195   4.810   6.902   5.397  0.3067 -1.2454 -0.3608
  153MOL   H25249196   4.727   7.090   5.622 -1.0214  0.7166 -0.1932
  153MOL   H25349197   4.625   7.037   5.477 -1.0622 -0.5970 -0.0853
  153MOL   H25449198   4.561   7.081   5.629  2.0301 -0.2466  1.3040
  153MOL   H25549199   4.568   6.766   5.796  1.5917 -0.6199 -0.2058
  153MOL   H25649200   4.560   6.939   5.822 -1.0820 -1.4434  0.1853
  153MOL   H25749201   4.709   6.859   5.837 -0.4984 -1.9878  1.3698
  153MOL   C25849202   4.655   6.789   5.302 -0.1732 -0.7430  0.7117
  153MOL   C25949203   4.675   6.862   5.161  0.4224 -0.3106  0.0810
  153MOL   C26049204   4.634   7.009   5.168  0.3479 -0.1071  0.0157
  153MOL   O26149205   4.512   7.026   5.173  0.2005  0.1168 -0.4731
  153MOL   N26249206   4.722   7.111   5.176  0.6089 -0.5385 -0.2073
  153MOL   C26349207   4.676   7.245   5.213  0.0538  0.1035 -0.8893
  153MOL   C26449208   4.859   7.094   5.169 -0.5489 -0.0448 -0.2196
  153MOL   H26549209   4.656   6.681   5.288  2.7389 -1.0029  2.6600
  153MOL   H26649210   4.553   6.812   5.334 -0.9142 -1.2853 -1.1673
  153MOL   H26749211   4.781   6.847   5.138  0.6788  0.0536  1.0150
  153MOL   H26849212   4.747   7.276   5.290 -0.8072 -4.6339  1.9989
  153MOL   H26949213   4.705   7.303   5.125  3.3871  0.3021  0.2899
  153MOL   H27049214   4.574   7.259   5.249  0.7959  3.2023  0.1019
  153MOL   H27149215   4.898   7.038   5.083 -1.7459  1.2944 -1.6729
  153MOL   H27249216   4.893   7.034   5.253 -0.9273  0.1277  0.0558
  153MOL   H27349217   4.902   7.194   5.161 -2.3409  0.7636 -0.0267
  153MOL   C27449218   4.591   6.781   5.058  0.5772 -0.2037  0.7255
  153MOL   C27549219   4.598   6.799   4.896  0.1403  0.0566  0.1238
  153MOL   C27649220   4.743   6.816   4.841  0.1821 -0.9503 -0.2732
  153MOL   O27749221   4.797   6.929   4.850 -0.2323  0.0375 -0.5593
  153MOL   N27849222   4.807   6.709   4.786  0.5528  0.7231  0.6511
  153MOL   C27949223   4.937   6.718   4.739  0.7815 -0.9328 -0.2712
  153MOL   C28049224   4.744   6.586   4.761  0.3585 -0.1767  0.2283
  153MOL   H28149225   4.620   6.677   5.068  0.6063 -0.2066  0.5970
  153MOL   H28249226   4.485   6.782   5.084 -0.0161  2.2328 -1.5276
  153MOL   H28349227   4.552   6.709   4.854  1.3876 -0.4625 -0.1481
  153MOL   H28449228   4.996   6.805   4.768 -1.3865  0.8962 -1.1807
  153MOL   H28549229   4.995   6.632   4.772 -0.0855 -0.0473  3.9081
  153MOL   H28649230   4.921   6.712   4.631 -0.3440  1.6025 -0.2690
  153MOL   H28749231   4.660   6.587   4.692 -2.3932  0.1281  3.4091
  153MOL   H28849232   4.702   6.552   4.856  1.6422 -0.0148  0.8629
  153MOL   H28949233   4.807   6.504   4.729 -0.8853 -1.4087  0.8771
  153MOL   C29049234   4.511   6.914   4.846  0.5801 -0.4030  0.5736
  153MOL   C29149235   4.360   6.908   4.870  0.9386 -0.1261  0.4185
  153MOL   C29249236   4.294   6.815   4.762 -0.0218  0.1896 -0.6151
  153MOL   O29349237   4.297   6.861   4.648 -0.2103  0.0402 -0.1118
  153MOL   N29449238   4.247   6.688   4.789 -0.5403  0.5281  0.2082
  153MOL   C29549239   4.256   6.620   4.916 -0.0555 -0.7894 -0.1871
  153MOL   C29649240   4.223   6.595   4.674  0.2967  0.4981  0.1072
  153MOL   H29749241   4.540   7.010   4.890  0.0014  0.8559 -1.7512
  153MOL   H29849242   4.525   6.930   4.739 -2.2581  0.1377  0.2643
  153MOL   H29949243   4.346   6.878   4.973 -0.6761 -0.0734  0.2361
  153MOL   H30049244   4.357   6.581   4.924  0.7767  1.4454  0.8014
  153MOL   H30149245   4.251   6.688   5.001 -1.0056  1.3136 -1.8781
  153MOL   H30249246   4.184   6.539   4.928  1.9721 -2.3600  1.6154
  153MOL   H30349247   4.127   6.544   4.687 -0.4499  2.1466  1.2902
  153MOL   H30449248   4.300   6.519   4.662  1.2700  1.4776  0.1354
  153MOL   H30549249   4.216   6.644   4.577 -3.0504  0.8750  0.4767
  153MOL   C30649250   4.297   7.050   4.861  0.2215  0.1991 -0.4360
  153MOL   C30749251   4.146   7.066   4.892 -0.7958 -0.4023  0.5596
  153MOL   C30849252   4.119   7.026   5.035 -0.2319 -0.6195 -0.4293
  153MOL   O30949253   4.055   6.922   5.053  0.1443  0.6205  0.2622
  153MOL   N31049254   4.166   7.103   5.133  0.1223 -0.1705 -0.8011
  153MOL   C31149255   4.206   7.243   5.111  0.3331  0.0115  0.0778
  153MOL   C31249256   4.184   7.062   5.274  0.4079  0.0931 -0.0252
  153MOL   H31349257   4.356   7.119   4.921 -0.3436  0.4127 -0.1165
  153MOL   H31449258   4.306   7.084   4.758 -1.2019 -0.0067 -0.6470
  153MOL   H31549259   4.112   7.168   4.872  1.3518  0.9066  3.2289
  153MOL   H31649260   4.185   7.300   5.202 -0.8897 -1.8741  0.9975
  153MOL   H31749261   4.314   7.250   5.099  0.4010 -0.4425  0.4130
  153MOL   H31849262   4.160   7.301   5.030 -1.4087 -1.4790 -0.0196
  153MOL   H31949263   4.093   7.087   5.330 -1.1980 -1.1877 -2.0010
  153MOL   H32049264   4.256   7.126   5.325 -0.4725 -0.8279  2.4601
  153MOL   H32149265   4.206   6.957   5.294 -0.7828 -0.3326 -0.8829
  153MOL   H32249266   4.094   6.999   4.824 -0.2488 -0.4977  0.2411
  154MOL     C149267   4.646   4.956   1.942  0.4886  0.3624  0.3868
  154MOL     C249268   4.629   4.845   2.048  0.2317  0.5573 -0.0773
  154MOL     C349269   4.627   4.712   1.976 -0.2759 -0.4956 -1.1483
  154MOL     O449270   4.531   4.687   1.907  0.5046  0.2895 -0.1864
  154MOL     N549271   4.727   4.621   1.997  0.2062 -0.3029 -0.2624
  154MOL     C649272   4.711   4.488   1.945  0.0162  0.4401  0.1451
  154MOL     C749273   4.833   4.639   2.096  0.6375 -0.1786  0.7371
  154MOL     H849274   4.744   4.944   1.896 -0.7449 -1.3622 -1.9363
  154MOL     H949275   4.668   5.053   1.985 -2.1912  0.6686  1.1285
  154MOL    H1049276   4.708   4.845   2.123  0.5946  1.9188 -0.4557
  154MOL    H1149277   4.791   4.427   1.988 -1.2032 -1.3192  0.0066
  154MOL    H1249278   4.614   4.446   1.973  1.0722 -1.5668  0.8764
  154MOL    H1349279   4.704   4.481   1.836 -2.2895 -0.4631  0.3144
  154MOL    H1449280   4.790   4.645   2.196 -2.1254 -2.1443 -0.2854
  154MOL    H1549281   4.897   4.725   2.076 -0.2587  0.1627 -0.7676
  154MOL    H1649282   4.903   4.556   2.103  0.5511 -0.4107 -0.9157
  154MOL    H1749283   4.571   4.973   1.864  2.3568 -0.9322 -1.7688
  154MOL    C1849284   4.496   4.857   2.134  0.0729 -0.1335  0.1289
  154MOL    C1949285   4.420   4.989   2.151  0.0497  0.2680 -0.3825
  154MOL    C2049286   4.428   5.056   2.292 -0.3155 -0.1494 -0.1830
  154MOL    O2149287   4.372   4.988   2.378 -1.2918 -0.1220  0.0545
  154MOL    N2249288   4.478   5.181   2.306 -0.3537  1.0014  0.6226
  154MOL    C2349289   4.505   5.278   2.193 -0.3499 -0.3539 -0.4590
  154MOL    C2449290   4.499   5.231   2.440  0.3572  0.0596 -0.6148
  154MOL    H2549291   4.431   4.787   2.083 -1.0989  1.8058 -1.1062
  154MOL    H2649292   4.524   4.824   2.234  1.9382 -2.5780 -1.1452
  154MOL    H2749293   4.459   5.053   2.072 -2.7862  3.0868  0.3928
  154MOL    H2849294   4.555   5.364   2.236 -0.4587  0.0523 -1.1392
  154MOL    H2949295   4.589   5.250   2.129  0.2324  1.3120 -0.4293
  154MOL    H3049296   4.413   5.300   2.139 -0.5933  3.2052  1.2906
  154MOL    H3149297   4.502   5.152   2.514  3.2760 -0.1786 -0.9199
  154MOL    H3249298   4.414   5.299   2.435 -0.0846 -0.4351  0.0338
  154MOL    H3349299   4.591   5.287   2.454 -0.9794  1.8905  1.1692
  154MOL    C3449300   4.267   4.962   2.107  0.5907  0.0680  0.1888
  154MOL    C3549301   4.235   4.932   1.954 -0.0096  0.6992  0.4840
  154MOL    C3649302   4.288   5.050   1.860  0.2365 -0.1008  0.2779
  154MOL    O3749303   4.297   5.160   1.909 -0.0855 -0.7022  0.2446
  154MOL    N3849304   4.321   5.019   1.733 -0.1349  0.1132  0.2388
  154MOL    C3949305   4.265   4.900   1.659  0.0469  0.0591  0.2393
  154MOL    C4049306   4.402   5.113   1.659  0.4051  0.0933  0.5249
  154MOL    H4149307   4.220   4.889   2.172  1.6051  0.0110  0.8806
  154MOL    H4249308   4.212   5.056   2.117  1.3922  0.7914 -1.8654
  154MOL    H4349309   4.293   4.845   1.924  0.9837  2.0515 -1.6291
  154MOL    H4449310   4.291   4.908   1.553  4.0559  0.5115  1.1597
  154MOL    H4549311   4.314   4.806   1.687 -1.5405 -1.4609 -1.9889
  154MOL    H4649312   4.157   4.891   1.664  0.1478 -0.4295  1.7826
  154MOL    H4749313   4.417   5.083   1.555  2.4329  0.5118  0.6662
  154MOL    H4849314   4.503   5.125   1.699  0.3606  1.2392  0.3082
  154MOL    H4949315   4.356   5.210   1.643  0.8320 -0.0033 -1.4873
  154MOL    C5049316   4.085   4.901   1.931  0.0119 -0.1237 -0.6856
  154MOL    C5149317   4.053   4.751   1.958  0.1358 -0.5827 -0.1500
  154MOL    C5249318   4.114   4.655   1.850 -0.1030  0.2588  0.1719
  154MOL    O5349319   4.080   4.669   1.734  0.1674  0.2307 -0.0235
  154MOL    N5449320   4.202   4.558   1.877  0.5772 -0.3541  0.0159
  154MOL    C5549321   4.266   4.484   1.769  0.2109 -0.7643  0.4266
  154MOL    C5649322   4.242   4.518   2.012  0.1898  0.5919  0.5556
  154MOL    H5749323   4.027   4.962   2.000  0.9670 -0.4908  0.4617
  154MOL    H5849324   4.054   4.928   1.831 -0.1250 -1.8592 -1.1266
  154MOL    H5949325   4.081   4.716   2.057  0.7004 -0.4838 -0.2729
  154MOL    H6049326   4.239   4.378   1.769  0.3444 -0.8241 -2.3218
  154MOL    H6149327   4.232   4.507   1.668  0.4566 -0.4728  0.4112
  154MOL    H6249328   4.372   4.501   1.786  0.1857  0.0418 -0.1934
  154MOL    H6349329   4.260   4.607   2.073 -0.1391 -0.3676  2.0960
  154MOL    H6449330   4.328   4.452   2.022  0.5683  1.3504  2.7169
  154MOL    H6549331   4.155   4.466   2.053 -1.0250  0.1839 -2.4453
  154MOL    C6649332   3.899   4.737   1.958 -0.1935  0.5956  0.1621
  154MOL    C6749333   3.841   4.602   2.001 -0.2849  0.4582  1.0284
  154MOL    C6849334   3.687   4.592   1.957 -0.5078  0.3280 -0.0667
  154MOL    O6949335   3.615   4.694   1.960 -0.6108  0.0228  0.4927
  154MOL    N7049336   3.636   4.470   1.927 -0.5985 -0.8341  0.1065
  154MOL    C7149337   3.495   4.449   1.909  0.3889  0.1380 -0.2163
  154MOL    C7249338   3.704   4.341   1.934  0.3528  0.4707  0.2713
  154MOL    H7349339   3.865   4.824   2.016 -1.6132  0.2411 -0.1154
  154MOL    H7449340   3.863   4.761   1.858  0.3543 -1.3003 -0.5098
  154MOL    H7549341   3.897   4.521   1.955 -0.4721  0.1381  1.3623
  154MOL    H7649342   3.453   4.494   1.999  1.6707  0.6256  0.1585
  154MOL    H7749343   3.451   4.488   1.818  3.6832 -0.2948 -2.0760
  154MOL    H7849344   3.451   4.351   1.924 -0.1098  0.4252  0.2075
  154MOL    H7949345   3.800   4.341   1.882  0.6296 -1.2762  0.7396
  154MOL    H8049346   3.647   4.258   1.891 -1.6773  1.6219  0.6928
  154MOL    H8149347   3.729   4.326   2.039 -1.4683  0.5732  0.7406
  154MOL    C8249348   3.859   4.576   2.159 -0.0424  0.6640 -0.5979
  154MOL    C8349349   3.805   4.694   2.245  0.1011 -0.6951  0.4238
  154MOL    C8449350   3.903   4.804   2.281  0.0552 -0.2641 -0.1435
  154MOL    O8549351   4.010   4.773   2.326  0.7642  0.1271  0.1698
  154MOL    N8649352   3.871   4.940   2.261  0.3785  0.3717 -0.5884
  154MOL    C8749353   3.748   4.997   2.209 -0.1572  0.3438 -0.4411
  154MOL    C8849354   3.970   5.042   2.309 -0.2105 -0.5115 -0.0927
  154MOL    H8949355   3.805   4.483   2.180  0.9214  0.6079  1.7938
  154MOL    H9049356   3.962   4.545   2.179  0.2381  1.3680 -0.9214
  154MOL    H9149357   3.725   4.736   2.183 -2.4520 -3.2072  1.9244
  154MOL    H9249358   3.661   4.932   2.224  0.7830 -1.3759 -2.1792
  154MOL    H9349359   3.729   5.100   2.238  0.1650 -0.0972  1.4176
  154MOL    H9449360   3.737   4.997   2.101  2.0358  1.8965 -0.6912
  154MOL    H9549361   4.003   5.118   2.238 -0.5951 -0.8189 -0.6055
  154MOL    H9649362   4.054   4.992   2.357  0.6503 -0.7069 -1.7625
  154MOL    H9749363   3.912   5.107   2.373 -1.1366 -1.4689  0.0452
  154MOL    C9849364   3.733   4.642   2.376 -0.9057 -0.1217 -0.7557
  154MOL    C9949365   3.825   4.596   2.501 -0.1651 -0.8493 -0.2191
  154MOL   C10049366   3.924   4.477   2.474  0.2729  0.7471 -0.2019
  154MOL   O10149367   3.881   4.382   2.408  0.8445  0.4049 -0.3078
  154MOL   N10249368   4.049   4.480   2.519 -0.0053  0.1941 -0.9764
  154MOL   C10349369   4.151   4.386   2.471 -0.3562  0.0865  0.2736
  154MOL   C10449370   4.104   4.584   2.613 -0.3780  0.0290  0.0724
  154MOL   H10549371   3.664   4.720   2.408  0.2705  0.5177  0.2317
  154MOL   H10649372   3.669   4.560   2.341  0.3288 -1.8602  0.9878
  154MOL   H10749373   3.875   4.684   2.540 -0.1698 -1.0299  0.1913
  154MOL   H10849374   4.171   4.318   2.554  0.0286 -0.6893 -0.4444
  154MOL   H10949375   4.124   4.336   2.378  0.3793  1.3287 -0.6211
  154MOL   H11049376   4.247   4.434   2.452 -0.8196  0.8978 -0.0337
  154MOL   H11149377   4.126   4.677   2.562  1.2350  0.6145  1.7982
  154MOL   H11249378   4.201   4.553   2.653 -0.2098  2.5587  1.6858
  154MOL   H11349379   4.040   4.602   2.699 -1.9845 -1.2038 -0.8292
  154MOL   C11449380   3.744   4.572   2.629  0.0560  0.3275  0.4290
  154MOL   C11549381   3.650   4.451   2.637  0.2907 -0.2758 -0.2546
  154MOL   C11649382   3.508   4.463   2.583 -0.1176  0.4293 -0.4165
  154MOL   O11749383   3.434   4.550   2.636  0.2914  0.4411 -0.4576
  154MOL   N11849384   3.462   4.378   2.486  0.0665  0.1180 -0.8920
  154MOL   C11949385   3.545   4.284   2.408  0.1928 -0.2035 -0.0912
  154MOL   C12049386   3.321   4.375   2.453 -0.2915 -0.1840 -0.6384
  154MOL   H12149387   3.821   4.560   2.705  2.3329 -0.6534 -1.9632
  154MOL   H12249388   3.680   4.657   2.653 -1.5500 -0.6833 -0.1490
  154MOL   H12349389   3.703   4.375   2.580  1.0888  0.8761 -1.0529
  154MOL   H12449390   3.590   4.206   2.469  4.3882  2.8424  0.9261
  154MOL   H12549391   3.479   4.237   2.335 -1.6317 -0.0285  1.4267
  154MOL   H12649392   3.624   4.341   2.359  1.7545 -1.2593  1.1326
  154MOL   H12749393   3.253   4.415   2.528  0.6671 -2.2586  1.3792
  154MOL   H12849394   3.286   4.273   2.436  1.5640 -0.8511 -0.5200
  154MOL   H12949395   3.312   4.432   2.361  2.8667  0.5942 -0.5200
  154MOL   C13049396   3.643   4.390   2.782  0.0993 -0.1647 -0.2580
  154MOL   C13149397   3.613   4.489   2.893  0.1208 -0.1688 -0.5196
  154MOL   C13249398   3.741   4.545   2.959 -0.3955  0.0331 -0.2123
  154MOL   O13349399   3.835   4.466   2.976  0.1497  0.5871 -0.5149
  154MOL   N13449400   3.735   4.678   3.000  0.3617  0.5913  0.4751
  154MOL   C13549401   3.615   4.762   3.001 -0.0128  0.1949 -0.1215
  154MOL   C13649402   3.859   4.744   3.041 -0.6461 -0.2816  0.0120
  154MOL   H13749403   3.567   4.312   2.786  1.4081 -1.4291  0.5161
  154MOL   H13849404   3.733   4.331   2.801  0.6182  0.6339 -0.1839
  154MOL   H13949405   3.558   4.573   2.850 -1.2180 -0.2328  0.9985
  154MOL   H14049406   3.561   4.778   2.908  0.4336 -0.4337 -0.4951
  154MOL   H14149407   3.556   4.729   3.086  0.5703  0.7624  0.5058
  154MOL   H14249408   3.651   4.863   3.020  1.2830 -0.3679  0.4840
  154MOL   H14349409   3.862   4.849   3.014  0.3275 -0.6245 -1.2819
  154MOL   H14449410   3.948   4.707   2.989  0.1195  1.3361  0.1485
  154MOL   H14549411   3.868   4.744   3.150 -0.6685  4.9490  0.1359
  154MOL   C14649412   3.519   4.433   3.006  0.3975  0.1857 -0.3039
  154MOL   C14749413   3.573   4.347   3.129 -0.1135 -0.3107 -0.6137
  154MOL   C14849414   3.650   4.222   3.084 -0.8273 -0.2015 -0.0843
  154MOL   O14949415   3.611   4.155   2.990  0.6765  0.1190 -0.4262
  154MOL   N15049416   3.761   4.192   3.158 -0.6499 -0.4287  0.2573
  154MOL   C15149417   3.821   4.063   3.130 -1.5282 -0.2538  0.5961
  154MOL   C15249418   3.822   4.274   3.267 -0.6498  0.1213  0.4444
  154MOL   H15349419   3.466   4.520   3.046  0.2873 -0.5507  1.1753
  154MOL   H15449420   3.437   4.376   2.963 -0.5102 -0.5909  2.3784
  154MOL   H15549421   3.633   4.419   3.184  0.3157 -2.0386  1.2575
  154MOL   H15649422   3.773   3.991   3.197  2.2367 -3.1016  0.3932
  154MOL   H15749423   3.810   4.014   3.033  1.4493 -0.9923  0.6056
  154MOL   H15849424   3.927   4.060   3.152 -1.7027 -1.1989  1.3382
  154MOL   H15949425   3.861   4.370   3.234  1.5335 -0.7902  0.2647
  154MOL   H16049426   3.903   4.224   3.321  0.6257  0.7575 -0.8525
  154MOL   H16149427   3.745   4.287   3.344 -1.3074 -3.3409  0.4536
  154MOL   C16249428   3.457   4.317   3.225  0.3046  0.6739 -0.6210
  154MOL   C16349429   3.368   4.191   3.206 -0.3625 -0.4263 -0.7720
  154MOL   C16449430   3.267   4.214   3.097 -0.0233 -0.3795 -0.0189
  154MOL   O16549431   3.184   4.305   3.113  0.5466  0.1491  0.6060
  154MOL   N16649432   3.274   4.143   2.981 -0.2672  0.2634 -0.3324
  154MOL   C16749433   3.330   4.007   2.963 -0.2981  0.6401 -0.3405
  154MOL   C16849434   3.212   4.192   2.865 -0.2684  0.3990  0.2187
  154MOL   H16949435   3.483   4.332   3.329  1.4562  0.0370 -0.8139
  154MOL   H17049436   3.390   4.403   3.220 -0.2528  0.3644  1.2120
  154MOL   H17149437   3.429   4.106   3.175 -1.8136 -2.0359  0.6719
  154MOL   H17249438   3.301   3.969   2.866 -1.0871  0.6212 -0.1053
  154MOL   H17349439   3.428   3.979   3.002 -0.5630 -0.6167 -0.5542
  154MOL   H17449440   3.266   3.942   3.023  2.1439  0.7614  2.5346
  154MOL   H17549441   3.191   4.298   2.877 -0.0910  0.6478 -1.5129
  154MOL   H17649442   3.121   4.143   2.832  0.1161  2.0006 -3.5055
  154MOL   H17749443   3.284   4.187   2.783  1.4042  0.0481  1.6837
  154MOL   C17849444   3.290   4.151   3.338 -0.1628  0.5321  0.0485
  154MOL   C17949445   3.350   4.026   3.411 -0.3409  0.5842 -0.5272
  154MOL   C18049446   3.503   4.032   3.443 -0.8154 -0.5875 -0.0699
  154MOL   O18149447   3.578   3.972   3.362  0.2806 -0.0971  0.4011
  154MOL   N18249448   3.549   4.118   3.538  0.1552 -0.5266 -0.3221
  154MOL   C18349449   3.689   4.142   3.569 -0.2350  0.2457  0.5177
  154MOL   C18449450   3.463   4.191   3.633  0.2522  0.4928  0.4875
  154MOL   H18549451   3.278   4.234   3.408  2.3101  0.4901  0.5742
  154MOL   H18649452   3.184   4.141   3.317 -0.0588 -0.0500 -0.2197
  154MOL   H18749453   3.294   4.026   3.505  0.0700  1.1257 -0.2831
  154MOL   H18849454   3.721   4.246   3.577  2.1128 -0.4951  1.1387
  154MOL   H18949455   3.733   4.082   3.649 -0.5198  0.8616  1.1388
  154MOL   H19049456   3.751   4.109   3.485 -0.0926  2.0902 -0.1182
  154MOL   H19149457   3.459   4.131   3.724  0.8662  0.7448  0.6816
  154MOL   H19249458   3.360   4.209   3.602  0.3705  4.0380  1.9632
  154MOL   H19349459   3.497   4.292   3.657  1.1411  0.3063  0.0549
  154MOL   C19449460   3.311   3.894   3.348  0.4255 -0.4353  0.1177
  154MOL   C19549461   3.322   3.767   3.437 -0.0013 -0.3767 -0.3311
  154MOL   C19649462   3.331   3.637   3.350 -0.0297 -0.4796 -1.2651
  154MOL   O19749463   3.240   3.627   3.272  0.2916  0.0821 -0.1285
  154MOL   N19849464   3.436   3.555   3.359  0.1369  0.6099 -0.6174
  154MOL   C19949465   3.541   3.562   3.452  0.4441 -0.4273  0.0638
  154MOL   C20049466   3.421   3.427   3.285 -0.0800  0.0815  0.1770
  154MOL   H20149467   3.210   3.907   3.310  0.1240 -3.1564 -0.0880
  154MOL   H20249468   3.383   3.884   3.267  1.7244 -0.2004  1.2128
  154MOL   H20349469   3.421   3.791   3.475 -0.1035  0.1892 -0.4105
  154MOL   H20449470   3.621   3.628   3.419 -0.4897  1.4900  1.4971
  154MOL   H20549471   3.499   3.594   3.548  0.1358 -0.3185 -0.1046
  154MOL   H20649472   3.581   3.462   3.464  1.9326 -0.1251 -2.2384
  154MOL   H20749473   3.512   3.373   3.259 -0.3421 -0.2150 -0.1398
  154MOL   H20849474   3.370   3.438   3.190  0.9640  0.4184 -0.3488
  154MOL   H20949475   3.366   3.357   3.348  1.3143  0.8094  2.2568
  154MOL   C21049476   3.229   3.749   3.562  0.3688 -0.4418 -0.1328
  154MOL   C21149477   3.076   3.742   3.539  0.7315  0.3301  0.0334
  154MOL   C21249478   3.020   3.889   3.524  0.2919 -0.1256 -0.3995
  154MOL   O21349479   3.040   3.964   3.617  0.2227  0.2986  0.7355
  154MOL   N21449480   2.940   3.929   3.417 -0.1581 -0.0316  0.2484
  154MOL   C21549481   2.920   4.074   3.396 -0.7100  0.6714  0.1426
  154MOL   C21649482   2.899   3.830   3.312 -0.2959  0.0356 -0.1085
  154MOL   H21749483   3.262   3.656   3.607  0.4800 -1.2617 -1.8834
  154MOL   H21849484   3.242   3.827   3.637 -0.0122  1.2176 -1.7452
  154MOL   H21949485   3.063   3.687   3.446 -1.4580 -2.8908  2.1386
  154MOL   H22049486   2.976   4.147   3.454 -0.5205  0.2194  0.5321
  154MOL   H22149487   2.939   4.104   3.293 -2.9376  1.7911  0.0417
  154MOL   H22249488   2.817   4.104   3.412 -0.4903  0.9411  1.0466
  154MOL   H22349489   2.861   3.736   3.353  0.8559 -0.6004 -0.4738
  154MOL   H22449490   2.968   3.818   3.228 -1.7965 -0.9308 -1.2373
  154MOL   H22549491   2.810   3.874   3.267 -0.7998 -0.0859  0.7777
  154MOL   C22649492   3.006   3.665   3.650 -0.1782  0.0242 -0.3208
  154MOL   C22749493   2.999   3.510   3.626 -0.4451  0.0469  0.0302
  154MOL   C22849494   2.884   3.460   3.535 -0.2540  0.1104  0.5262
  154MOL   O22949495   2.769   3.501   3.562  0.0120 -0.1903  0.1208
  154MOL   N23049496   2.906   3.375   3.443 -0.0335  0.0597 -0.1328
  154MOL   C23149497   2.812   3.344   3.334  1.5198  0.4457  1.2677
  154MOL   C23249498   3.029   3.293   3.430  0.4182  0.1350  0.6514
  154MOL   H23349499   3.027   3.699   3.751 -0.9428 -0.7943  0.1153
  154MOL   H23449500   2.900   3.693   3.657  0.1307  1.1954 -0.1497
  154MOL   H23549501   3.095   3.469   3.594 -0.3172 -2.4942  3.3737
  154MOL   H23649502   2.746   3.429   3.317  0.7902  0.3366  3.3596
  154MOL   H23749503   2.853   3.317   3.237 -1.1026 -0.9709  0.5099
  154MOL   H23849504   2.745   3.261   3.358 -0.3401  1.0533 -1.6530
  154MOL   H23949505   3.116   3.347   3.392 -0.8319  2.7323  1.3715
  154MOL   H24049506   3.021   3.195   3.384 -2.4633  1.1311 -1.1477
  154MOL   H24149507   3.060   3.268   3.531 -0.3620  2.8243  1.6015
  154MOL   C24249508   2.974   3.433   3.761  0.1755  0.4690 -0.3796
  154MOL   C24349509   3.098   3.431   3.858 -0.4695  0.0657 -0.2914
  154MOL   C24449510   3.213   3.336   3.810  0.1757 -0.2830 -0.0993
  154MOL   O24549511   3.186   3.226   3.771  0.0559 -0.2453  0.4022
  154MOL   N24649512   3.344   3.380   3.806 -0.1708  0.1375  0.0445
  154MOL   C24749513   3.449   3.301   3.750 -0.3955  0.1668 -0.4030
  154MOL   C24849514   3.388   3.505   3.861 -0.6288  0.0588  0.1040
  154MOL   H24949515   2.890   3.483   3.810 -0.3040 -0.7623  0.0595
  154MOL   H25049516   2.943   3.330   3.743  0.5031  0.4289 -0.7128
  154MOL   H25149517   3.139   3.531   3.843 -1.8410  0.8036  0.6950
  154MOL   H25249518   3.438   3.193   3.756 -0.0689  0.1318 -0.4227
  154MOL   H25349519   3.472   3.334   3.649 -0.5098  0.2579 -0.3987
  154MOL   H25449520   3.545   3.320   3.798  0.6922 -1.5617 -1.8149
  154MOL   H25549521   3.344   3.528   3.958 -1.4499  0.6185 -0.3937
  154MOL   H25649522   3.377   3.573   3.777  0.2871  0.7692  0.5535
  154MOL   H25749523   3.493   3.499   3.890 -0.5691  2.0269  0.3534
  154MOL   C25849524   3.059   3.392   4.005 -0.8540 -0.2854 -0.6926
  154MOL   C25949525   2.942   3.468   4.075 -0.7824  0.0668  0.5876
  154MOL   C26049526   2.968   3.621   4.070 -0.7256  0.8515 -0.0816
  154MOL   O26149527   3.081   3.667   4.047  0.6727  0.2861 -0.0213
  154MOL   N26249528   2.869   3.709   4.090  0.2638 -0.5599 -0.0364
  154MOL   C26349529   2.887   3.854   4.089 -0.2555  0.1590  0.0765
  154MOL   C26449530   2.721   3.667   4.102 -0.2033  0.0919  0.2076
  154MOL   H26549531   3.035   3.286   3.998 -0.0428 -0.4112 -1.7510
  154MOL   H26649532   3.149   3.394   4.067 -1.9589  2.8601  0.9331
  154MOL   H26749533   2.847   3.459   4.021  1.9551  1.4018 -4.7855
  154MOL   H26849534   2.959   3.887   4.164  0.5449  1.4167 -1.2114
  154MOL   H26949535   2.925   3.887   3.992  1.9202 -4.3451 -0.7507
  154MOL   H27049536   2.795   3.910   4.102  0.8011  1.5184  1.7462
  154MOL   H27149537   2.679   3.667   4.002 -0.8244 -0.7599  0.4557
  154MOL   H27249538   2.665   3.739   4.162  0.9662  1.5118 -0.3918
  154MOL   H27349539   2.702   3.568   4.144  1.8418  0.5416  2.3001
  154MOL   C27449540   2.931   3.423   4.223 -0.7495  0.0146 -0.3409
  154MOL   C27549541   2.892   3.277   4.241  0.5136 -0.8710  0.4472
  154MOL   C27649542   2.737   3.271   4.231 -0.4209 -0.6581  0.3622
  154MOL   O27749543   2.672   3.329   4.315  0.0995 -0.3998  0.1243
  154MOL   N27849544   2.671   3.202   4.136  0.7466  0.2740  0.3350
  154MOL   C27949545   2.718   3.158   4.001  0.5167  0.0317  0.5524
  154MOL   C28049546   2.529   3.193   4.155  0.6855  0.6615 -0.2162
  154MOL   H28149547   3.030   3.443   4.263 -0.5017 -0.4939 -0.6937
  154MOL   H28249548   2.870   3.491   4.283 -0.8882  0.0150 -0.4788
  154MOL   H28349549   2.933   3.202   4.173 -0.5815 -0.8387 -0.2546
  154MOL   H28449550   2.824   3.140   3.983  0.1356  0.3249 -2.1134
  154MOL   H28549551   2.673   3.062   3.977 -2.1277  0.9228  1.6895
  154MOL   H28649552   2.686   3.238   3.934  1.0866 -1.1461 -1.1327
  154MOL   H28749553   2.471   3.283   4.176 -2.2416 -1.4113  0.8720
  154MOL   H28849554   2.517   3.122   4.236  2.1802 -1.5401 -1.8596
  154MOL   H28949555   2.481   3.150   4.067 -0.2997  0.0225  0.6265
  154MOL   C29049556   2.947   3.235   4.377  0.1978  0.1055  0.1867
  154MOL   C29149557   2.899   3.099   4.440  0.2635 -0.8424 -0.3023
  154MOL   C29249558   2.947   3.091   4.594 -1.0426 -0.3831 -0.6780
  154MOL   O29349559   3.061   3.129   4.622  0.2450 -0.2903 -0.2076
  154MOL   N29449560   2.861   3.045   4.690  0.2503 -0.1834  0.1463
  154MOL   C29549561   2.894   3.042   4.833 -1.0942  0.0401  0.4155
  154MOL   C29649562   2.732   2.978   4.677  0.0024  0.2546 -0.0910
  154MOL   H29749563   3.056   3.235   4.375  0.1865  1.3820 -0.8636
  154MOL   H29849564   2.923   3.308   4.454 -0.6013  0.5927 -0.5217
  154MOL   H29949565   2.790   3.102   4.439  0.2202 -1.3607  1.0184
  154MOL   H30049566   2.954   3.131   4.854 -2.9648  1.3656  0.2266
  154MOL   H30149567   2.812   3.038   4.905 -0.5508  3.4925  1.3584
  154MOL   H30249568   2.965   2.963   4.857 -0.4259 -0.0261 -1.6597
  154MOL   H30349569   2.762   2.877   4.703  0.0120  0.8098  2.1353
  154MOL   H30449570   2.694   2.967   4.575 -0.1971 -0.5195  0.0707
  154MOL   H30549571   2.652   3.019   4.739 -0.1584 -1.0614  0.5903
  154MOL   C30649572   2.946   2.976   4.365  0.3578 -0.5527  0.4565
  154MOL   C30749573   3.105   2.953   4.355  0.0237  0.3075 -0.3306
  154MOL   C30849574   3.157   2.828   4.422 -0.6303  0.2772 -0.3652
  154MOL   O30949575   3.085   2.740   4.473 -0.0790 -0.2254  0.2705
  154MOL   N31049576   3.294   2.808   4.429 -0.2197 -0.3051 -0.4482
  154MOL   C31149577   3.358   2.687   4.483 -0.7144 -0.4596  0.3627
  154MOL   C31249578   3.403   2.912   4.399 -0.4671 -0.5457  0.0013
  154MOL   H31349579   2.892   2.888   4.401  1.2880 -0.8508  1.1497
  154MOL   H31449580   2.906   2.977   4.263  0.1273  3.3954  0.5427
  154MOL   H31549581   3.125   2.951   4.248 -2.2732  2.1021 -0.8422
  154MOL   H31649582   3.466   2.696   4.496 -0.9616  1.7719  1.0620
  154MOL   H31749583   3.315   2.669   4.581 -0.4994 -1.0154  0.3611
  154MOL   H31849584   3.323   2.602   4.424 -0.0977 -0.0654 -0.5985
  154MOL   H31949585   3.374   2.996   4.336  0.9435  0.5953  0.8638
  154MOL   H32049586   3.496   2.867   4.365  1.0974  1.2766  1.7761
  154MOL   H32149587   3.435   2.966   4.487 -1.7626  2.1825 -1.1563
  154MOL   H32249588   3.153   3.037   4.405 -0.2038  1.3490 -1.8324
  155MOL     C149589   2.207   7.251   6.551 -1.2355 -0.0532  0.0934
  155MOL     C249590   2.212   7.395   6.488 -0.7734 -0.0024 -0.2102
  155MOL     C349591   2.079   7.465   6.504 -0.1597 -0.6578 -0.1120
  155MOL     O449592   1.991   7.406   6.440 -0.3291 -0.1495  0.0747
  155MOL     N549593   2.056   7.576   6.584 -0.5344 -1.0518 -0.1435
  155MOL     C649594   2.158   7.633   6.673  0.7763 -0.0650  0.1761
  155MOL     C749595   1.931   7.630   6.618 -0.1094 -0.5055  0.7450
  155MOL     H849596   2.302   7.202   6.530  0.7082  2.6012  2.3342
  155MOL     H949597   2.123   7.189   6.521 -0.8987  0.7585 -2.7007
  155MOL    H1049598   2.290   7.447   6.542 -0.8662 -0.2122  0.1284
  155MOL    H1149599   2.242   7.651   6.605 -0.9432 -1.9537 -2.5567
  155MOL    H1249600   2.134   7.731   6.714  0.4574 -0.3080  0.5690
  155MOL    H1349601   2.207   7.574   6.750  2.0370  3.1079  1.8898
  155MOL    H1449602   1.860   7.619   6.536 -0.2543  2.8684  0.3549
  155MOL    H1549603   1.935   7.735   6.646 -0.5779  0.2323 -1.8145
  155MOL    H1649604   1.897   7.576   6.707 -1.4443  1.0516  1.1998
  155MOL    H1749605   2.203   7.264   6.659 -1.0264  2.8434 -0.2059
  155MOL    C1849606   2.261   7.403   6.338 -0.3412 -0.7574  0.4693
  155MOL    C1949607   2.412   7.450   6.329  0.3316  0.1002  0.1994
  155MOL    C2049608   2.428   7.589   6.387  0.4514 -0.1723  0.0193
  155MOL    O2149609   2.343   7.675   6.354  0.2429  0.0877  0.3171
  155MOL    N2249610   2.531   7.624   6.470 -0.2199  0.0004  0.3793
  155MOL    C2349611   2.647   7.541   6.490 -0.6200  0.4303  0.1400
  155MOL    C2449612   2.532   7.759   6.518 -0.1762  1.0221  0.0769
  155MOL    H2549613   2.242   7.305   6.294 -0.6419 -1.7134  2.6493
  155MOL    H2649614   2.198   7.473   6.283  1.2819  1.5457  1.4751
  155MOL    H2749615   2.474   7.383   6.388 -0.9968 -1.2055  0.1547
  155MOL    H2849616   2.619   7.452   6.546  1.1384 -0.4246 -0.2859
  155MOL    H2949617   2.689   7.501   6.397 -0.1698 -2.4624  1.5400
  155MOL    H3049618   2.719   7.589   6.557  1.0915 -0.9751 -0.6434
  155MOL    H3149619   2.474   7.768   6.610  1.1368 -0.4588  1.0609
  155MOL    H3249620   2.491   7.831   6.447 -1.1103  0.6970  0.2799
  155MOL    H3349621   2.634   7.792   6.538 -0.6799  2.5824  0.0994
  155MOL    C3449622   2.478   7.447   6.188 -0.0601 -0.4092 -0.5282
  155MOL    C3549623   2.505   7.300   6.144  0.2786  0.4725 -0.4451
  155MOL    C3649624   2.658   7.287   6.113  0.8165  0.0854 -0.2673
  155MOL    O3749625   2.708   7.359   6.024 -0.7736 -0.1104 -0.0537
  155MOL    N3849626   2.739   7.204   6.176 -0.4109  0.1508 -0.6798
  155MOL    C3949627   2.869   7.165   6.122  0.3249  0.1818  0.0747
  155MOL    C4049628   2.714   7.143   6.316  0.5973 -0.0649  1.2866
  155MOL    H4149629   2.404   7.504   6.132 -1.2817 -1.4310  0.0216
  155MOL    H4249630   2.566   7.511   6.185 -0.0923 -0.2759  0.8045
  155MOL    H4349631   2.475   7.239   6.229 -3.6073  3.1923  0.2413
  155MOL    H4449632   2.852   7.077   6.060  1.3315 -0.5812  0.8708
  155MOL    H4549633   2.921   7.243   6.067  0.0023  0.8836  0.7587
  155MOL    H4649634   2.934   7.129   6.201 -0.7322 -1.9342  0.0094
  155MOL    H4749635   2.774   7.058   6.349  0.5067  0.1100  1.9129
  155MOL    H4849636   2.610   7.110   6.320 -0.1098  1.8650 -0.5412
  155MOL    H4949637   2.724   7.218   6.394  0.3361  1.2668  0.0637
  155MOL    C5049638   2.425   7.262   6.015 -0.2568  0.5013 -0.7750
  155MOL    C5149639   2.324   7.147   6.036 -0.2278  0.2629 -0.3012
  155MOL    C5249640   2.394   7.017   6.074 -0.6870  0.2472  0.1416
  155MOL    O5349641   2.499   6.986   6.009  0.0555 -0.6557  0.1646
  155MOL    N5449642   2.346   6.942   6.170 -0.1309  0.2364  0.4597
  155MOL    C5549643   2.235   6.991   6.255  0.2764 -0.5440 -0.2512
  155MOL    C5649644   2.426   6.836   6.222 -0.1204  0.3391 -0.2499
  155MOL    H5749645   2.372   7.349   5.977  0.5481  1.4668  0.3072
  155MOL    H5849646   2.493   7.242   5.932  0.1929 -2.7858  0.2761
  155MOL    H5949647   2.251   7.186   6.107 -0.9134  0.3951 -1.0616
  155MOL    H6049648   2.138   6.991   6.205  0.3999  1.6136 -0.5576
  155MOL    H6149649   2.234   6.930   6.345  0.5189  0.9005  0.7600
  155MOL    H6249650   2.252   7.089   6.301 -3.3700 -0.2846  0.7074
  155MOL    H6349651   2.519   6.884   6.253 -1.7574  2.2948  1.8009
  155MOL    H6449652   2.463   6.767   6.146  2.8138  2.7188 -1.0588
  155MOL    H6549653   2.382   6.767   6.294 -1.2473  1.2388 -0.0537
  155MOL    C6649654   2.236   7.120   5.906 -0.4863  0.2446 -0.6282
  155MOL    C6749655   2.120   7.224   5.880  0.6264  0.0482  0.3442
  155MOL    C6849656   2.002   7.205   5.977  0.8248  0.1610 -0.7564
  155MOL    O6949657   1.953   7.094   5.992  0.0423  0.0113 -0.0091
  155MOL    N7049658   1.961   7.314   6.047  0.0741 -0.2957  0.2218
  155MOL    C7149659   2.007   7.453   6.012 -0.2585  0.2122  0.5549
  155MOL    C7249660   1.871   7.295   6.166  0.3978  0.2566  0.3014
  155MOL    H7349661   2.300   7.133   5.819  1.8847 -1.7291  0.7526
  155MOL    H7449662   2.204   7.017   5.893 -0.1327 -0.1374  1.3512
  155MOL    H7549663   2.171   7.319   5.898  0.3945  0.1681  0.3864
  155MOL    H7649664   1.984   7.520   6.095  1.6840  1.5928  0.0021
  155MOL    H7749665   2.113   7.475   6.004 -0.0522 -0.3828  1.5559
  155MOL    H7849666   1.962   7.482   5.917  2.9221  0.5202 -0.9109
  155MOL    H7949667   1.792   7.223   6.147  0.4665  0.3123 -0.1865
  155MOL    H8049668   1.830   7.388   6.206  0.1993 -0.0864  0.9019
  155MOL    H8149669   1.931   7.255   6.248  0.3469 -0.2491  0.0905
  155MOL    C8249670   2.071   7.230   5.738  0.4164  0.1864  0.1855
  155MOL    C8349671   2.009   7.100   5.685 -0.4871  0.0631 -0.0732
  155MOL    C8449672   2.064   7.060   5.540  0.0928 -0.3596 -0.4919
  155MOL    O8549673   2.038   7.150   5.456  0.1282 -0.3246 -0.6610
  155MOL    N8649674   2.124   6.941   5.518 -0.4230  0.5484 -0.3700
  155MOL    C8749675   2.161   6.852   5.621  0.1723  0.0056 -0.1065
  155MOL    C8849676   2.153   6.904   5.383  0.6723 -0.0833 -0.3336
  155MOL    H8949677   2.005   7.316   5.733 -0.2915 -0.3281  0.5688
  155MOL    H9049678   2.161   7.250   5.679 -1.8567  4.5337 -2.0428
  155MOL    H9149679   2.016   7.016   5.755 -0.6204 -0.6683 -0.9327
  155MOL    H9249680   2.247   6.887   5.679 -0.1595  1.1319 -0.2998
  155MOL    H9349681   2.076   6.829   5.686 -0.5485  0.5417 -0.8523
  155MOL    H9449682   2.193   6.754   5.585  0.6860  0.2503 -0.3182
  155MOL    H9549683   2.131   6.800   5.358 -0.8140 -0.7325  3.3923
  155MOL    H9649684   2.262   6.910   5.385  0.6277  0.6297  0.2385
  155MOL    H9749685   2.116   6.974   5.307  1.4642  0.7564  0.0498
  155MOL    C9849686   1.859   7.120   5.678  0.4461  0.0810 -0.2617
  155MOL    C9949687   1.768   6.997   5.656  0.3770 -0.3959 -0.1788
  155MOL   C10049688   1.634   7.057   5.602 -0.2019  0.2953 -0.4086
  155MOL   O10149689   1.537   7.056   5.676 -0.6436  0.1967 -0.0734
  155MOL   N10249690   1.634   7.106   5.472 -0.3250  0.2122 -0.2729
  155MOL   C10349691   1.747   7.084   5.378 -0.2842  0.2435 -0.0020
  155MOL   C10449692   1.513   7.168   5.420 -0.1010  0.2113  0.0376
  155MOL   H10549693   1.825   7.162   5.773  1.0203  1.2393 -0.5670
  155MOL   H10649694   1.840   7.205   5.613  1.2790  0.8866  0.5310
  155MOL   H10749695   1.804   6.934   5.575 -0.3731  0.5235 -1.2345
  155MOL   H10849696   1.801   6.990   5.387  0.0116  0.0215 -3.3879
  155MOL   H10949697   1.711   7.071   5.276 -0.6185  1.3095 -0.0295
  155MOL   H11049698   1.823   7.162   5.371  0.2292 -0.2256  0.3222
  155MOL   H11149699   1.547   7.254   5.363  1.2388 -0.4794 -0.2228
  155MOL   H11249700   1.463   7.202   5.511  0.6250  0.9597  0.1633
  155MOL   H11349701   1.440   7.118   5.356  1.4331  1.2855 -2.5958
  155MOL   C11449702   1.751   6.911   5.790 -0.0035 -0.0067  0.5499
  155MOL   C11549703   1.695   6.770   5.769  0.6442  0.3499  0.0792
  155MOL   C11649704   1.638   6.708   5.903  0.5645  0.3478 -0.6146
  155MOL   O11749705   1.720   6.671   5.990  0.1187  0.4892 -0.1839
  155MOL   N11849706   1.506   6.717   5.928 -0.0317 -0.2158  0.7033
  155MOL   C11949707   1.471   6.726   6.071 -0.3394 -0.0866 -0.1638
  155MOL   C12049708   1.403   6.716   5.820  0.3379 -0.1905  0.5743
  155MOL   H12149709   1.840   6.903   5.853 -0.6359  2.1437  1.7961
  155MOL   H12249710   1.694   6.969   5.863 -0.2639 -0.5697  0.7925
  155MOL   H12349711   1.617   6.783   5.694 -1.1266 -0.3055  1.7832
  155MOL   H12449712   1.363   6.737   6.082  0.1137  2.6629  2.0527
  155MOL   H12549713   1.515   6.635   6.113 -0.5588  0.1942  0.6814
  155MOL   H12649714   1.516   6.814   6.115  0.6320 -0.6666  0.0182
  155MOL   H12749715   1.313   6.676   5.865  0.0553  1.1061  1.1800
  155MOL   H12849716   1.427   6.651   5.735  1.4592  1.0392 -0.0625
  155MOL   H12949717   1.389   6.819   5.787  0.9356  0.1411  1.3521
  155MOL   C13049718   1.799   6.685   5.703  0.1700  0.5102 -0.1761
  155MOL   C13149719   1.742   6.556   5.641  0.1072  0.3852  0.6689
  155MOL   C13249720   1.869   6.468   5.615  0.8313 -0.2755  0.9313
  155MOL   O13349721   1.948   6.512   5.525 -0.0424  0.0101 -0.4800
  155MOL   N13449722   1.878   6.345   5.671  0.5660 -0.5984 -0.6664
  155MOL   C13549723   1.794   6.290   5.772 -0.2037  0.1017 -0.0550
  155MOL   C13649724   1.984   6.254   5.628  0.7709  0.0132  0.2442
  155MOL   H13749725   1.858   6.745   5.634 -0.4961  0.2844 -0.9434
  155MOL   H13849726   1.871   6.655   5.779 -0.9032  1.5205  1.2956
  155MOL   H13949727   1.669   6.505   5.703  1.1575 -1.9182  0.0924
  155MOL   H14049728   1.852   6.215   5.825 -1.4251 -0.3076  0.7139
  155MOL   H14149729   1.752   6.364   5.840  2.4871  0.2754  1.5224
  155MOL   H14249730   1.704   6.250   5.726  0.7283 -1.4870 -0.5275
  155MOL   H14349731   1.978   6.157   5.676  0.1738 -0.1889 -0.2324
  155MOL   H14449732   2.087   6.289   5.630  0.5558  0.5811  2.3831
  155MOL   H14549733   1.960   6.222   5.527  1.0075 -2.2105  0.8648
  155MOL   C14649734   1.662   6.578   5.514  0.0140  0.2222  0.0399
  155MOL   C14749735   1.606   6.457   5.429 -0.1269  0.6019  0.1138
  155MOL   C14849736   1.563   6.501   5.292  0.4319  0.1834 -0.0304
  155MOL   O14949737   1.442   6.540   5.283 -0.4443  0.1406 -0.5179
  155MOL   N15049738   1.648   6.512   5.187  0.1911  0.1966 -0.2895
  155MOL   C15149739   1.585   6.539   5.056 -0.3056  0.2257  0.8207
  155MOL   C15249740   1.795   6.486   5.193  1.2063  0.0049 -0.3308
  155MOL   H15349741   1.574   6.635   5.544  0.5495  1.0814  0.0012
  155MOL   H15449742   1.716   6.658   5.462 -0.2632  0.7753  0.5869
  155MOL   H15549743   1.696   6.397   5.411 -0.7517 -0.0197 -1.0572
  155MOL   H15649744   1.656   6.519   4.975  1.8635  1.8054  2.2677
  155MOL   H15749745   1.498   6.476   5.043 -1.7047  1.3651  4.1521
  155MOL   H15849746   1.560   6.643   5.036 -0.7777 -0.1848 -0.8182
  155MOL   H15949747   1.842   6.503   5.096  0.1863  4.3175 -0.1806
  155MOL   H16049748   1.821   6.388   5.234 -2.4480 -0.1999  1.7521
  155MOL   H16149749   1.838   6.563   5.257 -0.0155 -1.4462  2.3490
  155MOL   C16249750   1.507   6.352   5.500 -0.7033 -0.2347  0.3780
  155MOL   C16349751   1.458   6.228   5.421  0.1006  0.2579  0.5292
  155MOL   C16449752   1.326   6.167   5.473 -0.2266  0.2154 -0.4633
  155MOL   O16549753   1.333   6.080   5.565 -0.1177 -0.0144 -0.1335
  155MOL   N16649754   1.204   6.200   5.419 -0.0918  0.2231  0.5252
  155MOL   C16749755   1.080   6.134   5.459  0.0547  0.4342 -0.1162
  155MOL   C16849756   1.183   6.294   5.320  0.8352 -0.9830 -0.2741
  155MOL   H16949757   1.551   6.312   5.591 -1.5802 -2.8115 -0.2852
  155MOL   H17049758   1.429   6.420   5.535 -0.5399 -0.6774  1.6297
  155MOL   H17149759   1.438   6.267   5.321 -0.0602 -2.8321 -0.6956
  155MOL   H17249760   1.035   6.194   5.539 -3.0327 -1.2583 -0.4969
  155MOL   H17349761   1.002   6.145   5.383  0.5918  1.3433 -0.5418
  155MOL   H17449762   1.083   6.032   5.495  2.7029  0.7681  0.6995
  155MOL   H17549763   1.169   6.254   5.219  1.1326 -0.5412 -0.4924
  155MOL   H17649764   1.260   6.370   5.308 -0.7610  0.6161 -0.5614
  155MOL   H17749765   1.093   6.354   5.328  0.7422 -0.9108 -1.6198
  155MOL   C17849766   1.576   6.126   5.406  0.4476 -0.2089 -0.2532
  155MOL   C17949767   1.578   6.031   5.284 -1.0629  0.0715 -0.1284
  155MOL   C18049768   1.616   6.096   5.152 -0.2715 -0.0866 -0.6874
  155MOL   O18149769   1.527   6.156   5.093  0.3182 -0.7540  0.3969
  155MOL   N18249770   1.747   6.106   5.112 -0.2405 -0.1170  1.0802
  155MOL   C18349771   1.861   6.035   5.174 -0.0125  0.3757  0.2710
  155MOL   C18449772   1.786   6.179   4.996 -0.3948 -0.5938 -0.8474
  155MOL   H18549773   1.670   6.182   5.407  0.0927  0.3916  0.0597
  155MOL   H18649774   1.573   6.064   5.496 -1.5917 -2.0667 -1.5475
  155MOL   H18749775   1.656   5.955   5.297  0.4424  1.2785 -1.9019
  155MOL   H18849776   1.867   5.931   5.139 -1.4810  0.4427 -0.1999
  155MOL   H18949777   1.957   6.066   5.132  0.7079 -0.1103  1.5375
  155MOL   H19049778   1.880   6.040   5.281 -2.9221 -1.3859  0.9329
  155MOL   H19149779   1.743   6.118   4.916  1.2135 -0.8646 -1.5215
  155MOL   H19249780   1.893   6.178   4.974 -0.1388  2.4712 -0.0288
  155MOL   H19349781   1.739   6.276   4.978 -2.8482 -0.9611  2.9071
  155MOL   C19449782   1.452   5.948   5.268  1.1143 -0.4920 -0.8374
  155MOL   C19549783   1.475   5.818   5.192  0.6626 -0.0562  0.1173
  155MOL   C19649784   1.352   5.772   5.109  0.2737  0.8883 -0.1768
  155MOL   O19749785   1.255   5.728   5.166  0.4370  0.0549 -0.2582
  155MOL   N19849786   1.359   5.778   4.972  0.4041 -0.1941 -0.4159
  155MOL   C19949787   1.244   5.720   4.898 -0.5541  0.7684 -0.3034
  155MOL   C20049788   1.460   5.845   4.891  0.3255  0.2258  0.2476
  155MOL   H20149789   1.402   5.931   5.363  0.8196 -1.3885 -1.1397
  155MOL   H20249790   1.376   6.000   5.210 -0.2434 -1.5165 -0.0196
  155MOL   H20349791   1.551   5.836   5.116  1.1826  0.2521  0.7086
  155MOL   H20449792   1.182   5.641   4.942  2.2632  0.4927  3.4698
  155MOL   H20549793   1.195   5.805   4.852 -1.0906  1.4275  1.4623
  155MOL   H20649794   1.285   5.666   4.813  0.8277  0.4499  0.5487
  155MOL   H20749795   1.492   5.938   4.938  0.4265  0.3056  0.0175
  155MOL   H20849796   1.428   5.869   4.789  2.9670  2.2903 -0.1634
  155MOL   H20949797   1.539   5.771   4.877  0.4412 -0.2339  3.0961
  155MOL   C21049798   1.530   5.719   5.299  0.1090 -0.2862 -0.0150
  155MOL   C21149799   1.655   5.645   5.262  0.4748 -0.5717  0.3889
  155MOL   C21249800   1.658   5.588   5.112 -0.6244 -0.9876 -0.2478
  155MOL   O21349801   1.552   5.547   5.060 -0.2533  0.0974 -0.2395
  155MOL   N21449802   1.775   5.584   5.043  0.1435  0.0778  0.0575
  155MOL   C21549803   1.909   5.609   5.093 -0.0194 -0.1546  0.8568
  155MOL   C21649804   1.755   5.527   4.907  0.7012  0.0284  0.0730
  155MOL   H21749805   1.555   5.770   5.392 -1.1759 -1.2319  0.8772
  155MOL   H21849806   1.456   5.645   5.330  1.0573 -0.9843  0.5959
  155MOL   H21949807   1.740   5.713   5.261  0.3531 -0.4409 -1.5204
  155MOL   H22049808   1.989   5.607   5.018 -0.7882 -0.0964  0.0214
  155MOL   H22149809   1.916   5.703   5.148 -0.7746 -0.5354  1.6095
  155MOL   H22249810   1.932   5.526   5.159 -1.1751 -0.0557  1.3797
  155MOL   H22349811   1.843   5.524   4.842  0.9876  0.7433  0.4259
  155MOL   H22449812   1.678   5.579   4.851  0.3665 -0.4959  0.0489
  155MOL   H22549813   1.732   5.421   4.917  1.2724 -0.1957 -0.9331
  155MOL   C22649814   1.695   5.530   5.360  0.5441 -0.0447 -0.6470
  155MOL   C22749815   1.694   5.570   5.517 -0.2632  0.2672 -0.4919
  155MOL   C22849816   1.768   5.702   5.555  0.4210  1.1367 -0.1518
  155MOL   O22949817   1.881   5.718   5.513  0.1030  0.3318  1.0241
  155MOL   N23049818   1.715   5.799   5.632  0.1323 -0.3284 -0.3016
  155MOL   C23149819   1.790   5.920   5.666  0.1489 -0.5684 -0.0141
  155MOL   C23249820   1.586   5.778   5.701  0.7367 -0.9805 -0.5745
  155MOL   H23349821   1.623   5.449   5.349 -0.7824  1.0117  0.0852
  155MOL   H23449822   1.791   5.486   5.336  0.5717 -0.2409 -0.1908
  155MOL   H23549823   1.592   5.586   5.552  0.0736  0.1743  0.5538
  155MOL   H23649824   1.827   5.980   5.583  4.1719 -1.9008  0.7127
  155MOL   H23749825   1.735   5.982   5.738 -1.3535 -0.5418 -1.1571
  155MOL   H23849826   1.885   5.888   5.710 -0.0703  2.9500  3.3618
  155MOL   H23949827   1.511   5.765   5.622 -0.2812  1.7261 -0.1310
  155MOL   H24049828   1.553   5.864   5.759 -0.5223 -0.4177 -2.1020
  155MOL   H24149829   1.590   5.693   5.770 -2.5482 -1.6533 -1.0987
  155MOL   C24249830   1.761   5.449   5.599 -0.2994 -0.3471 -0.0209
  155MOL   C24349831   1.749   5.446   5.749  0.0723  0.2852  0.3255
  155MOL   C24449832   1.864   5.347   5.793  0.2348  0.0841 -0.1971
  155MOL   O24549833   1.848   5.229   5.778 -0.3940 -0.3284  0.3642
  155MOL   N24649834   1.974   5.394   5.860  0.6040 -0.4915  0.1631
  155MOL   C24749835   2.086   5.310   5.893 -0.0594 -0.5196 -0.1833
  155MOL   C24849836   2.008   5.537   5.865  0.0520 -0.0651  0.0232
  155MOL   H24949837   1.715   5.355   5.570 -1.5439  0.8290 -1.9100
  155MOL   H25049838   1.867   5.439   5.573 -0.9143 -0.6113 -2.5033
  155MOL   H25149839   1.767   5.547   5.787  2.2751  0.3034 -0.7094
  155MOL   H25249840   2.147   5.345   5.977  1.4539 -1.1823 -0.9857
  155MOL   H25349841   2.040   5.212   5.910  1.0563 -0.7283  1.8435
  155MOL   H25449842   2.152   5.285   5.810  0.0897 -1.8283  0.3174
  155MOL   H25549843   2.011   5.582   5.766  1.2183  0.3735  0.2410
  155MOL   H25649844   2.101   5.558   5.919 -0.5579  0.8009  0.7561
  155MOL   H25749845   1.925   5.588   5.913  0.0543 -0.6188  0.6205
  155MOL   C25849846   1.605   5.399   5.799  0.8203  0.3243  0.2300
  155MOL   C25949847   1.596   5.346   5.942 -0.4506  0.0705 -0.4960
  155MOL   C26049848   1.447   5.313   5.976  0.1188 -0.7350 -0.4172
  155MOL   O26149849   1.369   5.406   6.004 -0.4430 -0.9930 -0.9047
  155MOL   N26249850   1.390   5.185   5.958 -0.7122 -0.4170  0.1088
  155MOL   C26349851   1.250   5.162   5.978  0.4186  0.4804 -0.3715
  155MOL   C26449852   1.464   5.062   5.918 -0.0320 -0.4818 -0.1340
  155MOL   H26549853   1.534   5.481   5.806 -0.3285 -0.6966  0.5991
  155MOL   H26649854   1.553   5.328   5.735 -0.1282  0.8251  0.4313
  155MOL   H26749855   1.657   5.256   5.951  0.7101  0.9127  0.1906
  155MOL   H26849856   1.187   5.251   5.969  0.5700  0.7038  0.6722
  155MOL   H26949857   1.211   5.082   5.914  1.2924 -0.0115 -0.2903
  155MOL   H27049858   1.237   5.124   6.079 -3.7393  3.5482  0.4207
  155MOL   H27149859   1.567   5.076   5.949 -0.8696  0.2982  2.4015
  155MOL   H27249860   1.442   5.046   5.812 -0.3514  2.8780 -0.6584
  155MOL   H27349861   1.421   4.974   5.965 -0.8633  1.1756  2.3170
  155MOL   C27449862   1.652   5.454   6.042  0.4662  0.5889  0.1873
  155MOL   C27549863   1.684   5.394   6.183  0.4653 -0.3267 -0.2410
  155MOL   C27649864   1.727   5.507   6.288 -0.7147 -0.7222 -0.0963
  155MOL   O27749865   1.811   5.594   6.254 -0.2729 -0.2344 -0.1352
  155MOL   N27849866   1.680   5.509   6.414 -0.3992  0.4504 -0.1540
  155MOL   C27949867   1.743   5.600   6.510  0.9784 -0.2829  0.3816
  155MOL   C28049868   1.551   5.459   6.454  0.4047  0.1242 -0.2685
  155MOL   H28149869   1.728   5.519   5.998  1.3553 -1.1882 -0.9777
  155MOL   H28249870   1.569   5.525   6.051 -0.6287 -0.6654  0.0791
  155MOL   H28349871   1.598   5.342   6.227  0.7136 -1.7861 -1.4413
  155MOL   H28449872   1.848   5.624   6.492  0.6340 -0.5864 -2.1212
  155MOL   H28549873   1.692   5.696   6.514 -2.1888 -1.7225 -2.8950
  155MOL   H28649874   1.734   5.572   6.615  0.7260 -2.1165 -0.1180
  155MOL   H28749875   1.518   5.517   6.540  1.1611  3.1897 -1.9669
  155MOL   H28849876   1.560   5.356   6.490 -1.1665 -0.5049 -1.6085
  155MOL   H28949877   1.481   5.471   6.373 -0.3055  0.2774  0.3652
  155MOL   C29049878   1.809   5.293   6.175  0.2157  1.4878 -0.3470
  155MOL   C29149879   1.780   5.144   6.230 -0.0009  0.7920  0.3021
  155MOL   C29249880   1.763   5.146   6.390  0.0452  0.5074  0.0820
  155MOL   O29349881   1.839   5.216   6.459 -0.0692  0.3188 -0.0540
  155MOL   N29449882   1.670   5.078   6.452  0.1391  0.6778  0.2154
  155MOL   C29549883   1.574   4.982   6.386 -0.3290  0.1079 -0.3236
  155MOL   C29649884   1.650   5.070   6.603  0.1601 -0.1131 -0.5411
  155MOL   H29749885   1.816   5.274   6.068 -1.5861 -1.2770 -0.0174
  155MOL   H29849886   1.907   5.333   6.204  0.4165  0.6286  0.1769
  155MOL   H29949887   1.691   5.104   6.182  0.2577  0.0604  0.4224
  155MOL   H30049888   1.470   5.012   6.391 -0.3388  0.1528 -0.7862
  155MOL   H30149889   1.597   4.957   6.282 -1.0697 -1.2327 -0.1753
  155MOL   H30249890   1.585   4.884   6.432 -0.9312 -0.7551 -1.9633
  155MOL   H30349891   1.748   5.051   6.648 -0.7864 -3.5121  0.1783
  155MOL   H30449892   1.596   4.983   6.638  1.5930 -0.1826  1.5766
  155MOL   H30549893   1.609   5.159   6.651 -0.5258 -1.4931  1.4923
  155MOL   C30649894   1.901   5.057   6.196  0.7790 -0.4823 -0.5937
  155MOL   C30749895   1.905   4.906   6.235  0.5516  0.0541  0.3595
  155MOL   C30849896   1.807   4.820   6.156  0.3121  1.0631 -0.3391
  155MOL   O30949897   1.728   4.871   6.076 -0.3210 -0.8615 -0.2139
  155MOL   N31049898   1.797   4.686   6.183  0.2321  0.1907 -0.2252
  155MOL   C31149899   1.693   4.606   6.115 -0.4186  0.1585 -0.4730
  155MOL   C31249900   1.890   4.605   6.262  0.0299 -0.4017 -0.1885
  155MOL   H31349901   1.908   5.052   6.087 -0.6684 -1.4184 -0.6721
  155MOL   H31449902   1.999   5.102   6.210  0.2051  0.0198  1.9936
  155MOL   H31549903   2.007   4.869   6.219 -0.6656 -3.0799 -0.5461
  155MOL   H31649904   1.732   4.541   6.037 -2.4610 -0.4850 -0.9860
  155MOL   H31749905   1.636   4.543   6.184 -3.3582  0.1341 -2.8469
  155MOL   H31849906   1.627   4.666   6.053 -0.8743  0.4822  0.3252
  155MOL   H31949907   1.830   4.564   6.344  0.5127 -1.0396 -0.1491
  155MOL   H32049908   1.966   4.663   6.314 -0.5837  0.6888 -0.5017
  155MOL   H32149909   1.941   4.523   6.212  1.9153  2.3209 -2.8547
  155MOL   H32249910   1.887   4.892   6.342  2.1423 -1.7981  0.4104
   7.85338   7.85338   7.85338
