;
; Gromacs include topology (itp) file.
; For Molecular Group XYZ
; Force field scheme: opls2005
; Produced from DL_FIELD v4.11
;


[ moleculetype ]
; name    nrexcl
XYZ    3

[ atoms ]
; nr   type   resnr   residu    atom    cgnr    charge    mass
    1        CT    1  MOL      C1     1  -0.1800000   12.0115
    2        CT    1  MOL      C2     2  -0.0600000   12.0115
    3         C    1  MOL      C3     3   0.5000000   12.0115
    4         O    1  MOL      O4     4  -0.5000000   15.9994
    5         N    1  MOL      N5     5  -0.1400000   14.0067
    6        CT    1  MOL      C6     6  -0.1100000   12.0115
    7        CT    1  MOL      C7     7  -0.1100000   12.0115
    8        HC    1  MOL      H8     8   0.0600000    1.0080
    9        HC    1  MOL      H9     9   0.0600000    1.0080
   10        HC    1  MOL     H10    10   0.0600000    1.0080
   11        HC    1  MOL     H11    11   0.0600000    1.0080
   12        HC    1  MOL     H12    12   0.0600000    1.0080
   13        HC    1  MOL     H13    13   0.0600000    1.0080
   14        HC    1  MOL     H14    14   0.0600000    1.0080
   15        HC    1  MOL     H15    15   0.0600000    1.0080
   16        HC    1  MOL     H16    16   0.0600000    1.0080
   17        HC    1  MOL     H17    17   0.0600000    1.0080
   18        CT    1  MOL     C18    18  -0.1200000   12.0115
   19        CT    1  MOL     C19    19  -0.0600000   12.0115
   20         C    1  MOL     C20    20   0.5000000   12.0115
   21         O    1  MOL     O21    21  -0.5000000   15.9994
   22         N    1  MOL     N22    22  -0.1400000   14.0067
   23        CT    1  MOL     C23    23  -0.1100000   12.0115
   24        CT    1  MOL     C24    24  -0.1100000   12.0115
   25        HC    1  MOL     H25    25   0.0600000    1.0080
   26        HC    1  MOL     H26    26   0.0600000    1.0080
   27        HC    1  MOL     H27    27   0.0600000    1.0080
   28        HC    1  MOL     H28    28   0.0600000    1.0080
   29        HC    1  MOL     H29    29   0.0600000    1.0080
   30        HC    1  MOL     H30    30   0.0600000    1.0080
   31        HC    1  MOL     H31    31   0.0600000    1.0080
   32        HC    1  MOL     H32    32   0.0600000    1.0080
   33        HC    1  MOL     H33    33   0.0600000    1.0080
   34        CT    1  MOL     C34    34  -0.1200000   12.0115
   35        CT    1  MOL     C35    35  -0.0600000   12.0115
   36         C    1  MOL     C36    36   0.5000000   12.0115
   37         O    1  MOL     O37    37  -0.5000000   15.9994
   38         N    1  MOL     N38    38  -0.1400000   14.0067
   39        CT    1  MOL     C39    39  -0.1100000   12.0115
   40        CT    1  MOL     C40    40  -0.1100000   12.0115
   41        HC    1  MOL     H41    41   0.0600000    1.0080
   42        HC    1  MOL     H42    42   0.0600000    1.0080
   43        HC    1  MOL     H43    43   0.0600000    1.0080
   44        HC    1  MOL     H44    44   0.0600000    1.0080
   45        HC    1  MOL     H45    45   0.0600000    1.0080
   46        HC    1  MOL     H46    46   0.0600000    1.0080
   47        HC    1  MOL     H47    47   0.0600000    1.0080
   48        HC    1  MOL     H48    48   0.0600000    1.0080
   49        HC    1  MOL     H49    49   0.0600000    1.0080
   50        CT    1  MOL     C50    50  -0.1200000   12.0115
   51        CT    1  MOL     C51    51  -0.0600000   12.0115
   52         C    1  MOL     C52    52   0.5000000   12.0115
   53         O    1  MOL     O53    53  -0.5000000   15.9994
   54         N    1  MOL     N54    54  -0.1400000   14.0067
   55        CT    1  MOL     C55    55  -0.1100000   12.0115
   56        CT    1  MOL     C56    56  -0.1100000   12.0115
   57        HC    1  MOL     H57    57   0.0600000    1.0080
   58        HC    1  MOL     H58    58   0.0600000    1.0080
   59        HC    1  MOL     H59    59   0.0600000    1.0080
   60        HC    1  MOL     H60    60   0.0600000    1.0080
   61        HC    1  MOL     H61    61   0.0600000    1.0080
   62        HC    1  MOL     H62    62   0.0600000    1.0080
   63        HC    1  MOL     H63    63   0.0600000    1.0080
   64        HC    1  MOL     H64    64   0.0600000    1.0080
   65        HC    1  MOL     H65    65   0.0600000    1.0080
   66        CT    1  MOL     C66    66  -0.1200000   12.0115
   67        CT    1  MOL     C67    67  -0.0600000   12.0115
   68         C    1  MOL     C68    68   0.5000000   12.0115
   69         O    1  MOL     O69    69  -0.5000000   15.9994
   70         N    1  MOL     N70    70  -0.1400000   14.0067
   71        CT    1  MOL     C71    71  -0.1100000   12.0115
   72        CT    1  MOL     C72    72  -0.1100000   12.0115
   73        HC    1  MOL     H73    73   0.0600000    1.0080
   74        HC    1  MOL     H74    74   0.0600000    1.0080
   75        HC    1  MOL     H75    75   0.0600000    1.0080
   76        HC    1  MOL     H76    76   0.0600000    1.0080
   77        HC    1  MOL     H77    77   0.0600000    1.0080
   78        HC    1  MOL     H78    78   0.0600000    1.0080
   79        HC    1  MOL     H79    79   0.0600000    1.0080
   80        HC    1  MOL     H80    80   0.0600000    1.0080
   81        HC    1  MOL     H81    81   0.0600000    1.0080
   82        CT    1  MOL     C82    82  -0.1200000   12.0115
   83        CT    1  MOL     C83    83  -0.0600000   12.0115
   84         C    1  MOL     C84    84   0.5000000   12.0115
   85         O    1  MOL     O85    85  -0.5000000   15.9994
   86         N    1  MOL     N86    86  -0.1400000   14.0067
   87        CT    1  MOL     C87    87  -0.1100000   12.0115
   88        CT    1  MOL     C88    88  -0.1100000   12.0115
   89        HC    1  MOL     H89    89   0.0600000    1.0080
   90        HC    1  MOL     H90    90   0.0600000    1.0080
   91        HC    1  MOL     H91    91   0.0600000    1.0080
   92        HC    1  MOL     H92    92   0.0600000    1.0080
   93        HC    1  MOL     H93    93   0.0600000    1.0080
   94        HC    1  MOL     H94    94   0.0600000    1.0080
   95        HC    1  MOL     H95    95   0.0600000    1.0080
   96        HC    1  MOL     H96    96   0.0600000    1.0080
   97        HC    1  MOL     H97    97   0.0600000    1.0080
   98        CT    1  MOL     C98    98  -0.1200000   12.0115
   99        CT    1  MOL     C99    99  -0.0600000   12.0115
  100         C    1  MOL    C100   100   0.5000000   12.0115
  101         O    1  MOL    O101   101  -0.5000000   15.9994
  102         N    1  MOL    N102   102  -0.1400000   14.0067
  103        CT    1  MOL    C103   103  -0.1100000   12.0115
  104        CT    1  MOL    C104   104  -0.1100000   12.0115
  105        HC    1  MOL    H105   105   0.0600000    1.0080
  106        HC    1  MOL    H106   106   0.0600000    1.0080
  107        HC    1  MOL    H107   107   0.0600000    1.0080
  108        HC    1  MOL    H108   108   0.0600000    1.0080
  109        HC    1  MOL    H109   109   0.0600000    1.0080
  110        HC    1  MOL    H110   110   0.0600000    1.0080
  111        HC    1  MOL    H111   111   0.0600000    1.0080
  112        HC    1  MOL    H112   112   0.0600000    1.0080
  113        HC    1  MOL    H113   113   0.0600000    1.0080
  114        CT    1  MOL    C114   114  -0.1200000   12.0115
  115        CT    1  MOL    C115   115  -0.0600000   12.0115
  116         C    1  MOL    C116   116   0.5000000   12.0115
  117         O    1  MOL    O117   117  -0.5000000   15.9994
  118         N    1  MOL    N118   118  -0.1400000   14.0067
  119        CT    1  MOL    C119   119  -0.1100000   12.0115
  120        CT    1  MOL    C120   120  -0.1100000   12.0115
  121        HC    1  MOL    H121   121   0.0600000    1.0080
  122        HC    1  MOL    H122   122   0.0600000    1.0080
  123        HC    1  MOL    H123   123   0.0600000    1.0080
  124        HC    1  MOL    H124   124   0.0600000    1.0080
  125        HC    1  MOL    H125   125   0.0600000    1.0080
  126        HC    1  MOL    H126   126   0.0600000    1.0080
  127        HC    1  MOL    H127   127   0.0600000    1.0080
  128        HC    1  MOL    H128   128   0.0600000    1.0080
  129        HC    1  MOL    H129   129   0.0600000    1.0080
  130        CT    1  MOL    C130   130  -0.1200000   12.0115
  131        CT    1  MOL    C131   131  -0.0600000   12.0115
  132         C    1  MOL    C132   132   0.5000000   12.0115
  133         O    1  MOL    O133   133  -0.5000000   15.9994
  134         N    1  MOL    N134   134  -0.1400000   14.0067
  135        CT    1  MOL    C135   135  -0.1100000   12.0115
  136        CT    1  MOL    C136   136  -0.1100000   12.0115
  137        HC    1  MOL    H137   137   0.0600000    1.0080
  138        HC    1  MOL    H138   138   0.0600000    1.0080
  139        HC    1  MOL    H139   139   0.0600000    1.0080
  140        HC    1  MOL    H140   140   0.0600000    1.0080
  141        HC    1  MOL    H141   141   0.0600000    1.0080
  142        HC    1  MOL    H142   142   0.0600000    1.0080
  143        HC    1  MOL    H143   143   0.0600000    1.0080
  144        HC    1  MOL    H144   144   0.0600000    1.0080
  145        HC    1  MOL    H145   145   0.0600000    1.0080
  146        CT    1  MOL    C146   146  -0.1200000   12.0115
  147        CT    1  MOL    C147   147  -0.0600000   12.0115
  148         C    1  MOL    C148   148   0.5000000   12.0115
  149         O    1  MOL    O149   149  -0.5000000   15.9994
  150         N    1  MOL    N150   150  -0.1400000   14.0067
  151        CT    1  MOL    C151   151  -0.1100000   12.0115
  152        CT    1  MOL    C152   152  -0.1100000   12.0115
  153        HC    1  MOL    H153   153   0.0600000    1.0080
  154        HC    1  MOL    H154   154   0.0600000    1.0080
  155        HC    1  MOL    H155   155   0.0600000    1.0080
  156        HC    1  MOL    H156   156   0.0600000    1.0080
  157        HC    1  MOL    H157   157   0.0600000    1.0080
  158        HC    1  MOL    H158   158   0.0600000    1.0080
  159        HC    1  MOL    H159   159   0.0600000    1.0080
  160        HC    1  MOL    H160   160   0.0600000    1.0080
  161        HC    1  MOL    H161   161   0.0600000    1.0080
  162        CT    1  MOL    C162   162  -0.1200000   12.0115
  163        CT    1  MOL    C163   163  -0.0600000   12.0115
  164         C    1  MOL    C164   164   0.5000000   12.0115
  165         O    1  MOL    O165   165  -0.5000000   15.9994
  166         N    1  MOL    N166   166  -0.1400000   14.0067
  167        CT    1  MOL    C167   167  -0.1100000   12.0115
  168        CT    1  MOL    C168   168  -0.1100000   12.0115
  169        HC    1  MOL    H169   169   0.0600000    1.0080
  170        HC    1  MOL    H170   170   0.0600000    1.0080
  171        HC    1  MOL    H171   171   0.0600000    1.0080
  172        HC    1  MOL    H172   172   0.0600000    1.0080
  173        HC    1  MOL    H173   173   0.0600000    1.0080
  174        HC    1  MOL    H174   174   0.0600000    1.0080
  175        HC    1  MOL    H175   175   0.0600000    1.0080
  176        HC    1  MOL    H176   176   0.0600000    1.0080
  177        HC    1  MOL    H177   177   0.0600000    1.0080
  178        CT    1  MOL    C178   178  -0.1200000   12.0115
  179        CT    1  MOL    C179   179  -0.0600000   12.0115
  180         C    1  MOL    C180   180   0.5000000   12.0115
  181         O    1  MOL    O181   181  -0.5000000   15.9994
  182         N    1  MOL    N182   182  -0.1400000   14.0067
  183        CT    1  MOL    C183   183  -0.1100000   12.0115
  184        CT    1  MOL    C184   184  -0.1100000   12.0115
  185        HC    1  MOL    H185   185   0.0600000    1.0080
  186        HC    1  MOL    H186   186   0.0600000    1.0080
  187        HC    1  MOL    H187   187   0.0600000    1.0080
  188        HC    1  MOL    H188   188   0.0600000    1.0080
  189        HC    1  MOL    H189   189   0.0600000    1.0080
  190        HC    1  MOL    H190   190   0.0600000    1.0080
  191        HC    1  MOL    H191   191   0.0600000    1.0080
  192        HC    1  MOL    H192   192   0.0600000    1.0080
  193        HC    1  MOL    H193   193   0.0600000    1.0080
  194        CT    1  MOL    C194   194  -0.1200000   12.0115
  195        CT    1  MOL    C195   195  -0.0600000   12.0115
  196         C    1  MOL    C196   196   0.5000000   12.0115
  197         O    1  MOL    O197   197  -0.5000000   15.9994
  198         N    1  MOL    N198   198  -0.1400000   14.0067
  199        CT    1  MOL    C199   199  -0.1100000   12.0115
  200        CT    1  MOL    C200   200  -0.1100000   12.0115
  201        HC    1  MOL    H201   201   0.0600000    1.0080
  202        HC    1  MOL    H202   202   0.0600000    1.0080
  203        HC    1  MOL    H203   203   0.0600000    1.0080
  204        HC    1  MOL    H204   204   0.0600000    1.0080
  205        HC    1  MOL    H205   205   0.0600000    1.0080
  206        HC    1  MOL    H206   206   0.0600000    1.0080
  207        HC    1  MOL    H207   207   0.0600000    1.0080
  208        HC    1  MOL    H208   208   0.0600000    1.0080
  209        HC    1  MOL    H209   209   0.0600000    1.0080
  210        CT    1  MOL    C210   210  -0.1200000   12.0115
  211        CT    1  MOL    C211   211  -0.0600000   12.0115
  212         C    1  MOL    C212   212   0.5000000   12.0115
  213         O    1  MOL    O213   213  -0.5000000   15.9994
  214         N    1  MOL    N214   214  -0.1400000   14.0067
  215        CT    1  MOL    C215   215  -0.1100000   12.0115
  216        CT    1  MOL    C216   216  -0.1100000   12.0115
  217        HC    1  MOL    H217   217   0.0600000    1.0080
  218        HC    1  MOL    H218   218   0.0600000    1.0080
  219        HC    1  MOL    H219   219   0.0600000    1.0080
  220        HC    1  MOL    H220   220   0.0600000    1.0080
  221        HC    1  MOL    H221   221   0.0600000    1.0080
  222        HC    1  MOL    H222   222   0.0600000    1.0080
  223        HC    1  MOL    H223   223   0.0600000    1.0080
  224        HC    1  MOL    H224   224   0.0600000    1.0080
  225        HC    1  MOL    H225   225   0.0600000    1.0080
  226        CT    1  MOL    C226   226  -0.1200000   12.0115
  227        CT    1  MOL    C227   227  -0.0600000   12.0115
  228         C    1  MOL    C228   228   0.5000000   12.0115
  229         O    1  MOL    O229   229  -0.5000000   15.9994
  230         N    1  MOL    N230   230  -0.1400000   14.0067
  231        CT    1  MOL    C231   231  -0.1100000   12.0115
  232        CT    1  MOL    C232   232  -0.1100000   12.0115
  233        HC    1  MOL    H233   233   0.0600000    1.0080
  234        HC    1  MOL    H234   234   0.0600000    1.0080
  235        HC    1  MOL    H235   235   0.0600000    1.0080
  236        HC    1  MOL    H236   236   0.0600000    1.0080
  237        HC    1  MOL    H237   237   0.0600000    1.0080
  238        HC    1  MOL    H238   238   0.0600000    1.0080
  239        HC    1  MOL    H239   239   0.0600000    1.0080
  240        HC    1  MOL    H240   240   0.0600000    1.0080
  241        HC    1  MOL    H241   241   0.0600000    1.0080
  242        CT    1  MOL    C242   242  -0.1200000   12.0115
  243        CT    1  MOL    C243   243  -0.0600000   12.0115
  244         C    1  MOL    C244   244   0.5000000   12.0115
  245         O    1  MOL    O245   245  -0.5000000   15.9994
  246         N    1  MOL    N246   246  -0.1400000   14.0067
  247        CT    1  MOL    C247   247  -0.1100000   12.0115
  248        CT    1  MOL    C248   248  -0.1100000   12.0115
  249        HC    1  MOL    H249   249   0.0600000    1.0080
  250        HC    1  MOL    H250   250   0.0600000    1.0080
  251        HC    1  MOL    H251   251   0.0600000    1.0080
  252        HC    1  MOL    H252   252   0.0600000    1.0080
  253        HC    1  MOL    H253   253   0.0600000    1.0080
  254        HC    1  MOL    H254   254   0.0600000    1.0080
  255        HC    1  MOL    H255   255   0.0600000    1.0080
  256        HC    1  MOL    H256   256   0.0600000    1.0080
  257        HC    1  MOL    H257   257   0.0600000    1.0080
  258        CT    1  MOL    C258   258  -0.1200000   12.0115
  259        CT    1  MOL    C259   259  -0.0600000   12.0115
  260         C    1  MOL    C260   260   0.5000000   12.0115
  261         O    1  MOL    O261   261  -0.5000000   15.9994
  262         N    1  MOL    N262   262  -0.1400000   14.0067
  263        CT    1  MOL    C263   263  -0.1100000   12.0115
  264        CT    1  MOL    C264   264  -0.1100000   12.0115
  265        HC    1  MOL    H265   265   0.0600000    1.0080
  266        HC    1  MOL    H266   266   0.0600000    1.0080
  267        HC    1  MOL    H267   267   0.0600000    1.0080
  268        HC    1  MOL    H268   268   0.0600000    1.0080
  269        HC    1  MOL    H269   269   0.0600000    1.0080
  270        HC    1  MOL    H270   270   0.0600000    1.0080
  271        HC    1  MOL    H271   271   0.0600000    1.0080
  272        HC    1  MOL    H272   272   0.0600000    1.0080
  273        HC    1  MOL    H273   273   0.0600000    1.0080
  274        CT    1  MOL    C274   274  -0.1200000   12.0115
  275        CT    1  MOL    C275   275  -0.0600000   12.0115
  276         C    1  MOL    C276   276   0.5000000   12.0115
  277         O    1  MOL    O277   277  -0.5000000   15.9994
  278         N    1  MOL    N278   278  -0.1400000   14.0067
  279        CT    1  MOL    C279   279  -0.1100000   12.0115
  280        CT    1  MOL    C280   280  -0.1100000   12.0115
  281        HC    1  MOL    H281   281   0.0600000    1.0080
  282        HC    1  MOL    H282   282   0.0600000    1.0080
  283        HC    1  MOL    H283   283   0.0600000    1.0080
  284        HC    1  MOL    H284   284   0.0600000    1.0080
  285        HC    1  MOL    H285   285   0.0600000    1.0080
  286        HC    1  MOL    H286   286   0.0600000    1.0080
  287        HC    1  MOL    H287   287   0.0600000    1.0080
  288        HC    1  MOL    H288   288   0.0600000    1.0080
  289        HC    1  MOL    H289   289   0.0600000    1.0080
  290        CT    1  MOL    C290   290  -0.1200000   12.0115
  291        CT    1  MOL    C291   291  -0.0600000   12.0115
  292         C    1  MOL    C292   292   0.5000000   12.0115
  293         O    1  MOL    O293   293  -0.5000000   15.9994
  294         N    1  MOL    N294   294  -0.1400000   14.0067
  295        CT    1  MOL    C295   295  -0.1100000   12.0115
  296        CT    1  MOL    C296   296  -0.1100000   12.0115
  297        HC    1  MOL    H297   297   0.0600000    1.0080
  298        HC    1  MOL    H298   298   0.0600000    1.0080
  299        HC    1  MOL    H299   299   0.0600000    1.0080
  300        HC    1  MOL    H300   300   0.0600000    1.0080
  301        HC    1  MOL    H301   301   0.0600000    1.0080
  302        HC    1  MOL    H302   302   0.0600000    1.0080
  303        HC    1  MOL    H303   303   0.0600000    1.0080
  304        HC    1  MOL    H304   304   0.0600000    1.0080
  305        HC    1  MOL    H305   305   0.0600000    1.0080
  306        CT    1  MOL    C306   306  -0.1200000   12.0115
  307        CT    1  MOL    C307   307  -0.1200000   12.0115
  308         C    1  MOL    C308   308   0.5000000   12.0115
  309         O    1  MOL    O309   309  -0.5000000   15.9994
  310         N    1  MOL    N310   310  -0.1400000   14.0067
  311        CT    1  MOL    C311   311  -0.1100000   12.0115
  312        CT    1  MOL    C312   312  -0.1100000   12.0115
  313        HC    1  MOL    H313   313   0.0600000    1.0080
  314        HC    1  MOL    H314   314   0.0600000    1.0080
  315        HC    1  MOL    H315   315   0.0600000    1.0080
  316        HC    1  MOL    H316   316   0.0600000    1.0080
  317        HC    1  MOL    H317   317   0.0600000    1.0080
  318        HC    1  MOL    H318   318   0.0600000    1.0080
  319        HC    1  MOL    H319   319   0.0600000    1.0080
  320        HC    1  MOL    H320   320   0.0600000    1.0080
  321        HC    1  MOL    H321   321   0.0600000    1.0080
  322        HC    1  MOL    H322   322   0.0600000    1.0080

[ bonds ]
      1      2   1      0.1529 224262.4000
      1      8   1      0.1090 284512.0000
      1      9   1      0.1090 284512.0000
      1     17   1      0.1090 284512.0000
      2      3   1      0.1522 265265.6000
      2     10   1      0.1090 284512.0000
      2     18   1      0.1529 224262.4000
      3      4   1      0.1229 476976.0000
      3      5   1      0.1335 410032.0000
      5      6   1      0.1449 282001.6000
      5      7   1      0.1449 282001.6000
      6     11   1      0.1090 284512.0000
      6     12   1      0.1090 284512.0000
      6     13   1      0.1090 284512.0000
      7     14   1      0.1090 284512.0000
      7     15   1      0.1090 284512.0000
      7     16   1      0.1090 284512.0000
     18     19   1      0.1529 224262.4000
     18     25   1      0.1090 284512.0000
     18     26   1      0.1090 284512.0000
     19     20   1      0.1522 265265.6000
     19     27   1      0.1090 284512.0000
     19     34   1      0.1529 224262.4000
     20     21   1      0.1229 476976.0000
     20     22   1      0.1335 410032.0000
     22     23   1      0.1449 282001.6000
     22     24   1      0.1449 282001.6000
     23     28   1      0.1090 284512.0000
     23     29   1      0.1090 284512.0000
     23     30   1      0.1090 284512.0000
     24     31   1      0.1090 284512.0000
     24     32   1      0.1090 284512.0000
     24     33   1      0.1090 284512.0000
     34     35   1      0.1529 224262.4000
     34     41   1      0.1090 284512.0000
     34     42   1      0.1090 284512.0000
     35     36   1      0.1522 265265.6000
     35     43   1      0.1090 284512.0000
     35     50   1      0.1529 224262.4000
     36     37   1      0.1229 476976.0000
     36     38   1      0.1335 410032.0000
     38     39   1      0.1449 282001.6000
     38     40   1      0.1449 282001.6000
     39     44   1      0.1090 284512.0000
     39     45   1      0.1090 284512.0000
     39     46   1      0.1090 284512.0000
     40     47   1      0.1090 284512.0000
     40     48   1      0.1090 284512.0000
     40     49   1      0.1090 284512.0000
     50     51   1      0.1529 224262.4000
     50     57   1      0.1090 284512.0000
     50     58   1      0.1090 284512.0000
     51     52   1      0.1522 265265.6000
     51     59   1      0.1090 284512.0000
     51     66   1      0.1529 224262.4000
     52     53   1      0.1229 476976.0000
     52     54   1      0.1335 410032.0000
     54     55   1      0.1449 282001.6000
     54     56   1      0.1449 282001.6000
     55     60   1      0.1090 284512.0000
     55     61   1      0.1090 284512.0000
     55     62   1      0.1090 284512.0000
     56     63   1      0.1090 284512.0000
     56     64   1      0.1090 284512.0000
     56     65   1      0.1090 284512.0000
     66     67   1      0.1529 224262.4000
     66     73   1      0.1090 284512.0000
     66     74   1      0.1090 284512.0000
     67     68   1      0.1522 265265.6000
     67     75   1      0.1090 284512.0000
     67     82   1      0.1529 224262.4000
     68     69   1      0.1229 476976.0000
     68     70   1      0.1335 410032.0000
     70     71   1      0.1449 282001.6000
     70     72   1      0.1449 282001.6000
     71     76   1      0.1090 284512.0000
     71     77   1      0.1090 284512.0000
     71     78   1      0.1090 284512.0000
     72     79   1      0.1090 284512.0000
     72     80   1      0.1090 284512.0000
     72     81   1      0.1090 284512.0000
     82     83   1      0.1529 224262.4000
     82     89   1      0.1090 284512.0000
     82     90   1      0.1090 284512.0000
     83     84   1      0.1522 265265.6000
     83     91   1      0.1090 284512.0000
     83     98   1      0.1529 224262.4000
     84     85   1      0.1229 476976.0000
     84     86   1      0.1335 410032.0000
     86     87   1      0.1449 282001.6000
     86     88   1      0.1449 282001.6000
     87     92   1      0.1090 284512.0000
     87     93   1      0.1090 284512.0000
     87     94   1      0.1090 284512.0000
     88     95   1      0.1090 284512.0000
     88     96   1      0.1090 284512.0000
     88     97   1      0.1090 284512.0000
     98     99   1      0.1529 224262.4000
     98    105   1      0.1090 284512.0000
     98    106   1      0.1090 284512.0000
     99    100   1      0.1522 265265.6000
     99    107   1      0.1090 284512.0000
     99    114   1      0.1529 224262.4000
    100    101   1      0.1229 476976.0000
    100    102   1      0.1335 410032.0000
    102    103   1      0.1449 282001.6000
    102    104   1      0.1449 282001.6000
    103    108   1      0.1090 284512.0000
    103    109   1      0.1090 284512.0000
    103    110   1      0.1090 284512.0000
    104    111   1      0.1090 284512.0000
    104    112   1      0.1090 284512.0000
    104    113   1      0.1090 284512.0000
    114    115   1      0.1529 224262.4000
    114    121   1      0.1090 284512.0000
    114    122   1      0.1090 284512.0000
    115    116   1      0.1522 265265.6000
    115    123   1      0.1090 284512.0000
    115    130   1      0.1529 224262.4000
    116    117   1      0.1229 476976.0000
    116    118   1      0.1335 410032.0000
    118    119   1      0.1449 282001.6000
    118    120   1      0.1449 282001.6000
    119    124   1      0.1090 284512.0000
    119    125   1      0.1090 284512.0000
    119    126   1      0.1090 284512.0000
    120    127   1      0.1090 284512.0000
    120    128   1      0.1090 284512.0000
    120    129   1      0.1090 284512.0000
    130    131   1      0.1529 224262.4000
    130    137   1      0.1090 284512.0000
    130    138   1      0.1090 284512.0000
    131    132   1      0.1522 265265.6000
    131    139   1      0.1090 284512.0000
    131    146   1      0.1529 224262.4000
    132    133   1      0.1229 476976.0000
    132    134   1      0.1335 410032.0000
    134    135   1      0.1449 282001.6000
    134    136   1      0.1449 282001.6000
    135    140   1      0.1090 284512.0000
    135    141   1      0.1090 284512.0000
    135    142   1      0.1090 284512.0000
    136    143   1      0.1090 284512.0000
    136    144   1      0.1090 284512.0000
    136    145   1      0.1090 284512.0000
    146    147   1      0.1529 224262.4000
    146    153   1      0.1090 284512.0000
    146    154   1      0.1090 284512.0000
    147    148   1      0.1522 265265.6000
    147    155   1      0.1090 284512.0000
    147    162   1      0.1529 224262.4000
    148    149   1      0.1229 476976.0000
    148    150   1      0.1335 410032.0000
    150    151   1      0.1449 282001.6000
    150    152   1      0.1449 282001.6000
    151    156   1      0.1090 284512.0000
    151    157   1      0.1090 284512.0000
    151    158   1      0.1090 284512.0000
    152    159   1      0.1090 284512.0000
    152    160   1      0.1090 284512.0000
    152    161   1      0.1090 284512.0000
    162    163   1      0.1529 224262.4000
    162    169   1      0.1090 284512.0000
    162    170   1      0.1090 284512.0000
    163    164   1      0.1522 265265.6000
    163    171   1      0.1090 284512.0000
    163    178   1      0.1529 224262.4000
    164    165   1      0.1229 476976.0000
    164    166   1      0.1335 410032.0000
    166    167   1      0.1449 282001.6000
    166    168   1      0.1449 282001.6000
    167    172   1      0.1090 284512.0000
    167    173   1      0.1090 284512.0000
    167    174   1      0.1090 284512.0000
    168    175   1      0.1090 284512.0000
    168    176   1      0.1090 284512.0000
    168    177   1      0.1090 284512.0000
    178    179   1      0.1529 224262.4000
    178    185   1      0.1090 284512.0000
    178    186   1      0.1090 284512.0000
    179    180   1      0.1522 265265.6000
    179    187   1      0.1090 284512.0000
    179    194   1      0.1529 224262.4000
    180    181   1      0.1229 476976.0000
    180    182   1      0.1335 410032.0000
    182    183   1      0.1449 282001.6000
    182    184   1      0.1449 282001.6000
    183    188   1      0.1090 284512.0000
    183    189   1      0.1090 284512.0000
    183    190   1      0.1090 284512.0000
    184    191   1      0.1090 284512.0000
    184    192   1      0.1090 284512.0000
    184    193   1      0.1090 284512.0000
    194    195   1      0.1529 224262.4000
    194    201   1      0.1090 284512.0000
    194    202   1      0.1090 284512.0000
    195    196   1      0.1522 265265.6000
    195    203   1      0.1090 284512.0000
    195    210   1      0.1529 224262.4000
    196    197   1      0.1229 476976.0000
    196    198   1      0.1335 410032.0000
    198    199   1      0.1449 282001.6000
    198    200   1      0.1449 282001.6000
    199    204   1      0.1090 284512.0000
    199    205   1      0.1090 284512.0000
    199    206   1      0.1090 284512.0000
    200    207   1      0.1090 284512.0000
    200    208   1      0.1090 284512.0000
    200    209   1      0.1090 284512.0000
    210    211   1      0.1529 224262.4000
    210    217   1      0.1090 284512.0000
    210    218   1      0.1090 284512.0000
    211    212   1      0.1522 265265.6000
    211    219   1      0.1090 284512.0000
    211    226   1      0.1529 224262.4000
    212    213   1      0.1229 476976.0000
    212    214   1      0.1335 410032.0000
    214    215   1      0.1449 282001.6000
    214    216   1      0.1449 282001.6000
    215    220   1      0.1090 284512.0000
    215    221   1      0.1090 284512.0000
    215    222   1      0.1090 284512.0000
    216    223   1      0.1090 284512.0000
    216    224   1      0.1090 284512.0000
    216    225   1      0.1090 284512.0000
    226    227   1      0.1529 224262.4000
    226    233   1      0.1090 284512.0000
    226    234   1      0.1090 284512.0000
    227    228   1      0.1522 265265.6000
    227    235   1      0.1090 284512.0000
    227    242   1      0.1529 224262.4000
    228    229   1      0.1229 476976.0000
    228    230   1      0.1335 410032.0000
    230    231   1      0.1449 282001.6000
    230    232   1      0.1449 282001.6000
    231    236   1      0.1090 284512.0000
    231    237   1      0.1090 284512.0000
    231    238   1      0.1090 284512.0000
    232    239   1      0.1090 284512.0000
    232    240   1      0.1090 284512.0000
    232    241   1      0.1090 284512.0000
    242    243   1      0.1529 224262.4000
    242    249   1      0.1090 284512.0000
    242    250   1      0.1090 284512.0000
    243    244   1      0.1522 265265.6000
    243    251   1      0.1090 284512.0000
    243    258   1      0.1529 224262.4000
    244    245   1      0.1229 476976.0000
    244    246   1      0.1335 410032.0000
    246    247   1      0.1449 282001.6000
    246    248   1      0.1449 282001.6000
    247    252   1      0.1090 284512.0000
    247    253   1      0.1090 284512.0000
    247    254   1      0.1090 284512.0000
    248    255   1      0.1090 284512.0000
    248    256   1      0.1090 284512.0000
    248    257   1      0.1090 284512.0000
    258    259   1      0.1529 224262.4000
    258    265   1      0.1090 284512.0000
    258    266   1      0.1090 284512.0000
    259    260   1      0.1522 265265.6000
    259    267   1      0.1090 284512.0000
    259    274   1      0.1529 224262.4000
    260    261   1      0.1229 476976.0000
    260    262   1      0.1335 410032.0000
    262    263   1      0.1449 282001.6000
    262    264   1      0.1449 282001.6000
    263    268   1      0.1090 284512.0000
    263    269   1      0.1090 284512.0000
    263    270   1      0.1090 284512.0000
    264    271   1      0.1090 284512.0000
    264    272   1      0.1090 284512.0000
    264    273   1      0.1090 284512.0000
    274    275   1      0.1529 224262.4000
    274    281   1      0.1090 284512.0000
    274    282   1      0.1090 284512.0000
    275    276   1      0.1522 265265.6000
    275    283   1      0.1090 284512.0000
    275    290   1      0.1529 224262.4000
    276    277   1      0.1229 476976.0000
    276    278   1      0.1335 410032.0000
    278    279   1      0.1449 282001.6000
    278    280   1      0.1449 282001.6000
    279    284   1      0.1090 284512.0000
    279    285   1      0.1090 284512.0000
    279    286   1      0.1090 284512.0000
    280    287   1      0.1090 284512.0000
    280    288   1      0.1090 284512.0000
    280    289   1      0.1090 284512.0000
    290    291   1      0.1529 224262.4000
    290    297   1      0.1090 284512.0000
    290    298   1      0.1090 284512.0000
    291    292   1      0.1522 265265.6000
    291    299   1      0.1090 284512.0000
    291    306   1      0.1529 224262.4000
    292    293   1      0.1229 476976.0000
    292    294   1      0.1335 410032.0000
    294    295   1      0.1449 282001.6000
    294    296   1      0.1449 282001.6000
    295    300   1      0.1090 284512.0000
    295    301   1      0.1090 284512.0000
    295    302   1      0.1090 284512.0000
    296    303   1      0.1090 284512.0000
    296    304   1      0.1090 284512.0000
    296    305   1      0.1090 284512.0000
    306    307   1      0.1529 224262.4000
    306    313   1      0.1090 284512.0000
    306    314   1      0.1090 284512.0000
    307    308   1      0.1522 265265.6000
    307    315   1      0.1090 284512.0000
    307    322   1      0.1090 284512.0000
    308    309   1      0.1229 476976.0000
    308    310   1      0.1335 410032.0000
    310    311   1      0.1449 282001.6000
    310    312   1      0.1449 282001.6000
    311    316   1      0.1090 284512.0000
    311    317   1      0.1090 284512.0000
    311    318   1      0.1090 284512.0000
    312    319   1      0.1090 284512.0000
    312    320   1      0.1090 284512.0000
    312    321   1      0.1090 284512.0000

[ pairs ]
; ai   aj   funct   fudge_QQ  charge_i   charge_j   c6    c12
      8      3   2   0.50000     0.0600000    0.5000000   3.869820e-04  3.188634e-07
      8     10   2   0.50000     0.0600000    0.0600000   6.128906e-05  1.496315e-08
      8     18   2   0.50000     0.0600000   -0.1200000   2.494471e-04  1.671101e-07
      9      3   2   0.50000     0.0600000    0.5000000   3.869820e-04  3.188634e-07
      9     10   2   0.50000     0.0600000    0.0600000   6.128906e-05  1.496315e-08
      9     18   2   0.50000     0.0600000   -0.1200000   2.494471e-04  1.671101e-07
     17      3   2   0.50000     0.0600000    0.5000000   3.869820e-04  3.188634e-07
     17     10   2   0.50000     0.0600000    0.0600000   6.128906e-05  1.496315e-08
     17     18   2   0.50000     0.0600000   -0.1200000   2.494471e-04  1.671101e-07
      1      4   2   0.50000    -0.1800000   -0.5000000   1.095425e-03  1.218041e-06
      1      5   2   0.50000    -0.1800000   -0.1400000   1.304585e-03  1.920112e-06
     10      4   2   0.50000     0.0600000   -0.5000000   2.691455e-04  1.090642e-07
     10      5   2   0.50000     0.0600000   -0.1400000   3.205360e-04  1.719281e-07
     18      4   2   0.50000    -0.1200000   -0.5000000   1.095425e-03  1.218041e-06
     18      5   2   0.50000    -0.1200000   -0.1400000   1.304585e-03  1.920112e-06
      1     19   2   0.50000    -0.1800000   -0.0600000   1.015252e-03  1.866303e-06
      1     25   2   0.50000    -0.1800000    0.0600000   2.494471e-04  1.671101e-07
      1     26   2   0.50000    -0.1800000    0.0600000   2.494471e-04  1.671101e-07
      3     19   2   0.50000     0.5000000   -0.0600000   1.575021e-03  3.561100e-06
      3     25   2   0.50000     0.5000000    0.0600000   3.869820e-04  3.188634e-07
      3     26   2   0.50000     0.5000000    0.0600000   3.869820e-04  3.188634e-07
     10     19   2   0.50000     0.0600000   -0.0600000   2.494471e-04  1.671101e-07
     10     25   2   0.50000     0.0600000    0.0600000   6.128906e-05  1.496315e-08
     10     26   2   0.50000     0.0600000    0.0600000   6.128906e-05  1.496315e-08
      2      6   2   0.50000    -0.0600000   -0.1100000   1.015252e-03  1.866303e-06
      2      7   2   0.50000    -0.0600000   -0.1100000   1.015252e-03  1.866303e-06
      4      6   2   0.50000    -0.5000000   -0.1100000   1.095425e-03  1.218041e-06
      4      7   2   0.50000    -0.5000000   -0.1100000   1.095425e-03  1.218041e-06
      3     11   2   0.50000     0.5000000    0.0600000   3.869820e-04  3.188634e-07
      3     12   2   0.50000     0.5000000    0.0600000   3.869820e-04  3.188634e-07
      3     13   2   0.50000     0.5000000    0.0600000   3.869820e-04  3.188634e-07
      7     11   2   0.50000    -0.1100000    0.0600000   2.494471e-04  1.671101e-07
      7     12   2   0.50000    -0.1100000    0.0600000   2.494471e-04  1.671101e-07
      7     13   2   0.50000    -0.1100000    0.0600000   2.494471e-04  1.671101e-07
      3     14   2   0.50000     0.5000000    0.0600000   3.869820e-04  3.188634e-07
      3     15   2   0.50000     0.5000000    0.0600000   3.869820e-04  3.188634e-07
      3     16   2   0.50000     0.5000000    0.0600000   3.869820e-04  3.188634e-07
      6     14   2   0.50000    -0.1100000    0.0600000   2.494471e-04  1.671101e-07
      6     15   2   0.50000    -0.1100000    0.0600000   2.494471e-04  1.671101e-07
      6     16   2   0.50000    -0.1100000    0.0600000   2.494471e-04  1.671101e-07
      2     20   2   0.50000    -0.0600000    0.5000000   1.575021e-03  3.561100e-06
      2     27   2   0.50000    -0.0600000    0.0600000   2.494471e-04  1.671101e-07
      2     34   2   0.50000    -0.0600000   -0.1200000   1.015252e-03  1.866303e-06
     25     20   2   0.50000     0.0600000    0.5000000   3.869820e-04  3.188634e-07
     25     27   2   0.50000     0.0600000    0.0600000   6.128906e-05  1.496315e-08
     25     34   2   0.50000     0.0600000   -0.1200000   2.494471e-04  1.671101e-07
     26     20   2   0.50000     0.0600000    0.5000000   3.869820e-04  3.188634e-07
     26     27   2   0.50000     0.0600000    0.0600000   6.128906e-05  1.496315e-08
     26     34   2   0.50000     0.0600000   -0.1200000   2.494471e-04  1.671101e-07
     18     21   2   0.50000    -0.1200000   -0.5000000   1.095425e-03  1.218041e-06
     18     22   2   0.50000    -0.1200000   -0.1400000   1.304585e-03  1.920112e-06
     27     21   2   0.50000     0.0600000   -0.5000000   2.691455e-04  1.090642e-07
     27     22   2   0.50000     0.0600000   -0.1400000   3.205360e-04  1.719281e-07
     34     21   2   0.50000    -0.1200000   -0.5000000   1.095425e-03  1.218041e-06
     34     22   2   0.50000    -0.1200000   -0.1400000   1.304585e-03  1.920112e-06
     18     35   2   0.50000    -0.1200000   -0.0600000   1.015252e-03  1.866303e-06
     18     41   2   0.50000    -0.1200000    0.0600000   2.494471e-04  1.671101e-07
     18     42   2   0.50000    -0.1200000    0.0600000   2.494471e-04  1.671101e-07
     20     35   2   0.50000     0.5000000   -0.0600000   1.575021e-03  3.561100e-06
     20     41   2   0.50000     0.5000000    0.0600000   3.869820e-04  3.188634e-07
     20     42   2   0.50000     0.5000000    0.0600000   3.869820e-04  3.188634e-07
     27     35   2   0.50000     0.0600000   -0.0600000   2.494471e-04  1.671101e-07
     27     41   2   0.50000     0.0600000    0.0600000   6.128906e-05  1.496315e-08
     27     42   2   0.50000     0.0600000    0.0600000   6.128906e-05  1.496315e-08
     19     23   2   0.50000    -0.0600000   -0.1100000   1.015252e-03  1.866303e-06
     19     24   2   0.50000    -0.0600000   -0.1100000   1.015252e-03  1.866303e-06
     21     23   2   0.50000    -0.5000000   -0.1100000   1.095425e-03  1.218041e-06
     21     24   2   0.50000    -0.5000000   -0.1100000   1.095425e-03  1.218041e-06
     20     28   2   0.50000     0.5000000    0.0600000   3.869820e-04  3.188634e-07
     20     29   2   0.50000     0.5000000    0.0600000   3.869820e-04  3.188634e-07
     20     30   2   0.50000     0.5000000    0.0600000   3.869820e-04  3.188634e-07
     24     28   2   0.50000    -0.1100000    0.0600000   2.494471e-04  1.671101e-07
     24     29   2   0.50000    -0.1100000    0.0600000   2.494471e-04  1.671101e-07
     24     30   2   0.50000    -0.1100000    0.0600000   2.494471e-04  1.671101e-07
     20     31   2   0.50000     0.5000000    0.0600000   3.869820e-04  3.188634e-07
     20     32   2   0.50000     0.5000000    0.0600000   3.869820e-04  3.188634e-07
     20     33   2   0.50000     0.5000000    0.0600000   3.869820e-04  3.188634e-07
     23     31   2   0.50000    -0.1100000    0.0600000   2.494471e-04  1.671101e-07
     23     32   2   0.50000    -0.1100000    0.0600000   2.494471e-04  1.671101e-07
     23     33   2   0.50000    -0.1100000    0.0600000   2.494471e-04  1.671101e-07
     19     36   2   0.50000    -0.0600000    0.5000000   1.575021e-03  3.561100e-06
     19     43   2   0.50000    -0.0600000    0.0600000   2.494471e-04  1.671101e-07
     19     50   2   0.50000    -0.0600000   -0.1200000   1.015252e-03  1.866303e-06
     41     36   2   0.50000     0.0600000    0.5000000   3.869820e-04  3.188634e-07
     41     43   2   0.50000     0.0600000    0.0600000   6.128906e-05  1.496315e-08
     41     50   2   0.50000     0.0600000   -0.1200000   2.494471e-04  1.671101e-07
     42     36   2   0.50000     0.0600000    0.5000000   3.869820e-04  3.188634e-07
     42     43   2   0.50000     0.0600000    0.0600000   6.128906e-05  1.496315e-08
     42     50   2   0.50000     0.0600000   -0.1200000   2.494471e-04  1.671101e-07
     34     37   2   0.50000    -0.1200000   -0.5000000   1.095425e-03  1.218041e-06
     34     38   2   0.50000    -0.1200000   -0.1400000   1.304585e-03  1.920112e-06
     43     37   2   0.50000     0.0600000   -0.5000000   2.691455e-04  1.090642e-07
     43     38   2   0.50000     0.0600000   -0.1400000   3.205360e-04  1.719281e-07
     50     37   2   0.50000    -0.1200000   -0.5000000   1.095425e-03  1.218041e-06
     50     38   2   0.50000    -0.1200000   -0.1400000   1.304585e-03  1.920112e-06
     34     51   2   0.50000    -0.1200000   -0.0600000   1.015252e-03  1.866303e-06
     34     57   2   0.50000    -0.1200000    0.0600000   2.494471e-04  1.671101e-07
     34     58   2   0.50000    -0.1200000    0.0600000   2.494471e-04  1.671101e-07
     36     51   2   0.50000     0.5000000   -0.0600000   1.575021e-03  3.561100e-06
     36     57   2   0.50000     0.5000000    0.0600000   3.869820e-04  3.188634e-07
     36     58   2   0.50000     0.5000000    0.0600000   3.869820e-04  3.188634e-07
     43     51   2   0.50000     0.0600000   -0.0600000   2.494471e-04  1.671101e-07
     43     57   2   0.50000     0.0600000    0.0600000   6.128906e-05  1.496315e-08
     43     58   2   0.50000     0.0600000    0.0600000   6.128906e-05  1.496315e-08
     35     39   2   0.50000    -0.0600000   -0.1100000   1.015252e-03  1.866303e-06
     35     40   2   0.50000    -0.0600000   -0.1100000   1.015252e-03  1.866303e-06
     37     39   2   0.50000    -0.5000000   -0.1100000   1.095425e-03  1.218041e-06
     37     40   2   0.50000    -0.5000000   -0.1100000   1.095425e-03  1.218041e-06
     36     44   2   0.50000     0.5000000    0.0600000   3.869820e-04  3.188634e-07
     36     45   2   0.50000     0.5000000    0.0600000   3.869820e-04  3.188634e-07
     36     46   2   0.50000     0.5000000    0.0600000   3.869820e-04  3.188634e-07
     40     44   2   0.50000    -0.1100000    0.0600000   2.494471e-04  1.671101e-07
     40     45   2   0.50000    -0.1100000    0.0600000   2.494471e-04  1.671101e-07
     40     46   2   0.50000    -0.1100000    0.0600000   2.494471e-04  1.671101e-07
     36     47   2   0.50000     0.5000000    0.0600000   3.869820e-04  3.188634e-07
     36     48   2   0.50000     0.5000000    0.0600000   3.869820e-04  3.188634e-07
     36     49   2   0.50000     0.5000000    0.0600000   3.869820e-04  3.188634e-07
     39     47   2   0.50000    -0.1100000    0.0600000   2.494471e-04  1.671101e-07
     39     48   2   0.50000    -0.1100000    0.0600000   2.494471e-04  1.671101e-07
     39     49   2   0.50000    -0.1100000    0.0600000   2.494471e-04  1.671101e-07
     35     52   2   0.50000    -0.0600000    0.5000000   1.575021e-03  3.561100e-06
     35     59   2   0.50000    -0.0600000    0.0600000   2.494471e-04  1.671101e-07
     35     66   2   0.50000    -0.0600000   -0.1200000   1.015252e-03  1.866303e-06
     57     52   2   0.50000     0.0600000    0.5000000   3.869820e-04  3.188634e-07
     57     59   2   0.50000     0.0600000    0.0600000   6.128906e-05  1.496315e-08
     57     66   2   0.50000     0.0600000   -0.1200000   2.494471e-04  1.671101e-07
     58     52   2   0.50000     0.0600000    0.5000000   3.869820e-04  3.188634e-07
     58     59   2   0.50000     0.0600000    0.0600000   6.128906e-05  1.496315e-08
     58     66   2   0.50000     0.0600000   -0.1200000   2.494471e-04  1.671101e-07
     50     53   2   0.50000    -0.1200000   -0.5000000   1.095425e-03  1.218041e-06
     50     54   2   0.50000    -0.1200000   -0.1400000   1.304585e-03  1.920112e-06
     59     53   2   0.50000     0.0600000   -0.5000000   2.691455e-04  1.090642e-07
     59     54   2   0.50000     0.0600000   -0.1400000   3.205360e-04  1.719281e-07
     66     53   2   0.50000    -0.1200000   -0.5000000   1.095425e-03  1.218041e-06
     66     54   2   0.50000    -0.1200000   -0.1400000   1.304585e-03  1.920112e-06
     50     67   2   0.50000    -0.1200000   -0.0600000   1.015252e-03  1.866303e-06
     50     73   2   0.50000    -0.1200000    0.0600000   2.494471e-04  1.671101e-07
     50     74   2   0.50000    -0.1200000    0.0600000   2.494471e-04  1.671101e-07
     52     67   2   0.50000     0.5000000   -0.0600000   1.575021e-03  3.561100e-06
     52     73   2   0.50000     0.5000000    0.0600000   3.869820e-04  3.188634e-07
     52     74   2   0.50000     0.5000000    0.0600000   3.869820e-04  3.188634e-07
     59     67   2   0.50000     0.0600000   -0.0600000   2.494471e-04  1.671101e-07
     59     73   2   0.50000     0.0600000    0.0600000   6.128906e-05  1.496315e-08
     59     74   2   0.50000     0.0600000    0.0600000   6.128906e-05  1.496315e-08
     51     55   2   0.50000    -0.0600000   -0.1100000   1.015252e-03  1.866303e-06
     51     56   2   0.50000    -0.0600000   -0.1100000   1.015252e-03  1.866303e-06
     53     55   2   0.50000    -0.5000000   -0.1100000   1.095425e-03  1.218041e-06
     53     56   2   0.50000    -0.5000000   -0.1100000   1.095425e-03  1.218041e-06
     52     60   2   0.50000     0.5000000    0.0600000   3.869820e-04  3.188634e-07
     52     61   2   0.50000     0.5000000    0.0600000   3.869820e-04  3.188634e-07
     52     62   2   0.50000     0.5000000    0.0600000   3.869820e-04  3.188634e-07
     56     60   2   0.50000    -0.1100000    0.0600000   2.494471e-04  1.671101e-07
     56     61   2   0.50000    -0.1100000    0.0600000   2.494471e-04  1.671101e-07
     56     62   2   0.50000    -0.1100000    0.0600000   2.494471e-04  1.671101e-07
     52     63   2   0.50000     0.5000000    0.0600000   3.869820e-04  3.188634e-07
     52     64   2   0.50000     0.5000000    0.0600000   3.869820e-04  3.188634e-07
     52     65   2   0.50000     0.5000000    0.0600000   3.869820e-04  3.188634e-07
     55     63   2   0.50000    -0.1100000    0.0600000   2.494471e-04  1.671101e-07
     55     64   2   0.50000    -0.1100000    0.0600000   2.494471e-04  1.671101e-07
     55     65   2   0.50000    -0.1100000    0.0600000   2.494471e-04  1.671101e-07
     51     68   2   0.50000    -0.0600000    0.5000000   1.575021e-03  3.561100e-06
     51     75   2   0.50000    -0.0600000    0.0600000   2.494471e-04  1.671101e-07
     51     82   2   0.50000    -0.0600000   -0.1200000   1.015252e-03  1.866303e-06
     73     68   2   0.50000     0.0600000    0.5000000   3.869820e-04  3.188634e-07
     73     75   2   0.50000     0.0600000    0.0600000   6.128906e-05  1.496315e-08
     73     82   2   0.50000     0.0600000   -0.1200000   2.494471e-04  1.671101e-07
     74     68   2   0.50000     0.0600000    0.5000000   3.869820e-04  3.188634e-07
     74     75   2   0.50000     0.0600000    0.0600000   6.128906e-05  1.496315e-08
     74     82   2   0.50000     0.0600000   -0.1200000   2.494471e-04  1.671101e-07
     66     69   2   0.50000    -0.1200000   -0.5000000   1.095425e-03  1.218041e-06
     66     70   2   0.50000    -0.1200000   -0.1400000   1.304585e-03  1.920112e-06
     75     69   2   0.50000     0.0600000   -0.5000000   2.691455e-04  1.090642e-07
     75     70   2   0.50000     0.0600000   -0.1400000   3.205360e-04  1.719281e-07
     82     69   2   0.50000    -0.1200000   -0.5000000   1.095425e-03  1.218041e-06
     82     70   2   0.50000    -0.1200000   -0.1400000   1.304585e-03  1.920112e-06
     66     83   2   0.50000    -0.1200000   -0.0600000   1.015252e-03  1.866303e-06
     66     89   2   0.50000    -0.1200000    0.0600000   2.494471e-04  1.671101e-07
     66     90   2   0.50000    -0.1200000    0.0600000   2.494471e-04  1.671101e-07
     68     83   2   0.50000     0.5000000   -0.0600000   1.575021e-03  3.561100e-06
     68     89   2   0.50000     0.5000000    0.0600000   3.869820e-04  3.188634e-07
     68     90   2   0.50000     0.5000000    0.0600000   3.869820e-04  3.188634e-07
     75     83   2   0.50000     0.0600000   -0.0600000   2.494471e-04  1.671101e-07
     75     89   2   0.50000     0.0600000    0.0600000   6.128906e-05  1.496315e-08
     75     90   2   0.50000     0.0600000    0.0600000   6.128906e-05  1.496315e-08
     67     71   2   0.50000    -0.0600000   -0.1100000   1.015252e-03  1.866303e-06
     67     72   2   0.50000    -0.0600000   -0.1100000   1.015252e-03  1.866303e-06
     69     71   2   0.50000    -0.5000000   -0.1100000   1.095425e-03  1.218041e-06
     69     72   2   0.50000    -0.5000000   -0.1100000   1.095425e-03  1.218041e-06
     68     76   2   0.50000     0.5000000    0.0600000   3.869820e-04  3.188634e-07
     68     77   2   0.50000     0.5000000    0.0600000   3.869820e-04  3.188634e-07
     68     78   2   0.50000     0.5000000    0.0600000   3.869820e-04  3.188634e-07
     72     76   2   0.50000    -0.1100000    0.0600000   2.494471e-04  1.671101e-07
     72     77   2   0.50000    -0.1100000    0.0600000   2.494471e-04  1.671101e-07
     72     78   2   0.50000    -0.1100000    0.0600000   2.494471e-04  1.671101e-07
     68     79   2   0.50000     0.5000000    0.0600000   3.869820e-04  3.188634e-07
     68     80   2   0.50000     0.5000000    0.0600000   3.869820e-04  3.188634e-07
     68     81   2   0.50000     0.5000000    0.0600000   3.869820e-04  3.188634e-07
     71     79   2   0.50000    -0.1100000    0.0600000   2.494471e-04  1.671101e-07
     71     80   2   0.50000    -0.1100000    0.0600000   2.494471e-04  1.671101e-07
     71     81   2   0.50000    -0.1100000    0.0600000   2.494471e-04  1.671101e-07
     67     84   2   0.50000    -0.0600000    0.5000000   1.575021e-03  3.561100e-06
     67     91   2   0.50000    -0.0600000    0.0600000   2.494471e-04  1.671101e-07
     67     98   2   0.50000    -0.0600000   -0.1200000   1.015252e-03  1.866303e-06
     89     84   2   0.50000     0.0600000    0.5000000   3.869820e-04  3.188634e-07
     89     91   2   0.50000     0.0600000    0.0600000   6.128906e-05  1.496315e-08
     89     98   2   0.50000     0.0600000   -0.1200000   2.494471e-04  1.671101e-07
     90     84   2   0.50000     0.0600000    0.5000000   3.869820e-04  3.188634e-07
     90     91   2   0.50000     0.0600000    0.0600000   6.128906e-05  1.496315e-08
     90     98   2   0.50000     0.0600000   -0.1200000   2.494471e-04  1.671101e-07
     82     85   2   0.50000    -0.1200000   -0.5000000   1.095425e-03  1.218041e-06
     82     86   2   0.50000    -0.1200000   -0.1400000   1.304585e-03  1.920112e-06
     91     85   2   0.50000     0.0600000   -0.5000000   2.691455e-04  1.090642e-07
     91     86   2   0.50000     0.0600000   -0.1400000   3.205360e-04  1.719281e-07
     98     85   2   0.50000    -0.1200000   -0.5000000   1.095425e-03  1.218041e-06
     98     86   2   0.50000    -0.1200000   -0.1400000   1.304585e-03  1.920112e-06
     82     99   2   0.50000    -0.1200000   -0.0600000   1.015252e-03  1.866303e-06
     82    105   2   0.50000    -0.1200000    0.0600000   2.494471e-04  1.671101e-07
     82    106   2   0.50000    -0.1200000    0.0600000   2.494471e-04  1.671101e-07
     84     99   2   0.50000     0.5000000   -0.0600000   1.575021e-03  3.561100e-06
     84    105   2   0.50000     0.5000000    0.0600000   3.869820e-04  3.188634e-07
     84    106   2   0.50000     0.5000000    0.0600000   3.869820e-04  3.188634e-07
     91     99   2   0.50000     0.0600000   -0.0600000   2.494471e-04  1.671101e-07
     91    105   2   0.50000     0.0600000    0.0600000   6.128906e-05  1.496315e-08
     91    106   2   0.50000     0.0600000    0.0600000   6.128906e-05  1.496315e-08
     83     87   2   0.50000    -0.0600000   -0.1100000   1.015252e-03  1.866303e-06
     83     88   2   0.50000    -0.0600000   -0.1100000   1.015252e-03  1.866303e-06
     85     87   2   0.50000    -0.5000000   -0.1100000   1.095425e-03  1.218041e-06
     85     88   2   0.50000    -0.5000000   -0.1100000   1.095425e-03  1.218041e-06
     84     92   2   0.50000     0.5000000    0.0600000   3.869820e-04  3.188634e-07
     84     93   2   0.50000     0.5000000    0.0600000   3.869820e-04  3.188634e-07
     84     94   2   0.50000     0.5000000    0.0600000   3.869820e-04  3.188634e-07
     88     92   2   0.50000    -0.1100000    0.0600000   2.494471e-04  1.671101e-07
     88     93   2   0.50000    -0.1100000    0.0600000   2.494471e-04  1.671101e-07
     88     94   2   0.50000    -0.1100000    0.0600000   2.494471e-04  1.671101e-07
     84     95   2   0.50000     0.5000000    0.0600000   3.869820e-04  3.188634e-07
     84     96   2   0.50000     0.5000000    0.0600000   3.869820e-04  3.188634e-07
     84     97   2   0.50000     0.5000000    0.0600000   3.869820e-04  3.188634e-07
     87     95   2   0.50000    -0.1100000    0.0600000   2.494471e-04  1.671101e-07
     87     96   2   0.50000    -0.1100000    0.0600000   2.494471e-04  1.671101e-07
     87     97   2   0.50000    -0.1100000    0.0600000   2.494471e-04  1.671101e-07
     83    100   2   0.50000    -0.0600000    0.5000000   1.575021e-03  3.561100e-06
     83    107   2   0.50000    -0.0600000    0.0600000   2.494471e-04  1.671101e-07
     83    114   2   0.50000    -0.0600000   -0.1200000   1.015252e-03  1.866303e-06
    105    100   2   0.50000     0.0600000    0.5000000   3.869820e-04  3.188634e-07
    105    107   2   0.50000     0.0600000    0.0600000   6.128906e-05  1.496315e-08
    105    114   2   0.50000     0.0600000   -0.1200000   2.494471e-04  1.671101e-07
    106    100   2   0.50000     0.0600000    0.5000000   3.869820e-04  3.188634e-07
    106    107   2   0.50000     0.0600000    0.0600000   6.128906e-05  1.496315e-08
    106    114   2   0.50000     0.0600000   -0.1200000   2.494471e-04  1.671101e-07
     98    101   2   0.50000    -0.1200000   -0.5000000   1.095425e-03  1.218041e-06
     98    102   2   0.50000    -0.1200000   -0.1400000   1.304585e-03  1.920112e-06
    107    101   2   0.50000     0.0600000   -0.5000000   2.691455e-04  1.090642e-07
    107    102   2   0.50000     0.0600000   -0.1400000   3.205360e-04  1.719281e-07
    114    101   2   0.50000    -0.1200000   -0.5000000   1.095425e-03  1.218041e-06
    114    102   2   0.50000    -0.1200000   -0.1400000   1.304585e-03  1.920112e-06
     98    115   2   0.50000    -0.1200000   -0.0600000   1.015252e-03  1.866303e-06
     98    121   2   0.50000    -0.1200000    0.0600000   2.494471e-04  1.671101e-07
     98    122   2   0.50000    -0.1200000    0.0600000   2.494471e-04  1.671101e-07
    100    115   2   0.50000     0.5000000   -0.0600000   1.575021e-03  3.561100e-06
    100    121   2   0.50000     0.5000000    0.0600000   3.869820e-04  3.188634e-07
    100    122   2   0.50000     0.5000000    0.0600000   3.869820e-04  3.188634e-07
    107    115   2   0.50000     0.0600000   -0.0600000   2.494471e-04  1.671101e-07
    107    121   2   0.50000     0.0600000    0.0600000   6.128906e-05  1.496315e-08
    107    122   2   0.50000     0.0600000    0.0600000   6.128906e-05  1.496315e-08
     99    103   2   0.50000    -0.0600000   -0.1100000   1.015252e-03  1.866303e-06
     99    104   2   0.50000    -0.0600000   -0.1100000   1.015252e-03  1.866303e-06
    101    103   2   0.50000    -0.5000000   -0.1100000   1.095425e-03  1.218041e-06
    101    104   2   0.50000    -0.5000000   -0.1100000   1.095425e-03  1.218041e-06
    100    108   2   0.50000     0.5000000    0.0600000   3.869820e-04  3.188634e-07
    100    109   2   0.50000     0.5000000    0.0600000   3.869820e-04  3.188634e-07
    100    110   2   0.50000     0.5000000    0.0600000   3.869820e-04  3.188634e-07
    104    108   2   0.50000    -0.1100000    0.0600000   2.494471e-04  1.671101e-07
    104    109   2   0.50000    -0.1100000    0.0600000   2.494471e-04  1.671101e-07
    104    110   2   0.50000    -0.1100000    0.0600000   2.494471e-04  1.671101e-07
    100    111   2   0.50000     0.5000000    0.0600000   3.869820e-04  3.188634e-07
    100    112   2   0.50000     0.5000000    0.0600000   3.869820e-04  3.188634e-07
    100    113   2   0.50000     0.5000000    0.0600000   3.869820e-04  3.188634e-07
    103    111   2   0.50000    -0.1100000    0.0600000   2.494471e-04  1.671101e-07
    103    112   2   0.50000    -0.1100000    0.0600000   2.494471e-04  1.671101e-07
    103    113   2   0.50000    -0.1100000    0.0600000   2.494471e-04  1.671101e-07
     99    116   2   0.50000    -0.0600000    0.5000000   1.575021e-03  3.561100e-06
     99    123   2   0.50000    -0.0600000    0.0600000   2.494471e-04  1.671101e-07
     99    130   2   0.50000    -0.0600000   -0.1200000   1.015252e-03  1.866303e-06
    121    116   2   0.50000     0.0600000    0.5000000   3.869820e-04  3.188634e-07
    121    123   2   0.50000     0.0600000    0.0600000   6.128906e-05  1.496315e-08
    121    130   2   0.50000     0.0600000   -0.1200000   2.494471e-04  1.671101e-07
    122    116   2   0.50000     0.0600000    0.5000000   3.869820e-04  3.188634e-07
    122    123   2   0.50000     0.0600000    0.0600000   6.128906e-05  1.496315e-08
    122    130   2   0.50000     0.0600000   -0.1200000   2.494471e-04  1.671101e-07
    114    117   2   0.50000    -0.1200000   -0.5000000   1.095425e-03  1.218041e-06
    114    118   2   0.50000    -0.1200000   -0.1400000   1.304585e-03  1.920112e-06
    123    117   2   0.50000     0.0600000   -0.5000000   2.691455e-04  1.090642e-07
    123    118   2   0.50000     0.0600000   -0.1400000   3.205360e-04  1.719281e-07
    130    117   2   0.50000    -0.1200000   -0.5000000   1.095425e-03  1.218041e-06
    130    118   2   0.50000    -0.1200000   -0.1400000   1.304585e-03  1.920112e-06
    114    131   2   0.50000    -0.1200000   -0.0600000   1.015252e-03  1.866303e-06
    114    137   2   0.50000    -0.1200000    0.0600000   2.494471e-04  1.671101e-07
    114    138   2   0.50000    -0.1200000    0.0600000   2.494471e-04  1.671101e-07
    116    131   2   0.50000     0.5000000   -0.0600000   1.575021e-03  3.561100e-06
    116    137   2   0.50000     0.5000000    0.0600000   3.869820e-04  3.188634e-07
    116    138   2   0.50000     0.5000000    0.0600000   3.869820e-04  3.188634e-07
    123    131   2   0.50000     0.0600000   -0.0600000   2.494471e-04  1.671101e-07
    123    137   2   0.50000     0.0600000    0.0600000   6.128906e-05  1.496315e-08
    123    138   2   0.50000     0.0600000    0.0600000   6.128906e-05  1.496315e-08
    115    119   2   0.50000    -0.0600000   -0.1100000   1.015252e-03  1.866303e-06
    115    120   2   0.50000    -0.0600000   -0.1100000   1.015252e-03  1.866303e-06
    117    119   2   0.50000    -0.5000000   -0.1100000   1.095425e-03  1.218041e-06
    117    120   2   0.50000    -0.5000000   -0.1100000   1.095425e-03  1.218041e-06
    116    124   2   0.50000     0.5000000    0.0600000   3.869820e-04  3.188634e-07
    116    125   2   0.50000     0.5000000    0.0600000   3.869820e-04  3.188634e-07
    116    126   2   0.50000     0.5000000    0.0600000   3.869820e-04  3.188634e-07
    120    124   2   0.50000    -0.1100000    0.0600000   2.494471e-04  1.671101e-07
    120    125   2   0.50000    -0.1100000    0.0600000   2.494471e-04  1.671101e-07
    120    126   2   0.50000    -0.1100000    0.0600000   2.494471e-04  1.671101e-07
    116    127   2   0.50000     0.5000000    0.0600000   3.869820e-04  3.188634e-07
    116    128   2   0.50000     0.5000000    0.0600000   3.869820e-04  3.188634e-07
    116    129   2   0.50000     0.5000000    0.0600000   3.869820e-04  3.188634e-07
    119    127   2   0.50000    -0.1100000    0.0600000   2.494471e-04  1.671101e-07
    119    128   2   0.50000    -0.1100000    0.0600000   2.494471e-04  1.671101e-07
    119    129   2   0.50000    -0.1100000    0.0600000   2.494471e-04  1.671101e-07
    115    132   2   0.50000    -0.0600000    0.5000000   1.575021e-03  3.561100e-06
    115    139   2   0.50000    -0.0600000    0.0600000   2.494471e-04  1.671101e-07
    115    146   2   0.50000    -0.0600000   -0.1200000   1.015252e-03  1.866303e-06
    137    132   2   0.50000     0.0600000    0.5000000   3.869820e-04  3.188634e-07
    137    139   2   0.50000     0.0600000    0.0600000   6.128906e-05  1.496315e-08
    137    146   2   0.50000     0.0600000   -0.1200000   2.494471e-04  1.671101e-07
    138    132   2   0.50000     0.0600000    0.5000000   3.869820e-04  3.188634e-07
    138    139   2   0.50000     0.0600000    0.0600000   6.128906e-05  1.496315e-08
    138    146   2   0.50000     0.0600000   -0.1200000   2.494471e-04  1.671101e-07
    130    133   2   0.50000    -0.1200000   -0.5000000   1.095425e-03  1.218041e-06
    130    134   2   0.50000    -0.1200000   -0.1400000   1.304585e-03  1.920112e-06
    139    133   2   0.50000     0.0600000   -0.5000000   2.691455e-04  1.090642e-07
    139    134   2   0.50000     0.0600000   -0.1400000   3.205360e-04  1.719281e-07
    146    133   2   0.50000    -0.1200000   -0.5000000   1.095425e-03  1.218041e-06
    146    134   2   0.50000    -0.1200000   -0.1400000   1.304585e-03  1.920112e-06
    130    147   2   0.50000    -0.1200000   -0.0600000   1.015252e-03  1.866303e-06
    130    153   2   0.50000    -0.1200000    0.0600000   2.494471e-04  1.671101e-07
    130    154   2   0.50000    -0.1200000    0.0600000   2.494471e-04  1.671101e-07
    132    147   2   0.50000     0.5000000   -0.0600000   1.575021e-03  3.561100e-06
    132    153   2   0.50000     0.5000000    0.0600000   3.869820e-04  3.188634e-07
    132    154   2   0.50000     0.5000000    0.0600000   3.869820e-04  3.188634e-07
    139    147   2   0.50000     0.0600000   -0.0600000   2.494471e-04  1.671101e-07
    139    153   2   0.50000     0.0600000    0.0600000   6.128906e-05  1.496315e-08
    139    154   2   0.50000     0.0600000    0.0600000   6.128906e-05  1.496315e-08
    131    135   2   0.50000    -0.0600000   -0.1100000   1.015252e-03  1.866303e-06
    131    136   2   0.50000    -0.0600000   -0.1100000   1.015252e-03  1.866303e-06
    133    135   2   0.50000    -0.5000000   -0.1100000   1.095425e-03  1.218041e-06
    133    136   2   0.50000    -0.5000000   -0.1100000   1.095425e-03  1.218041e-06
    132    140   2   0.50000     0.5000000    0.0600000   3.869820e-04  3.188634e-07
    132    141   2   0.50000     0.5000000    0.0600000   3.869820e-04  3.188634e-07
    132    142   2   0.50000     0.5000000    0.0600000   3.869820e-04  3.188634e-07
    136    140   2   0.50000    -0.1100000    0.0600000   2.494471e-04  1.671101e-07
    136    141   2   0.50000    -0.1100000    0.0600000   2.494471e-04  1.671101e-07
    136    142   2   0.50000    -0.1100000    0.0600000   2.494471e-04  1.671101e-07
    132    143   2   0.50000     0.5000000    0.0600000   3.869820e-04  3.188634e-07
    132    144   2   0.50000     0.5000000    0.0600000   3.869820e-04  3.188634e-07
    132    145   2   0.50000     0.5000000    0.0600000   3.869820e-04  3.188634e-07
    135    143   2   0.50000    -0.1100000    0.0600000   2.494471e-04  1.671101e-07
    135    144   2   0.50000    -0.1100000    0.0600000   2.494471e-04  1.671101e-07
    135    145   2   0.50000    -0.1100000    0.0600000   2.494471e-04  1.671101e-07
    131    148   2   0.50000    -0.0600000    0.5000000   1.575021e-03  3.561100e-06
    131    155   2   0.50000    -0.0600000    0.0600000   2.494471e-04  1.671101e-07
    131    162   2   0.50000    -0.0600000   -0.1200000   1.015252e-03  1.866303e-06
    153    148   2   0.50000     0.0600000    0.5000000   3.869820e-04  3.188634e-07
    153    155   2   0.50000     0.0600000    0.0600000   6.128906e-05  1.496315e-08
    153    162   2   0.50000     0.0600000   -0.1200000   2.494471e-04  1.671101e-07
    154    148   2   0.50000     0.0600000    0.5000000   3.869820e-04  3.188634e-07
    154    155   2   0.50000     0.0600000    0.0600000   6.128906e-05  1.496315e-08
    154    162   2   0.50000     0.0600000   -0.1200000   2.494471e-04  1.671101e-07
    146    149   2   0.50000    -0.1200000   -0.5000000   1.095425e-03  1.218041e-06
    146    150   2   0.50000    -0.1200000   -0.1400000   1.304585e-03  1.920112e-06
    155    149   2   0.50000     0.0600000   -0.5000000   2.691455e-04  1.090642e-07
    155    150   2   0.50000     0.0600000   -0.1400000   3.205360e-04  1.719281e-07
    162    149   2   0.50000    -0.1200000   -0.5000000   1.095425e-03  1.218041e-06
    162    150   2   0.50000    -0.1200000   -0.1400000   1.304585e-03  1.920112e-06
    146    163   2   0.50000    -0.1200000   -0.0600000   1.015252e-03  1.866303e-06
    146    169   2   0.50000    -0.1200000    0.0600000   2.494471e-04  1.671101e-07
    146    170   2   0.50000    -0.1200000    0.0600000   2.494471e-04  1.671101e-07
    148    163   2   0.50000     0.5000000   -0.0600000   1.575021e-03  3.561100e-06
    148    169   2   0.50000     0.5000000    0.0600000   3.869820e-04  3.188634e-07
    148    170   2   0.50000     0.5000000    0.0600000   3.869820e-04  3.188634e-07
    155    163   2   0.50000     0.0600000   -0.0600000   2.494471e-04  1.671101e-07
    155    169   2   0.50000     0.0600000    0.0600000   6.128906e-05  1.496315e-08
    155    170   2   0.50000     0.0600000    0.0600000   6.128906e-05  1.496315e-08
    147    151   2   0.50000    -0.0600000   -0.1100000   1.015252e-03  1.866303e-06
    147    152   2   0.50000    -0.0600000   -0.1100000   1.015252e-03  1.866303e-06
    149    151   2   0.50000    -0.5000000   -0.1100000   1.095425e-03  1.218041e-06
    149    152   2   0.50000    -0.5000000   -0.1100000   1.095425e-03  1.218041e-06
    148    156   2   0.50000     0.5000000    0.0600000   3.869820e-04  3.188634e-07
    148    157   2   0.50000     0.5000000    0.0600000   3.869820e-04  3.188634e-07
    148    158   2   0.50000     0.5000000    0.0600000   3.869820e-04  3.188634e-07
    152    156   2   0.50000    -0.1100000    0.0600000   2.494471e-04  1.671101e-07
    152    157   2   0.50000    -0.1100000    0.0600000   2.494471e-04  1.671101e-07
    152    158   2   0.50000    -0.1100000    0.0600000   2.494471e-04  1.671101e-07
    148    159   2   0.50000     0.5000000    0.0600000   3.869820e-04  3.188634e-07
    148    160   2   0.50000     0.5000000    0.0600000   3.869820e-04  3.188634e-07
    148    161   2   0.50000     0.5000000    0.0600000   3.869820e-04  3.188634e-07
    151    159   2   0.50000    -0.1100000    0.0600000   2.494471e-04  1.671101e-07
    151    160   2   0.50000    -0.1100000    0.0600000   2.494471e-04  1.671101e-07
    151    161   2   0.50000    -0.1100000    0.0600000   2.494471e-04  1.671101e-07
    147    164   2   0.50000    -0.0600000    0.5000000   1.575021e-03  3.561100e-06
    147    171   2   0.50000    -0.0600000    0.0600000   2.494471e-04  1.671101e-07
    147    178   2   0.50000    -0.0600000   -0.1200000   1.015252e-03  1.866303e-06
    169    164   2   0.50000     0.0600000    0.5000000   3.869820e-04  3.188634e-07
    169    171   2   0.50000     0.0600000    0.0600000   6.128906e-05  1.496315e-08
    169    178   2   0.50000     0.0600000   -0.1200000   2.494471e-04  1.671101e-07
    170    164   2   0.50000     0.0600000    0.5000000   3.869820e-04  3.188634e-07
    170    171   2   0.50000     0.0600000    0.0600000   6.128906e-05  1.496315e-08
    170    178   2   0.50000     0.0600000   -0.1200000   2.494471e-04  1.671101e-07
    162    165   2   0.50000    -0.1200000   -0.5000000   1.095425e-03  1.218041e-06
    162    166   2   0.50000    -0.1200000   -0.1400000   1.304585e-03  1.920112e-06
    171    165   2   0.50000     0.0600000   -0.5000000   2.691455e-04  1.090642e-07
    171    166   2   0.50000     0.0600000   -0.1400000   3.205360e-04  1.719281e-07
    178    165   2   0.50000    -0.1200000   -0.5000000   1.095425e-03  1.218041e-06
    178    166   2   0.50000    -0.1200000   -0.1400000   1.304585e-03  1.920112e-06
    162    179   2   0.50000    -0.1200000   -0.0600000   1.015252e-03  1.866303e-06
    162    185   2   0.50000    -0.1200000    0.0600000   2.494471e-04  1.671101e-07
    162    186   2   0.50000    -0.1200000    0.0600000   2.494471e-04  1.671101e-07
    164    179   2   0.50000     0.5000000   -0.0600000   1.575021e-03  3.561100e-06
    164    185   2   0.50000     0.5000000    0.0600000   3.869820e-04  3.188634e-07
    164    186   2   0.50000     0.5000000    0.0600000   3.869820e-04  3.188634e-07
    171    179   2   0.50000     0.0600000   -0.0600000   2.494471e-04  1.671101e-07
    171    185   2   0.50000     0.0600000    0.0600000   6.128906e-05  1.496315e-08
    171    186   2   0.50000     0.0600000    0.0600000   6.128906e-05  1.496315e-08
    163    167   2   0.50000    -0.0600000   -0.1100000   1.015252e-03  1.866303e-06
    163    168   2   0.50000    -0.0600000   -0.1100000   1.015252e-03  1.866303e-06
    165    167   2   0.50000    -0.5000000   -0.1100000   1.095425e-03  1.218041e-06
    165    168   2   0.50000    -0.5000000   -0.1100000   1.095425e-03  1.218041e-06
    164    172   2   0.50000     0.5000000    0.0600000   3.869820e-04  3.188634e-07
    164    173   2   0.50000     0.5000000    0.0600000   3.869820e-04  3.188634e-07
    164    174   2   0.50000     0.5000000    0.0600000   3.869820e-04  3.188634e-07
    168    172   2   0.50000    -0.1100000    0.0600000   2.494471e-04  1.671101e-07
    168    173   2   0.50000    -0.1100000    0.0600000   2.494471e-04  1.671101e-07
    168    174   2   0.50000    -0.1100000    0.0600000   2.494471e-04  1.671101e-07
    164    175   2   0.50000     0.5000000    0.0600000   3.869820e-04  3.188634e-07
    164    176   2   0.50000     0.5000000    0.0600000   3.869820e-04  3.188634e-07
    164    177   2   0.50000     0.5000000    0.0600000   3.869820e-04  3.188634e-07
    167    175   2   0.50000    -0.1100000    0.0600000   2.494471e-04  1.671101e-07
    167    176   2   0.50000    -0.1100000    0.0600000   2.494471e-04  1.671101e-07
    167    177   2   0.50000    -0.1100000    0.0600000   2.494471e-04  1.671101e-07
    163    180   2   0.50000    -0.0600000    0.5000000   1.575021e-03  3.561100e-06
    163    187   2   0.50000    -0.0600000    0.0600000   2.494471e-04  1.671101e-07
    163    194   2   0.50000    -0.0600000   -0.1200000   1.015252e-03  1.866303e-06
    185    180   2   0.50000     0.0600000    0.5000000   3.869820e-04  3.188634e-07
    185    187   2   0.50000     0.0600000    0.0600000   6.128906e-05  1.496315e-08
    185    194   2   0.50000     0.0600000   -0.1200000   2.494471e-04  1.671101e-07
    186    180   2   0.50000     0.0600000    0.5000000   3.869820e-04  3.188634e-07
    186    187   2   0.50000     0.0600000    0.0600000   6.128906e-05  1.496315e-08
    186    194   2   0.50000     0.0600000   -0.1200000   2.494471e-04  1.671101e-07
    178    181   2   0.50000    -0.1200000   -0.5000000   1.095425e-03  1.218041e-06
    178    182   2   0.50000    -0.1200000   -0.1400000   1.304585e-03  1.920112e-06
    187    181   2   0.50000     0.0600000   -0.5000000   2.691455e-04  1.090642e-07
    187    182   2   0.50000     0.0600000   -0.1400000   3.205360e-04  1.719281e-07
    194    181   2   0.50000    -0.1200000   -0.5000000   1.095425e-03  1.218041e-06
    194    182   2   0.50000    -0.1200000   -0.1400000   1.304585e-03  1.920112e-06
    178    195   2   0.50000    -0.1200000   -0.0600000   1.015252e-03  1.866303e-06
    178    201   2   0.50000    -0.1200000    0.0600000   2.494471e-04  1.671101e-07
    178    202   2   0.50000    -0.1200000    0.0600000   2.494471e-04  1.671101e-07
    180    195   2   0.50000     0.5000000   -0.0600000   1.575021e-03  3.561100e-06
    180    201   2   0.50000     0.5000000    0.0600000   3.869820e-04  3.188634e-07
    180    202   2   0.50000     0.5000000    0.0600000   3.869820e-04  3.188634e-07
    187    195   2   0.50000     0.0600000   -0.0600000   2.494471e-04  1.671101e-07
    187    201   2   0.50000     0.0600000    0.0600000   6.128906e-05  1.496315e-08
    187    202   2   0.50000     0.0600000    0.0600000   6.128906e-05  1.496315e-08
    179    183   2   0.50000    -0.0600000   -0.1100000   1.015252e-03  1.866303e-06
    179    184   2   0.50000    -0.0600000   -0.1100000   1.015252e-03  1.866303e-06
    181    183   2   0.50000    -0.5000000   -0.1100000   1.095425e-03  1.218041e-06
    181    184   2   0.50000    -0.5000000   -0.1100000   1.095425e-03  1.218041e-06
    180    188   2   0.50000     0.5000000    0.0600000   3.869820e-04  3.188634e-07
    180    189   2   0.50000     0.5000000    0.0600000   3.869820e-04  3.188634e-07
    180    190   2   0.50000     0.5000000    0.0600000   3.869820e-04  3.188634e-07
    184    188   2   0.50000    -0.1100000    0.0600000   2.494471e-04  1.671101e-07
    184    189   2   0.50000    -0.1100000    0.0600000   2.494471e-04  1.671101e-07
    184    190   2   0.50000    -0.1100000    0.0600000   2.494471e-04  1.671101e-07
    180    191   2   0.50000     0.5000000    0.0600000   3.869820e-04  3.188634e-07
    180    192   2   0.50000     0.5000000    0.0600000   3.869820e-04  3.188634e-07
    180    193   2   0.50000     0.5000000    0.0600000   3.869820e-04  3.188634e-07
    183    191   2   0.50000    -0.1100000    0.0600000   2.494471e-04  1.671101e-07
    183    192   2   0.50000    -0.1100000    0.0600000   2.494471e-04  1.671101e-07
    183    193   2   0.50000    -0.1100000    0.0600000   2.494471e-04  1.671101e-07
    179    196   2   0.50000    -0.0600000    0.5000000   1.575021e-03  3.561100e-06
    179    203   2   0.50000    -0.0600000    0.0600000   2.494471e-04  1.671101e-07
    179    210   2   0.50000    -0.0600000   -0.1200000   1.015252e-03  1.866303e-06
    201    196   2   0.50000     0.0600000    0.5000000   3.869820e-04  3.188634e-07
    201    203   2   0.50000     0.0600000    0.0600000   6.128906e-05  1.496315e-08
    201    210   2   0.50000     0.0600000   -0.1200000   2.494471e-04  1.671101e-07
    202    196   2   0.50000     0.0600000    0.5000000   3.869820e-04  3.188634e-07
    202    203   2   0.50000     0.0600000    0.0600000   6.128906e-05  1.496315e-08
    202    210   2   0.50000     0.0600000   -0.1200000   2.494471e-04  1.671101e-07
    194    197   2   0.50000    -0.1200000   -0.5000000   1.095425e-03  1.218041e-06
    194    198   2   0.50000    -0.1200000   -0.1400000   1.304585e-03  1.920112e-06
    203    197   2   0.50000     0.0600000   -0.5000000   2.691455e-04  1.090642e-07
    203    198   2   0.50000     0.0600000   -0.1400000   3.205360e-04  1.719281e-07
    210    197   2   0.50000    -0.1200000   -0.5000000   1.095425e-03  1.218041e-06
    210    198   2   0.50000    -0.1200000   -0.1400000   1.304585e-03  1.920112e-06
    194    211   2   0.50000    -0.1200000   -0.0600000   1.015252e-03  1.866303e-06
    194    217   2   0.50000    -0.1200000    0.0600000   2.494471e-04  1.671101e-07
    194    218   2   0.50000    -0.1200000    0.0600000   2.494471e-04  1.671101e-07
    196    211   2   0.50000     0.5000000   -0.0600000   1.575021e-03  3.561100e-06
    196    217   2   0.50000     0.5000000    0.0600000   3.869820e-04  3.188634e-07
    196    218   2   0.50000     0.5000000    0.0600000   3.869820e-04  3.188634e-07
    203    211   2   0.50000     0.0600000   -0.0600000   2.494471e-04  1.671101e-07
    203    217   2   0.50000     0.0600000    0.0600000   6.128906e-05  1.496315e-08
    203    218   2   0.50000     0.0600000    0.0600000   6.128906e-05  1.496315e-08
    195    199   2   0.50000    -0.0600000   -0.1100000   1.015252e-03  1.866303e-06
    195    200   2   0.50000    -0.0600000   -0.1100000   1.015252e-03  1.866303e-06
    197    199   2   0.50000    -0.5000000   -0.1100000   1.095425e-03  1.218041e-06
    197    200   2   0.50000    -0.5000000   -0.1100000   1.095425e-03  1.218041e-06
    196    204   2   0.50000     0.5000000    0.0600000   3.869820e-04  3.188634e-07
    196    205   2   0.50000     0.5000000    0.0600000   3.869820e-04  3.188634e-07
    196    206   2   0.50000     0.5000000    0.0600000   3.869820e-04  3.188634e-07
    200    204   2   0.50000    -0.1100000    0.0600000   2.494471e-04  1.671101e-07
    200    205   2   0.50000    -0.1100000    0.0600000   2.494471e-04  1.671101e-07
    200    206   2   0.50000    -0.1100000    0.0600000   2.494471e-04  1.671101e-07
    196    207   2   0.50000     0.5000000    0.0600000   3.869820e-04  3.188634e-07
    196    208   2   0.50000     0.5000000    0.0600000   3.869820e-04  3.188634e-07
    196    209   2   0.50000     0.5000000    0.0600000   3.869820e-04  3.188634e-07
    199    207   2   0.50000    -0.1100000    0.0600000   2.494471e-04  1.671101e-07
    199    208   2   0.50000    -0.1100000    0.0600000   2.494471e-04  1.671101e-07
    199    209   2   0.50000    -0.1100000    0.0600000   2.494471e-04  1.671101e-07
    195    212   2   0.50000    -0.0600000    0.5000000   1.575021e-03  3.561100e-06
    195    219   2   0.50000    -0.0600000    0.0600000   2.494471e-04  1.671101e-07
    195    226   2   0.50000    -0.0600000   -0.1200000   1.015252e-03  1.866303e-06
    217    212   2   0.50000     0.0600000    0.5000000   3.869820e-04  3.188634e-07
    217    219   2   0.50000     0.0600000    0.0600000   6.128906e-05  1.496315e-08
    217    226   2   0.50000     0.0600000   -0.1200000   2.494471e-04  1.671101e-07
    218    212   2   0.50000     0.0600000    0.5000000   3.869820e-04  3.188634e-07
    218    219   2   0.50000     0.0600000    0.0600000   6.128906e-05  1.496315e-08
    218    226   2   0.50000     0.0600000   -0.1200000   2.494471e-04  1.671101e-07
    210    213   2   0.50000    -0.1200000   -0.5000000   1.095425e-03  1.218041e-06
    210    214   2   0.50000    -0.1200000   -0.1400000   1.304585e-03  1.920112e-06
    219    213   2   0.50000     0.0600000   -0.5000000   2.691455e-04  1.090642e-07
    219    214   2   0.50000     0.0600000   -0.1400000   3.205360e-04  1.719281e-07
    226    213   2   0.50000    -0.1200000   -0.5000000   1.095425e-03  1.218041e-06
    226    214   2   0.50000    -0.1200000   -0.1400000   1.304585e-03  1.920112e-06
    210    227   2   0.50000    -0.1200000   -0.0600000   1.015252e-03  1.866303e-06
    210    233   2   0.50000    -0.1200000    0.0600000   2.494471e-04  1.671101e-07
    210    234   2   0.50000    -0.1200000    0.0600000   2.494471e-04  1.671101e-07
    212    227   2   0.50000     0.5000000   -0.0600000   1.575021e-03  3.561100e-06
    212    233   2   0.50000     0.5000000    0.0600000   3.869820e-04  3.188634e-07
    212    234   2   0.50000     0.5000000    0.0600000   3.869820e-04  3.188634e-07
    219    227   2   0.50000     0.0600000   -0.0600000   2.494471e-04  1.671101e-07
    219    233   2   0.50000     0.0600000    0.0600000   6.128906e-05  1.496315e-08
    219    234   2   0.50000     0.0600000    0.0600000   6.128906e-05  1.496315e-08
    211    215   2   0.50000    -0.0600000   -0.1100000   1.015252e-03  1.866303e-06
    211    216   2   0.50000    -0.0600000   -0.1100000   1.015252e-03  1.866303e-06
    213    215   2   0.50000    -0.5000000   -0.1100000   1.095425e-03  1.218041e-06
    213    216   2   0.50000    -0.5000000   -0.1100000   1.095425e-03  1.218041e-06
    212    220   2   0.50000     0.5000000    0.0600000   3.869820e-04  3.188634e-07
    212    221   2   0.50000     0.5000000    0.0600000   3.869820e-04  3.188634e-07
    212    222   2   0.50000     0.5000000    0.0600000   3.869820e-04  3.188634e-07
    216    220   2   0.50000    -0.1100000    0.0600000   2.494471e-04  1.671101e-07
    216    221   2   0.50000    -0.1100000    0.0600000   2.494471e-04  1.671101e-07
    216    222   2   0.50000    -0.1100000    0.0600000   2.494471e-04  1.671101e-07
    212    223   2   0.50000     0.5000000    0.0600000   3.869820e-04  3.188634e-07
    212    224   2   0.50000     0.5000000    0.0600000   3.869820e-04  3.188634e-07
    212    225   2   0.50000     0.5000000    0.0600000   3.869820e-04  3.188634e-07
    215    223   2   0.50000    -0.1100000    0.0600000   2.494471e-04  1.671101e-07
    215    224   2   0.50000    -0.1100000    0.0600000   2.494471e-04  1.671101e-07
    215    225   2   0.50000    -0.1100000    0.0600000   2.494471e-04  1.671101e-07
    211    228   2   0.50000    -0.0600000    0.5000000   1.575021e-03  3.561100e-06
    211    235   2   0.50000    -0.0600000    0.0600000   2.494471e-04  1.671101e-07
    211    242   2   0.50000    -0.0600000   -0.1200000   1.015252e-03  1.866303e-06
    233    228   2   0.50000     0.0600000    0.5000000   3.869820e-04  3.188634e-07
    233    235   2   0.50000     0.0600000    0.0600000   6.128906e-05  1.496315e-08
    233    242   2   0.50000     0.0600000   -0.1200000   2.494471e-04  1.671101e-07
    234    228   2   0.50000     0.0600000    0.5000000   3.869820e-04  3.188634e-07
    234    235   2   0.50000     0.0600000    0.0600000   6.128906e-05  1.496315e-08
    234    242   2   0.50000     0.0600000   -0.1200000   2.494471e-04  1.671101e-07
    226    229   2   0.50000    -0.1200000   -0.5000000   1.095425e-03  1.218041e-06
    226    230   2   0.50000    -0.1200000   -0.1400000   1.304585e-03  1.920112e-06
    235    229   2   0.50000     0.0600000   -0.5000000   2.691455e-04  1.090642e-07
    235    230   2   0.50000     0.0600000   -0.1400000   3.205360e-04  1.719281e-07
    242    229   2   0.50000    -0.1200000   -0.5000000   1.095425e-03  1.218041e-06
    242    230   2   0.50000    -0.1200000   -0.1400000   1.304585e-03  1.920112e-06
    226    243   2   0.50000    -0.1200000   -0.0600000   1.015252e-03  1.866303e-06
    226    249   2   0.50000    -0.1200000    0.0600000   2.494471e-04  1.671101e-07
    226    250   2   0.50000    -0.1200000    0.0600000   2.494471e-04  1.671101e-07
    228    243   2   0.50000     0.5000000   -0.0600000   1.575021e-03  3.561100e-06
    228    249   2   0.50000     0.5000000    0.0600000   3.869820e-04  3.188634e-07
    228    250   2   0.50000     0.5000000    0.0600000   3.869820e-04  3.188634e-07
    235    243   2   0.50000     0.0600000   -0.0600000   2.494471e-04  1.671101e-07
    235    249   2   0.50000     0.0600000    0.0600000   6.128906e-05  1.496315e-08
    235    250   2   0.50000     0.0600000    0.0600000   6.128906e-05  1.496315e-08
    227    231   2   0.50000    -0.0600000   -0.1100000   1.015252e-03  1.866303e-06
    227    232   2   0.50000    -0.0600000   -0.1100000   1.015252e-03  1.866303e-06
    229    231   2   0.50000    -0.5000000   -0.1100000   1.095425e-03  1.218041e-06
    229    232   2   0.50000    -0.5000000   -0.1100000   1.095425e-03  1.218041e-06
    228    236   2   0.50000     0.5000000    0.0600000   3.869820e-04  3.188634e-07
    228    237   2   0.50000     0.5000000    0.0600000   3.869820e-04  3.188634e-07
    228    238   2   0.50000     0.5000000    0.0600000   3.869820e-04  3.188634e-07
    232    236   2   0.50000    -0.1100000    0.0600000   2.494471e-04  1.671101e-07
    232    237   2   0.50000    -0.1100000    0.0600000   2.494471e-04  1.671101e-07
    232    238   2   0.50000    -0.1100000    0.0600000   2.494471e-04  1.671101e-07
    228    239   2   0.50000     0.5000000    0.0600000   3.869820e-04  3.188634e-07
    228    240   2   0.50000     0.5000000    0.0600000   3.869820e-04  3.188634e-07
    228    241   2   0.50000     0.5000000    0.0600000   3.869820e-04  3.188634e-07
    231    239   2   0.50000    -0.1100000    0.0600000   2.494471e-04  1.671101e-07
    231    240   2   0.50000    -0.1100000    0.0600000   2.494471e-04  1.671101e-07
    231    241   2   0.50000    -0.1100000    0.0600000   2.494471e-04  1.671101e-07
    227    244   2   0.50000    -0.0600000    0.5000000   1.575021e-03  3.561100e-06
    227    251   2   0.50000    -0.0600000    0.0600000   2.494471e-04  1.671101e-07
    227    258   2   0.50000    -0.0600000   -0.1200000   1.015252e-03  1.866303e-06
    249    244   2   0.50000     0.0600000    0.5000000   3.869820e-04  3.188634e-07
    249    251   2   0.50000     0.0600000    0.0600000   6.128906e-05  1.496315e-08
    249    258   2   0.50000     0.0600000   -0.1200000   2.494471e-04  1.671101e-07
    250    244   2   0.50000     0.0600000    0.5000000   3.869820e-04  3.188634e-07
    250    251   2   0.50000     0.0600000    0.0600000   6.128906e-05  1.496315e-08
    250    258   2   0.50000     0.0600000   -0.1200000   2.494471e-04  1.671101e-07
    242    245   2   0.50000    -0.1200000   -0.5000000   1.095425e-03  1.218041e-06
    242    246   2   0.50000    -0.1200000   -0.1400000   1.304585e-03  1.920112e-06
    251    245   2   0.50000     0.0600000   -0.5000000   2.691455e-04  1.090642e-07
    251    246   2   0.50000     0.0600000   -0.1400000   3.205360e-04  1.719281e-07
    258    245   2   0.50000    -0.1200000   -0.5000000   1.095425e-03  1.218041e-06
    258    246   2   0.50000    -0.1200000   -0.1400000   1.304585e-03  1.920112e-06
    242    259   2   0.50000    -0.1200000   -0.0600000   1.015252e-03  1.866303e-06
    242    265   2   0.50000    -0.1200000    0.0600000   2.494471e-04  1.671101e-07
    242    266   2   0.50000    -0.1200000    0.0600000   2.494471e-04  1.671101e-07
    244    259   2   0.50000     0.5000000   -0.0600000   1.575021e-03  3.561100e-06
    244    265   2   0.50000     0.5000000    0.0600000   3.869820e-04  3.188634e-07
    244    266   2   0.50000     0.5000000    0.0600000   3.869820e-04  3.188634e-07
    251    259   2   0.50000     0.0600000   -0.0600000   2.494471e-04  1.671101e-07
    251    265   2   0.50000     0.0600000    0.0600000   6.128906e-05  1.496315e-08
    251    266   2   0.50000     0.0600000    0.0600000   6.128906e-05  1.496315e-08
    243    247   2   0.50000    -0.0600000   -0.1100000   1.015252e-03  1.866303e-06
    243    248   2   0.50000    -0.0600000   -0.1100000   1.015252e-03  1.866303e-06
    245    247   2   0.50000    -0.5000000   -0.1100000   1.095425e-03  1.218041e-06
    245    248   2   0.50000    -0.5000000   -0.1100000   1.095425e-03  1.218041e-06
    244    252   2   0.50000     0.5000000    0.0600000   3.869820e-04  3.188634e-07
    244    253   2   0.50000     0.5000000    0.0600000   3.869820e-04  3.188634e-07
    244    254   2   0.50000     0.5000000    0.0600000   3.869820e-04  3.188634e-07
    248    252   2   0.50000    -0.1100000    0.0600000   2.494471e-04  1.671101e-07
    248    253   2   0.50000    -0.1100000    0.0600000   2.494471e-04  1.671101e-07
    248    254   2   0.50000    -0.1100000    0.0600000   2.494471e-04  1.671101e-07
    244    255   2   0.50000     0.5000000    0.0600000   3.869820e-04  3.188634e-07
    244    256   2   0.50000     0.5000000    0.0600000   3.869820e-04  3.188634e-07
    244    257   2   0.50000     0.5000000    0.0600000   3.869820e-04  3.188634e-07
    247    255   2   0.50000    -0.1100000    0.0600000   2.494471e-04  1.671101e-07
    247    256   2   0.50000    -0.1100000    0.0600000   2.494471e-04  1.671101e-07
    247    257   2   0.50000    -0.1100000    0.0600000   2.494471e-04  1.671101e-07
    243    260   2   0.50000    -0.0600000    0.5000000   1.575021e-03  3.561100e-06
    243    267   2   0.50000    -0.0600000    0.0600000   2.494471e-04  1.671101e-07
    243    274   2   0.50000    -0.0600000   -0.1200000   1.015252e-03  1.866303e-06
    265    260   2   0.50000     0.0600000    0.5000000   3.869820e-04  3.188634e-07
    265    267   2   0.50000     0.0600000    0.0600000   6.128906e-05  1.496315e-08
    265    274   2   0.50000     0.0600000   -0.1200000   2.494471e-04  1.671101e-07
    266    260   2   0.50000     0.0600000    0.5000000   3.869820e-04  3.188634e-07
    266    267   2   0.50000     0.0600000    0.0600000   6.128906e-05  1.496315e-08
    266    274   2   0.50000     0.0600000   -0.1200000   2.494471e-04  1.671101e-07
    258    261   2   0.50000    -0.1200000   -0.5000000   1.095425e-03  1.218041e-06
    258    262   2   0.50000    -0.1200000   -0.1400000   1.304585e-03  1.920112e-06
    267    261   2   0.50000     0.0600000   -0.5000000   2.691455e-04  1.090642e-07
    267    262   2   0.50000     0.0600000   -0.1400000   3.205360e-04  1.719281e-07
    274    261   2   0.50000    -0.1200000   -0.5000000   1.095425e-03  1.218041e-06
    274    262   2   0.50000    -0.1200000   -0.1400000   1.304585e-03  1.920112e-06
    258    275   2   0.50000    -0.1200000   -0.0600000   1.015252e-03  1.866303e-06
    258    281   2   0.50000    -0.1200000    0.0600000   2.494471e-04  1.671101e-07
    258    282   2   0.50000    -0.1200000    0.0600000   2.494471e-04  1.671101e-07
    260    275   2   0.50000     0.5000000   -0.0600000   1.575021e-03  3.561100e-06
    260    281   2   0.50000     0.5000000    0.0600000   3.869820e-04  3.188634e-07
    260    282   2   0.50000     0.5000000    0.0600000   3.869820e-04  3.188634e-07
    267    275   2   0.50000     0.0600000   -0.0600000   2.494471e-04  1.671101e-07
    267    281   2   0.50000     0.0600000    0.0600000   6.128906e-05  1.496315e-08
    267    282   2   0.50000     0.0600000    0.0600000   6.128906e-05  1.496315e-08
    259    263   2   0.50000    -0.0600000   -0.1100000   1.015252e-03  1.866303e-06
    259    264   2   0.50000    -0.0600000   -0.1100000   1.015252e-03  1.866303e-06
    261    263   2   0.50000    -0.5000000   -0.1100000   1.095425e-03  1.218041e-06
    261    264   2   0.50000    -0.5000000   -0.1100000   1.095425e-03  1.218041e-06
    260    268   2   0.50000     0.5000000    0.0600000   3.869820e-04  3.188634e-07
    260    269   2   0.50000     0.5000000    0.0600000   3.869820e-04  3.188634e-07
    260    270   2   0.50000     0.5000000    0.0600000   3.869820e-04  3.188634e-07
    264    268   2   0.50000    -0.1100000    0.0600000   2.494471e-04  1.671101e-07
    264    269   2   0.50000    -0.1100000    0.0600000   2.494471e-04  1.671101e-07
    264    270   2   0.50000    -0.1100000    0.0600000   2.494471e-04  1.671101e-07
    260    271   2   0.50000     0.5000000    0.0600000   3.869820e-04  3.188634e-07
    260    272   2   0.50000     0.5000000    0.0600000   3.869820e-04  3.188634e-07
    260    273   2   0.50000     0.5000000    0.0600000   3.869820e-04  3.188634e-07
    263    271   2   0.50000    -0.1100000    0.0600000   2.494471e-04  1.671101e-07
    263    272   2   0.50000    -0.1100000    0.0600000   2.494471e-04  1.671101e-07
    263    273   2   0.50000    -0.1100000    0.0600000   2.494471e-04  1.671101e-07
    259    276   2   0.50000    -0.0600000    0.5000000   1.575021e-03  3.561100e-06
    259    283   2   0.50000    -0.0600000    0.0600000   2.494471e-04  1.671101e-07
    259    290   2   0.50000    -0.0600000   -0.1200000   1.015252e-03  1.866303e-06
    281    276   2   0.50000     0.0600000    0.5000000   3.869820e-04  3.188634e-07
    281    283   2   0.50000     0.0600000    0.0600000   6.128906e-05  1.496315e-08
    281    290   2   0.50000     0.0600000   -0.1200000   2.494471e-04  1.671101e-07
    282    276   2   0.50000     0.0600000    0.5000000   3.869820e-04  3.188634e-07
    282    283   2   0.50000     0.0600000    0.0600000   6.128906e-05  1.496315e-08
    282    290   2   0.50000     0.0600000   -0.1200000   2.494471e-04  1.671101e-07
    274    277   2   0.50000    -0.1200000   -0.5000000   1.095425e-03  1.218041e-06
    274    278   2   0.50000    -0.1200000   -0.1400000   1.304585e-03  1.920112e-06
    283    277   2   0.50000     0.0600000   -0.5000000   2.691455e-04  1.090642e-07
    283    278   2   0.50000     0.0600000   -0.1400000   3.205360e-04  1.719281e-07
    290    277   2   0.50000    -0.1200000   -0.5000000   1.095425e-03  1.218041e-06
    290    278   2   0.50000    -0.1200000   -0.1400000   1.304585e-03  1.920112e-06
    274    291   2   0.50000    -0.1200000   -0.0600000   1.015252e-03  1.866303e-06
    274    297   2   0.50000    -0.1200000    0.0600000   2.494471e-04  1.671101e-07
    274    298   2   0.50000    -0.1200000    0.0600000   2.494471e-04  1.671101e-07
    276    291   2   0.50000     0.5000000   -0.0600000   1.575021e-03  3.561100e-06
    276    297   2   0.50000     0.5000000    0.0600000   3.869820e-04  3.188634e-07
    276    298   2   0.50000     0.5000000    0.0600000   3.869820e-04  3.188634e-07
    283    291   2   0.50000     0.0600000   -0.0600000   2.494471e-04  1.671101e-07
    283    297   2   0.50000     0.0600000    0.0600000   6.128906e-05  1.496315e-08
    283    298   2   0.50000     0.0600000    0.0600000   6.128906e-05  1.496315e-08
    275    279   2   0.50000    -0.0600000   -0.1100000   1.015252e-03  1.866303e-06
    275    280   2   0.50000    -0.0600000   -0.1100000   1.015252e-03  1.866303e-06
    277    279   2   0.50000    -0.5000000   -0.1100000   1.095425e-03  1.218041e-06
    277    280   2   0.50000    -0.5000000   -0.1100000   1.095425e-03  1.218041e-06
    276    284   2   0.50000     0.5000000    0.0600000   3.869820e-04  3.188634e-07
    276    285   2   0.50000     0.5000000    0.0600000   3.869820e-04  3.188634e-07
    276    286   2   0.50000     0.5000000    0.0600000   3.869820e-04  3.188634e-07
    280    284   2   0.50000    -0.1100000    0.0600000   2.494471e-04  1.671101e-07
    280    285   2   0.50000    -0.1100000    0.0600000   2.494471e-04  1.671101e-07
    280    286   2   0.50000    -0.1100000    0.0600000   2.494471e-04  1.671101e-07
    276    287   2   0.50000     0.5000000    0.0600000   3.869820e-04  3.188634e-07
    276    288   2   0.50000     0.5000000    0.0600000   3.869820e-04  3.188634e-07
    276    289   2   0.50000     0.5000000    0.0600000   3.869820e-04  3.188634e-07
    279    287   2   0.50000    -0.1100000    0.0600000   2.494471e-04  1.671101e-07
    279    288   2   0.50000    -0.1100000    0.0600000   2.494471e-04  1.671101e-07
    279    289   2   0.50000    -0.1100000    0.0600000   2.494471e-04  1.671101e-07
    275    292   2   0.50000    -0.0600000    0.5000000   1.575021e-03  3.561100e-06
    275    299   2   0.50000    -0.0600000    0.0600000   2.494471e-04  1.671101e-07
    275    306   2   0.50000    -0.0600000   -0.1200000   1.015252e-03  1.866303e-06
    297    292   2   0.50000     0.0600000    0.5000000   3.869820e-04  3.188634e-07
    297    299   2   0.50000     0.0600000    0.0600000   6.128906e-05  1.496315e-08
    297    306   2   0.50000     0.0600000   -0.1200000   2.494471e-04  1.671101e-07
    298    292   2   0.50000     0.0600000    0.5000000   3.869820e-04  3.188634e-07
    298    299   2   0.50000     0.0600000    0.0600000   6.128906e-05  1.496315e-08
    298    306   2   0.50000     0.0600000   -0.1200000   2.494471e-04  1.671101e-07
    290    293   2   0.50000    -0.1200000   -0.5000000   1.095425e-03  1.218041e-06
    290    294   2   0.50000    -0.1200000   -0.1400000   1.304585e-03  1.920112e-06
    299    293   2   0.50000     0.0600000   -0.5000000   2.691455e-04  1.090642e-07
    299    294   2   0.50000     0.0600000   -0.1400000   3.205360e-04  1.719281e-07
    306    293   2   0.50000    -0.1200000   -0.5000000   1.095425e-03  1.218041e-06
    306    294   2   0.50000    -0.1200000   -0.1400000   1.304585e-03  1.920112e-06
    290    307   2   0.50000    -0.1200000   -0.1200000   1.015252e-03  1.866303e-06
    290    313   2   0.50000    -0.1200000    0.0600000   2.494471e-04  1.671101e-07
    290    314   2   0.50000    -0.1200000    0.0600000   2.494471e-04  1.671101e-07
    292    307   2   0.50000     0.5000000   -0.1200000   1.575021e-03  3.561100e-06
    292    313   2   0.50000     0.5000000    0.0600000   3.869820e-04  3.188634e-07
    292    314   2   0.50000     0.5000000    0.0600000   3.869820e-04  3.188634e-07
    299    307   2   0.50000     0.0600000   -0.1200000   2.494471e-04  1.671101e-07
    299    313   2   0.50000     0.0600000    0.0600000   6.128906e-05  1.496315e-08
    299    314   2   0.50000     0.0600000    0.0600000   6.128906e-05  1.496315e-08
    291    295   2   0.50000    -0.0600000   -0.1100000   1.015252e-03  1.866303e-06
    291    296   2   0.50000    -0.0600000   -0.1100000   1.015252e-03  1.866303e-06
    293    295   2   0.50000    -0.5000000   -0.1100000   1.095425e-03  1.218041e-06
    293    296   2   0.50000    -0.5000000   -0.1100000   1.095425e-03  1.218041e-06
    292    300   2   0.50000     0.5000000    0.0600000   3.869820e-04  3.188634e-07
    292    301   2   0.50000     0.5000000    0.0600000   3.869820e-04  3.188634e-07
    292    302   2   0.50000     0.5000000    0.0600000   3.869820e-04  3.188634e-07
    296    300   2   0.50000    -0.1100000    0.0600000   2.494471e-04  1.671101e-07
    296    301   2   0.50000    -0.1100000    0.0600000   2.494471e-04  1.671101e-07
    296    302   2   0.50000    -0.1100000    0.0600000   2.494471e-04  1.671101e-07
    292    303   2   0.50000     0.5000000    0.0600000   3.869820e-04  3.188634e-07
    292    304   2   0.50000     0.5000000    0.0600000   3.869820e-04  3.188634e-07
    292    305   2   0.50000     0.5000000    0.0600000   3.869820e-04  3.188634e-07
    295    303   2   0.50000    -0.1100000    0.0600000   2.494471e-04  1.671101e-07
    295    304   2   0.50000    -0.1100000    0.0600000   2.494471e-04  1.671101e-07
    295    305   2   0.50000    -0.1100000    0.0600000   2.494471e-04  1.671101e-07
    291    308   2   0.50000    -0.0600000    0.5000000   1.575021e-03  3.561100e-06
    291    315   2   0.50000    -0.0600000    0.0600000   2.494471e-04  1.671101e-07
    291    322   2   0.50000    -0.0600000    0.0600000   2.494471e-04  1.671101e-07
    313    308   2   0.50000     0.0600000    0.5000000   3.869820e-04  3.188634e-07
    313    315   2   0.50000     0.0600000    0.0600000   6.128906e-05  1.496315e-08
    313    322   2   0.50000     0.0600000    0.0600000   6.128906e-05  1.496315e-08
    314    308   2   0.50000     0.0600000    0.5000000   3.869820e-04  3.188634e-07
    314    315   2   0.50000     0.0600000    0.0600000   6.128906e-05  1.496315e-08
    314    322   2   0.50000     0.0600000    0.0600000   6.128906e-05  1.496315e-08
    306    309   2   0.50000    -0.1200000   -0.5000000   1.095425e-03  1.218041e-06
    306    310   2   0.50000    -0.1200000   -0.1400000   1.304585e-03  1.920112e-06
    315    309   2   0.50000     0.0600000   -0.5000000   2.691455e-04  1.090642e-07
    315    310   2   0.50000     0.0600000   -0.1400000   3.205360e-04  1.719281e-07
    322    309   2   0.50000     0.0600000   -0.5000000   2.691455e-04  1.090642e-07
    322    310   2   0.50000     0.0600000   -0.1400000   3.205360e-04  1.719281e-07
    307    311   2   0.50000    -0.1200000   -0.1100000   1.015252e-03  1.866303e-06
    307    312   2   0.50000    -0.1200000   -0.1100000   1.015252e-03  1.866303e-06
    309    311   2   0.50000    -0.5000000   -0.1100000   1.095425e-03  1.218041e-06
    309    312   2   0.50000    -0.5000000   -0.1100000   1.095425e-03  1.218041e-06
    308    316   2   0.50000     0.5000000    0.0600000   3.869820e-04  3.188634e-07
    308    317   2   0.50000     0.5000000    0.0600000   3.869820e-04  3.188634e-07
    308    318   2   0.50000     0.5000000    0.0600000   3.869820e-04  3.188634e-07
    312    316   2   0.50000    -0.1100000    0.0600000   2.494471e-04  1.671101e-07
    312    317   2   0.50000    -0.1100000    0.0600000   2.494471e-04  1.671101e-07
    312    318   2   0.50000    -0.1100000    0.0600000   2.494471e-04  1.671101e-07
    308    319   2   0.50000     0.5000000    0.0600000   3.869820e-04  3.188634e-07
    308    320   2   0.50000     0.5000000    0.0600000   3.869820e-04  3.188634e-07
    308    321   2   0.50000     0.5000000    0.0600000   3.869820e-04  3.188634e-07
    311    319   2   0.50000    -0.1100000    0.0600000   2.494471e-04  1.671101e-07
    311    320   2   0.50000    -0.1100000    0.0600000   2.494471e-04  1.671101e-07
    311    321   2   0.50000    -0.1100000    0.0600000   2.494471e-04  1.671101e-07

[ angles ]
; ai  aj  ak
      2      1      8   1    110.7000    313.8000
      2      1      9   1    110.7000    313.8000
      2      1     17   1    110.7000    313.8000
      8      1      9   1    107.8000    276.1440
      8      1     17   1    107.8000    276.1440
      9      1     17   1    107.8000    276.1440
      1      2      3   1    111.1000    527.1840
      1      2     10   1    110.7000    313.8000
      1      2     18   1    112.7000    488.2728
      3      2     10   1    109.5000    292.8800
      3      2     18   1    111.1000    527.1840
     10      2     18   1    110.7000    313.8000
      2      3      4   1    120.4000    669.4400
      2      3      5   1    116.6000    585.7600
      4      3      5   1    122.9000    669.4400
      3      5      6   1    121.9000    418.4000
      3      5      7   1    121.9000    418.4000
      6      5      7   1    118.0000    418.4000
      5      6     11   1    109.5000    292.8800
      5      6     12   1    109.5000    292.8800
      5      6     13   1    109.5000    292.8800
     11      6     12   1    107.8000    276.1440
     11      6     13   1    107.8000    276.1440
     12      6     13   1    107.8000    276.1440
      5      7     14   1    109.5000    292.8800
      5      7     15   1    109.5000    292.8800
      5      7     16   1    109.5000    292.8800
     14      7     15   1    107.8000    276.1440
     14      7     16   1    107.8000    276.1440
     15      7     16   1    107.8000    276.1440
      2     18     19   1    112.7000    488.2728
      2     18     25   1    110.7000    313.8000
      2     18     26   1    110.7000    313.8000
     19     18     25   1    110.7000    313.8000
     19     18     26   1    110.7000    313.8000
     25     18     26   1    107.8000    276.1440
     18     19     20   1    111.1000    527.1840
     18     19     27   1    110.7000    313.8000
     18     19     34   1    112.7000    488.2728
     20     19     27   1    109.5000    292.8800
     20     19     34   1    111.1000    527.1840
     27     19     34   1    110.7000    313.8000
     19     20     21   1    120.4000    669.4400
     19     20     22   1    116.6000    585.7600
     21     20     22   1    122.9000    669.4400
     20     22     23   1    121.9000    418.4000
     20     22     24   1    121.9000    418.4000
     23     22     24   1    118.0000    418.4000
     22     23     28   1    109.5000    292.8800
     22     23     29   1    109.5000    292.8800
     22     23     30   1    109.5000    292.8800
     28     23     29   1    107.8000    276.1440
     28     23     30   1    107.8000    276.1440
     29     23     30   1    107.8000    276.1440
     22     24     31   1    109.5000    292.8800
     22     24     32   1    109.5000    292.8800
     22     24     33   1    109.5000    292.8800
     31     24     32   1    107.8000    276.1440
     31     24     33   1    107.8000    276.1440
     32     24     33   1    107.8000    276.1440
     19     34     35   1    112.7000    488.2728
     19     34     41   1    110.7000    313.8000
     19     34     42   1    110.7000    313.8000
     35     34     41   1    110.7000    313.8000
     35     34     42   1    110.7000    313.8000
     41     34     42   1    107.8000    276.1440
     34     35     36   1    111.1000    527.1840
     34     35     43   1    110.7000    313.8000
     34     35     50   1    112.7000    488.2728
     36     35     43   1    109.5000    292.8800
     36     35     50   1    111.1000    527.1840
     43     35     50   1    110.7000    313.8000
     35     36     37   1    120.4000    669.4400
     35     36     38   1    116.6000    585.7600
     37     36     38   1    122.9000    669.4400
     36     38     39   1    121.9000    418.4000
     36     38     40   1    121.9000    418.4000
     39     38     40   1    118.0000    418.4000
     38     39     44   1    109.5000    292.8800
     38     39     45   1    109.5000    292.8800
     38     39     46   1    109.5000    292.8800
     44     39     45   1    107.8000    276.1440
     44     39     46   1    107.8000    276.1440
     45     39     46   1    107.8000    276.1440
     38     40     47   1    109.5000    292.8800
     38     40     48   1    109.5000    292.8800
     38     40     49   1    109.5000    292.8800
     47     40     48   1    107.8000    276.1440
     47     40     49   1    107.8000    276.1440
     48     40     49   1    107.8000    276.1440
     35     50     51   1    112.7000    488.2728
     35     50     57   1    110.7000    313.8000
     35     50     58   1    110.7000    313.8000
     51     50     57   1    110.7000    313.8000
     51     50     58   1    110.7000    313.8000
     57     50     58   1    107.8000    276.1440
     50     51     52   1    111.1000    527.1840
     50     51     59   1    110.7000    313.8000
     50     51     66   1    112.7000    488.2728
     52     51     59   1    109.5000    292.8800
     52     51     66   1    111.1000    527.1840
     59     51     66   1    110.7000    313.8000
     51     52     53   1    120.4000    669.4400
     51     52     54   1    116.6000    585.7600
     53     52     54   1    122.9000    669.4400
     52     54     55   1    121.9000    418.4000
     52     54     56   1    121.9000    418.4000
     55     54     56   1    118.0000    418.4000
     54     55     60   1    109.5000    292.8800
     54     55     61   1    109.5000    292.8800
     54     55     62   1    109.5000    292.8800
     60     55     61   1    107.8000    276.1440
     60     55     62   1    107.8000    276.1440
     61     55     62   1    107.8000    276.1440
     54     56     63   1    109.5000    292.8800
     54     56     64   1    109.5000    292.8800
     54     56     65   1    109.5000    292.8800
     63     56     64   1    107.8000    276.1440
     63     56     65   1    107.8000    276.1440
     64     56     65   1    107.8000    276.1440
     51     66     67   1    112.7000    488.2728
     51     66     73   1    110.7000    313.8000
     51     66     74   1    110.7000    313.8000
     67     66     73   1    110.7000    313.8000
     67     66     74   1    110.7000    313.8000
     73     66     74   1    107.8000    276.1440
     66     67     68   1    111.1000    527.1840
     66     67     75   1    110.7000    313.8000
     66     67     82   1    112.7000    488.2728
     68     67     75   1    109.5000    292.8800
     68     67     82   1    111.1000    527.1840
     75     67     82   1    110.7000    313.8000
     67     68     69   1    120.4000    669.4400
     67     68     70   1    116.6000    585.7600
     69     68     70   1    122.9000    669.4400
     68     70     71   1    121.9000    418.4000
     68     70     72   1    121.9000    418.4000
     71     70     72   1    118.0000    418.4000
     70     71     76   1    109.5000    292.8800
     70     71     77   1    109.5000    292.8800
     70     71     78   1    109.5000    292.8800
     76     71     77   1    107.8000    276.1440
     76     71     78   1    107.8000    276.1440
     77     71     78   1    107.8000    276.1440
     70     72     79   1    109.5000    292.8800
     70     72     80   1    109.5000    292.8800
     70     72     81   1    109.5000    292.8800
     79     72     80   1    107.8000    276.1440
     79     72     81   1    107.8000    276.1440
     80     72     81   1    107.8000    276.1440
     67     82     83   1    112.7000    488.2728
     67     82     89   1    110.7000    313.8000
     67     82     90   1    110.7000    313.8000
     83     82     89   1    110.7000    313.8000
     83     82     90   1    110.7000    313.8000
     89     82     90   1    107.8000    276.1440
     82     83     84   1    111.1000    527.1840
     82     83     91   1    110.7000    313.8000
     82     83     98   1    112.7000    488.2728
     84     83     91   1    109.5000    292.8800
     84     83     98   1    111.1000    527.1840
     91     83     98   1    110.7000    313.8000
     83     84     85   1    120.4000    669.4400
     83     84     86   1    116.6000    585.7600
     85     84     86   1    122.9000    669.4400
     84     86     87   1    121.9000    418.4000
     84     86     88   1    121.9000    418.4000
     87     86     88   1    118.0000    418.4000
     86     87     92   1    109.5000    292.8800
     86     87     93   1    109.5000    292.8800
     86     87     94   1    109.5000    292.8800
     92     87     93   1    107.8000    276.1440
     92     87     94   1    107.8000    276.1440
     93     87     94   1    107.8000    276.1440
     86     88     95   1    109.5000    292.8800
     86     88     96   1    109.5000    292.8800
     86     88     97   1    109.5000    292.8800
     95     88     96   1    107.8000    276.1440
     95     88     97   1    107.8000    276.1440
     96     88     97   1    107.8000    276.1440
     83     98     99   1    112.7000    488.2728
     83     98    105   1    110.7000    313.8000
     83     98    106   1    110.7000    313.8000
     99     98    105   1    110.7000    313.8000
     99     98    106   1    110.7000    313.8000
    105     98    106   1    107.8000    276.1440
     98     99    100   1    111.1000    527.1840
     98     99    107   1    110.7000    313.8000
     98     99    114   1    112.7000    488.2728
    100     99    107   1    109.5000    292.8800
    100     99    114   1    111.1000    527.1840
    107     99    114   1    110.7000    313.8000
     99    100    101   1    120.4000    669.4400
     99    100    102   1    116.6000    585.7600
    101    100    102   1    122.9000    669.4400
    100    102    103   1    121.9000    418.4000
    100    102    104   1    121.9000    418.4000
    103    102    104   1    118.0000    418.4000
    102    103    108   1    109.5000    292.8800
    102    103    109   1    109.5000    292.8800
    102    103    110   1    109.5000    292.8800
    108    103    109   1    107.8000    276.1440
    108    103    110   1    107.8000    276.1440
    109    103    110   1    107.8000    276.1440
    102    104    111   1    109.5000    292.8800
    102    104    112   1    109.5000    292.8800
    102    104    113   1    109.5000    292.8800
    111    104    112   1    107.8000    276.1440
    111    104    113   1    107.8000    276.1440
    112    104    113   1    107.8000    276.1440
     99    114    115   1    112.7000    488.2728
     99    114    121   1    110.7000    313.8000
     99    114    122   1    110.7000    313.8000
    115    114    121   1    110.7000    313.8000
    115    114    122   1    110.7000    313.8000
    121    114    122   1    107.8000    276.1440
    114    115    116   1    111.1000    527.1840
    114    115    123   1    110.7000    313.8000
    114    115    130   1    112.7000    488.2728
    116    115    123   1    109.5000    292.8800
    116    115    130   1    111.1000    527.1840
    123    115    130   1    110.7000    313.8000
    115    116    117   1    120.4000    669.4400
    115    116    118   1    116.6000    585.7600
    117    116    118   1    122.9000    669.4400
    116    118    119   1    121.9000    418.4000
    116    118    120   1    121.9000    418.4000
    119    118    120   1    118.0000    418.4000
    118    119    124   1    109.5000    292.8800
    118    119    125   1    109.5000    292.8800
    118    119    126   1    109.5000    292.8800
    124    119    125   1    107.8000    276.1440
    124    119    126   1    107.8000    276.1440
    125    119    126   1    107.8000    276.1440
    118    120    127   1    109.5000    292.8800
    118    120    128   1    109.5000    292.8800
    118    120    129   1    109.5000    292.8800
    127    120    128   1    107.8000    276.1440
    127    120    129   1    107.8000    276.1440
    128    120    129   1    107.8000    276.1440
    115    130    131   1    112.7000    488.2728
    115    130    137   1    110.7000    313.8000
    115    130    138   1    110.7000    313.8000
    131    130    137   1    110.7000    313.8000
    131    130    138   1    110.7000    313.8000
    137    130    138   1    107.8000    276.1440
    130    131    132   1    111.1000    527.1840
    130    131    139   1    110.7000    313.8000
    130    131    146   1    112.7000    488.2728
    132    131    139   1    109.5000    292.8800
    132    131    146   1    111.1000    527.1840
    139    131    146   1    110.7000    313.8000
    131    132    133   1    120.4000    669.4400
    131    132    134   1    116.6000    585.7600
    133    132    134   1    122.9000    669.4400
    132    134    135   1    121.9000    418.4000
    132    134    136   1    121.9000    418.4000
    135    134    136   1    118.0000    418.4000
    134    135    140   1    109.5000    292.8800
    134    135    141   1    109.5000    292.8800
    134    135    142   1    109.5000    292.8800
    140    135    141   1    107.8000    276.1440
    140    135    142   1    107.8000    276.1440
    141    135    142   1    107.8000    276.1440
    134    136    143   1    109.5000    292.8800
    134    136    144   1    109.5000    292.8800
    134    136    145   1    109.5000    292.8800
    143    136    144   1    107.8000    276.1440
    143    136    145   1    107.8000    276.1440
    144    136    145   1    107.8000    276.1440
    131    146    147   1    112.7000    488.2728
    131    146    153   1    110.7000    313.8000
    131    146    154   1    110.7000    313.8000
    147    146    153   1    110.7000    313.8000
    147    146    154   1    110.7000    313.8000
    153    146    154   1    107.8000    276.1440
    146    147    148   1    111.1000    527.1840
    146    147    155   1    110.7000    313.8000
    146    147    162   1    112.7000    488.2728
    148    147    155   1    109.5000    292.8800
    148    147    162   1    111.1000    527.1840
    155    147    162   1    110.7000    313.8000
    147    148    149   1    120.4000    669.4400
    147    148    150   1    116.6000    585.7600
    149    148    150   1    122.9000    669.4400
    148    150    151   1    121.9000    418.4000
    148    150    152   1    121.9000    418.4000
    151    150    152   1    118.0000    418.4000
    150    151    156   1    109.5000    292.8800
    150    151    157   1    109.5000    292.8800
    150    151    158   1    109.5000    292.8800
    156    151    157   1    107.8000    276.1440
    156    151    158   1    107.8000    276.1440
    157    151    158   1    107.8000    276.1440
    150    152    159   1    109.5000    292.8800
    150    152    160   1    109.5000    292.8800
    150    152    161   1    109.5000    292.8800
    159    152    160   1    107.8000    276.1440
    159    152    161   1    107.8000    276.1440
    160    152    161   1    107.8000    276.1440
    147    162    163   1    112.7000    488.2728
    147    162    169   1    110.7000    313.8000
    147    162    170   1    110.7000    313.8000
    163    162    169   1    110.7000    313.8000
    163    162    170   1    110.7000    313.8000
    169    162    170   1    107.8000    276.1440
    162    163    164   1    111.1000    527.1840
    162    163    171   1    110.7000    313.8000
    162    163    178   1    112.7000    488.2728
    164    163    171   1    109.5000    292.8800
    164    163    178   1    111.1000    527.1840
    171    163    178   1    110.7000    313.8000
    163    164    165   1    120.4000    669.4400
    163    164    166   1    116.6000    585.7600
    165    164    166   1    122.9000    669.4400
    164    166    167   1    121.9000    418.4000
    164    166    168   1    121.9000    418.4000
    167    166    168   1    118.0000    418.4000
    166    167    172   1    109.5000    292.8800
    166    167    173   1    109.5000    292.8800
    166    167    174   1    109.5000    292.8800
    172    167    173   1    107.8000    276.1440
    172    167    174   1    107.8000    276.1440
    173    167    174   1    107.8000    276.1440
    166    168    175   1    109.5000    292.8800
    166    168    176   1    109.5000    292.8800
    166    168    177   1    109.5000    292.8800
    175    168    176   1    107.8000    276.1440
    175    168    177   1    107.8000    276.1440
    176    168    177   1    107.8000    276.1440
    163    178    179   1    112.7000    488.2728
    163    178    185   1    110.7000    313.8000
    163    178    186   1    110.7000    313.8000
    179    178    185   1    110.7000    313.8000
    179    178    186   1    110.7000    313.8000
    185    178    186   1    107.8000    276.1440
    178    179    180   1    111.1000    527.1840
    178    179    187   1    110.7000    313.8000
    178    179    194   1    112.7000    488.2728
    180    179    187   1    109.5000    292.8800
    180    179    194   1    111.1000    527.1840
    187    179    194   1    110.7000    313.8000
    179    180    181   1    120.4000    669.4400
    179    180    182   1    116.6000    585.7600
    181    180    182   1    122.9000    669.4400
    180    182    183   1    121.9000    418.4000
    180    182    184   1    121.9000    418.4000
    183    182    184   1    118.0000    418.4000
    182    183    188   1    109.5000    292.8800
    182    183    189   1    109.5000    292.8800
    182    183    190   1    109.5000    292.8800
    188    183    189   1    107.8000    276.1440
    188    183    190   1    107.8000    276.1440
    189    183    190   1    107.8000    276.1440
    182    184    191   1    109.5000    292.8800
    182    184    192   1    109.5000    292.8800
    182    184    193   1    109.5000    292.8800
    191    184    192   1    107.8000    276.1440
    191    184    193   1    107.8000    276.1440
    192    184    193   1    107.8000    276.1440
    179    194    195   1    112.7000    488.2728
    179    194    201   1    110.7000    313.8000
    179    194    202   1    110.7000    313.8000
    195    194    201   1    110.7000    313.8000
    195    194    202   1    110.7000    313.8000
    201    194    202   1    107.8000    276.1440
    194    195    196   1    111.1000    527.1840
    194    195    203   1    110.7000    313.8000
    194    195    210   1    112.7000    488.2728
    196    195    203   1    109.5000    292.8800
    196    195    210   1    111.1000    527.1840
    203    195    210   1    110.7000    313.8000
    195    196    197   1    120.4000    669.4400
    195    196    198   1    116.6000    585.7600
    197    196    198   1    122.9000    669.4400
    196    198    199   1    121.9000    418.4000
    196    198    200   1    121.9000    418.4000
    199    198    200   1    118.0000    418.4000
    198    199    204   1    109.5000    292.8800
    198    199    205   1    109.5000    292.8800
    198    199    206   1    109.5000    292.8800
    204    199    205   1    107.8000    276.1440
    204    199    206   1    107.8000    276.1440
    205    199    206   1    107.8000    276.1440
    198    200    207   1    109.5000    292.8800
    198    200    208   1    109.5000    292.8800
    198    200    209   1    109.5000    292.8800
    207    200    208   1    107.8000    276.1440
    207    200    209   1    107.8000    276.1440
    208    200    209   1    107.8000    276.1440
    195    210    211   1    112.7000    488.2728
    195    210    217   1    110.7000    313.8000
    195    210    218   1    110.7000    313.8000
    211    210    217   1    110.7000    313.8000
    211    210    218   1    110.7000    313.8000
    217    210    218   1    107.8000    276.1440
    210    211    212   1    111.1000    527.1840
    210    211    219   1    110.7000    313.8000
    210    211    226   1    112.7000    488.2728
    212    211    219   1    109.5000    292.8800
    212    211    226   1    111.1000    527.1840
    219    211    226   1    110.7000    313.8000
    211    212    213   1    120.4000    669.4400
    211    212    214   1    116.6000    585.7600
    213    212    214   1    122.9000    669.4400
    212    214    215   1    121.9000    418.4000
    212    214    216   1    121.9000    418.4000
    215    214    216   1    118.0000    418.4000
    214    215    220   1    109.5000    292.8800
    214    215    221   1    109.5000    292.8800
    214    215    222   1    109.5000    292.8800
    220    215    221   1    107.8000    276.1440
    220    215    222   1    107.8000    276.1440
    221    215    222   1    107.8000    276.1440
    214    216    223   1    109.5000    292.8800
    214    216    224   1    109.5000    292.8800
    214    216    225   1    109.5000    292.8800
    223    216    224   1    107.8000    276.1440
    223    216    225   1    107.8000    276.1440
    224    216    225   1    107.8000    276.1440
    211    226    227   1    112.7000    488.2728
    211    226    233   1    110.7000    313.8000
    211    226    234   1    110.7000    313.8000
    227    226    233   1    110.7000    313.8000
    227    226    234   1    110.7000    313.8000
    233    226    234   1    107.8000    276.1440
    226    227    228   1    111.1000    527.1840
    226    227    235   1    110.7000    313.8000
    226    227    242   1    112.7000    488.2728
    228    227    235   1    109.5000    292.8800
    228    227    242   1    111.1000    527.1840
    235    227    242   1    110.7000    313.8000
    227    228    229   1    120.4000    669.4400
    227    228    230   1    116.6000    585.7600
    229    228    230   1    122.9000    669.4400
    228    230    231   1    121.9000    418.4000
    228    230    232   1    121.9000    418.4000
    231    230    232   1    118.0000    418.4000
    230    231    236   1    109.5000    292.8800
    230    231    237   1    109.5000    292.8800
    230    231    238   1    109.5000    292.8800
    236    231    237   1    107.8000    276.1440
    236    231    238   1    107.8000    276.1440
    237    231    238   1    107.8000    276.1440
    230    232    239   1    109.5000    292.8800
    230    232    240   1    109.5000    292.8800
    230    232    241   1    109.5000    292.8800
    239    232    240   1    107.8000    276.1440
    239    232    241   1    107.8000    276.1440
    240    232    241   1    107.8000    276.1440
    227    242    243   1    112.7000    488.2728
    227    242    249   1    110.7000    313.8000
    227    242    250   1    110.7000    313.8000
    243    242    249   1    110.7000    313.8000
    243    242    250   1    110.7000    313.8000
    249    242    250   1    107.8000    276.1440
    242    243    244   1    111.1000    527.1840
    242    243    251   1    110.7000    313.8000
    242    243    258   1    112.7000    488.2728
    244    243    251   1    109.5000    292.8800
    244    243    258   1    111.1000    527.1840
    251    243    258   1    110.7000    313.8000
    243    244    245   1    120.4000    669.4400
    243    244    246   1    116.6000    585.7600
    245    244    246   1    122.9000    669.4400
    244    246    247   1    121.9000    418.4000
    244    246    248   1    121.9000    418.4000
    247    246    248   1    118.0000    418.4000
    246    247    252   1    109.5000    292.8800
    246    247    253   1    109.5000    292.8800
    246    247    254   1    109.5000    292.8800
    252    247    253   1    107.8000    276.1440
    252    247    254   1    107.8000    276.1440
    253    247    254   1    107.8000    276.1440
    246    248    255   1    109.5000    292.8800
    246    248    256   1    109.5000    292.8800
    246    248    257   1    109.5000    292.8800
    255    248    256   1    107.8000    276.1440
    255    248    257   1    107.8000    276.1440
    256    248    257   1    107.8000    276.1440
    243    258    259   1    112.7000    488.2728
    243    258    265   1    110.7000    313.8000
    243    258    266   1    110.7000    313.8000
    259    258    265   1    110.7000    313.8000
    259    258    266   1    110.7000    313.8000
    265    258    266   1    107.8000    276.1440
    258    259    260   1    111.1000    527.1840
    258    259    267   1    110.7000    313.8000
    258    259    274   1    112.7000    488.2728
    260    259    267   1    109.5000    292.8800
    260    259    274   1    111.1000    527.1840
    267    259    274   1    110.7000    313.8000
    259    260    261   1    120.4000    669.4400
    259    260    262   1    116.6000    585.7600
    261    260    262   1    122.9000    669.4400
    260    262    263   1    121.9000    418.4000
    260    262    264   1    121.9000    418.4000
    263    262    264   1    118.0000    418.4000
    262    263    268   1    109.5000    292.8800
    262    263    269   1    109.5000    292.8800
    262    263    270   1    109.5000    292.8800
    268    263    269   1    107.8000    276.1440
    268    263    270   1    107.8000    276.1440
    269    263    270   1    107.8000    276.1440
    262    264    271   1    109.5000    292.8800
    262    264    272   1    109.5000    292.8800
    262    264    273   1    109.5000    292.8800
    271    264    272   1    107.8000    276.1440
    271    264    273   1    107.8000    276.1440
    272    264    273   1    107.8000    276.1440
    259    274    275   1    112.7000    488.2728
    259    274    281   1    110.7000    313.8000
    259    274    282   1    110.7000    313.8000
    275    274    281   1    110.7000    313.8000
    275    274    282   1    110.7000    313.8000
    281    274    282   1    107.8000    276.1440
    274    275    276   1    111.1000    527.1840
    274    275    283   1    110.7000    313.8000
    274    275    290   1    112.7000    488.2728
    276    275    283   1    109.5000    292.8800
    276    275    290   1    111.1000    527.1840
    283    275    290   1    110.7000    313.8000
    275    276    277   1    120.4000    669.4400
    275    276    278   1    116.6000    585.7600
    277    276    278   1    122.9000    669.4400
    276    278    279   1    121.9000    418.4000
    276    278    280   1    121.9000    418.4000
    279    278    280   1    118.0000    418.4000
    278    279    284   1    109.5000    292.8800
    278    279    285   1    109.5000    292.8800
    278    279    286   1    109.5000    292.8800
    284    279    285   1    107.8000    276.1440
    284    279    286   1    107.8000    276.1440
    285    279    286   1    107.8000    276.1440
    278    280    287   1    109.5000    292.8800
    278    280    288   1    109.5000    292.8800
    278    280    289   1    109.5000    292.8800
    287    280    288   1    107.8000    276.1440
    287    280    289   1    107.8000    276.1440
    288    280    289   1    107.8000    276.1440
    275    290    291   1    112.7000    488.2728
    275    290    297   1    110.7000    313.8000
    275    290    298   1    110.7000    313.8000
    291    290    297   1    110.7000    313.8000
    291    290    298   1    110.7000    313.8000
    297    290    298   1    107.8000    276.1440
    290    291    292   1    111.1000    527.1840
    290    291    299   1    110.7000    313.8000
    290    291    306   1    112.7000    488.2728
    292    291    299   1    109.5000    292.8800
    292    291    306   1    111.1000    527.1840
    299    291    306   1    110.7000    313.8000
    291    292    293   1    120.4000    669.4400
    291    292    294   1    116.6000    585.7600
    293    292    294   1    122.9000    669.4400
    292    294    295   1    121.9000    418.4000
    292    294    296   1    121.9000    418.4000
    295    294    296   1    118.0000    418.4000
    294    295    300   1    109.5000    292.8800
    294    295    301   1    109.5000    292.8800
    294    295    302   1    109.5000    292.8800
    300    295    301   1    107.8000    276.1440
    300    295    302   1    107.8000    276.1440
    301    295    302   1    107.8000    276.1440
    294    296    303   1    109.5000    292.8800
    294    296    304   1    109.5000    292.8800
    294    296    305   1    109.5000    292.8800
    303    296    304   1    107.8000    276.1440
    303    296    305   1    107.8000    276.1440
    304    296    305   1    107.8000    276.1440
    291    306    307   1    112.7000    488.2728
    291    306    313   1    110.7000    313.8000
    291    306    314   1    110.7000    313.8000
    307    306    313   1    110.7000    313.8000
    307    306    314   1    110.7000    313.8000
    313    306    314   1    107.8000    276.1440
    306    307    308   1    111.1000    527.1840
    306    307    315   1    110.7000    313.8000
    306    307    322   1    110.7000    313.8000
    308    307    315   1    109.5000    292.8800
    308    307    322   1    109.5000    292.8800
    315    307    322   1    107.8000    276.1440
    307    308    309   1    120.4000    669.4400
    307    308    310   1    116.6000    585.7600
    309    308    310   1    122.9000    669.4400
    308    310    311   1    121.9000    418.4000
    308    310    312   1    121.9000    418.4000
    311    310    312   1    118.0000    418.4000
    310    311    316   1    109.5000    292.8800
    310    311    317   1    109.5000    292.8800
    310    311    318   1    109.5000    292.8800
    316    311    317   1    107.8000    276.1440
    316    311    318   1    107.8000    276.1440
    317    311    318   1    107.8000    276.1440
    310    312    319   1    109.5000    292.8800
    310    312    320   1    109.5000    292.8800
    310    312    321   1    109.5000    292.8800
    319    312    320   1    107.8000    276.1440
    319    312    321   1    107.8000    276.1440
    320    312    321   1    107.8000    276.1440

[ dihedrals ]
; Proper dihedrals
      8      1      2      3   5     0.00000     0.00000    -0.94140  0.0
      8      1      2     10   5     0.00000     0.00000     1.25520  0.0
      8      1      2     18   5     0.00000     0.00000     1.25520  0.0
      9      1      2      3   5     0.00000     0.00000    -0.94140  0.0
      9      1      2     10   5     0.00000     0.00000     1.25520  0.0
      9      1      2     18   5     0.00000     0.00000     1.25520  0.0
     17      1      2      3   5     0.00000     0.00000    -0.94140  0.0
     17      1      2     10   5     0.00000     0.00000     1.25520  0.0
     17      1      2     18   5     0.00000     0.00000     1.25520  0.0
      1      2      3      4   5     0.00000     2.52295     0.00000  0.0
      1      2      3      5   5    11.69428    -0.66526    -1.56900  0.0
     10      2      3      4   5     0.00000     0.00000     0.00000  0.0
     10      2      3      5   5     0.00000     0.00000     0.00000  0.0
     18      2      3      4   5     0.00000     2.52295     0.00000  0.0
     18      2      3      5   5    11.69428    -0.66526    -1.56900  0.0
      1      2     18     19   5     4.74884    -0.63178     1.67360  0.0
      1      2     18     25   5     0.00000     0.00000     1.25520  0.0
      1      2     18     26   5     0.00000     0.00000     1.25520  0.0
      3      2     18     19   5    -8.00818    -1.52298     2.46438  0.0
      3      2     18     25   5     0.00000     0.00000    -0.94140  0.0
      3      2     18     26   5     0.00000     0.00000    -0.94140  0.0
     10      2     18     19   5     0.00000     0.00000     1.25520  0.0
     10      2     18     25   5     0.00000     0.00000     1.25520  0.0
     10      2     18     26   5     0.00000     0.00000     1.25520  0.0
      2      3      5      6   5    12.53945    12.88254     0.00000  0.0
      2      3      5      7   5    12.53945    12.88254     0.00000  0.0
      4      3      5      6   5     0.00000    25.47638     0.00000  0.0
      4      3      5      7   5     0.00000    25.47638     0.00000  0.0
      3      5      6     11   5     0.00000     0.00000     0.00000  0.0
      3      5      6     12   5     0.00000     0.00000     0.00000  0.0
      3      5      6     13   5     0.00000     0.00000     0.00000  0.0
      7      5      6     11   5     0.00000     0.00000     0.00000  0.0
      7      5      6     12   5     0.00000     0.00000     0.00000  0.0
      7      5      6     13   5     0.00000     0.00000     0.00000  0.0
      3      5      7     14   5     0.00000     0.00000     0.00000  0.0
      3      5      7     15   5     0.00000     0.00000     0.00000  0.0
      3      5      7     16   5     0.00000     0.00000     0.00000  0.0
      6      5      7     14   5     0.00000     0.00000     0.00000  0.0
      6      5      7     15   5     0.00000     0.00000     0.00000  0.0
      6      5      7     16   5     0.00000     0.00000     0.00000  0.0
      2     18     19     20   5    -8.00818    -1.52298     2.46438  0.0
      2     18     19     27   5     0.00000     0.00000     1.25520  0.0
      2     18     19     34   5     4.74884    -0.63178     1.67360  0.0
     25     18     19     20   5     0.00000     0.00000    -0.94140  0.0
     25     18     19     27   5     0.00000     0.00000     1.25520  0.0
     25     18     19     34   5     0.00000     0.00000     1.25520  0.0
     26     18     19     20   5     0.00000     0.00000    -0.94140  0.0
     26     18     19     27   5     0.00000     0.00000     1.25520  0.0
     26     18     19     34   5     0.00000     0.00000     1.25520  0.0
     18     19     20     21   5     0.00000     2.52295     0.00000  0.0
     18     19     20     22   5    11.69428    -0.66526    -1.56900  0.0
     27     19     20     21   5     0.00000     0.00000     0.00000  0.0
     27     19     20     22   5     0.00000     0.00000     0.00000  0.0
     34     19     20     21   5     0.00000     2.52295     0.00000  0.0
     34     19     20     22   5    11.69428    -0.66526    -1.56900  0.0
     18     19     34     35   5     4.74884    -0.63178     1.67360  0.0
     18     19     34     41   5     0.00000     0.00000     1.25520  0.0
     18     19     34     42   5     0.00000     0.00000     1.25520  0.0
     20     19     34     35   5    -8.00818    -1.52298     2.46438  0.0
     20     19     34     41   5     0.00000     0.00000    -0.94140  0.0
     20     19     34     42   5     0.00000     0.00000    -0.94140  0.0
     27     19     34     35   5     0.00000     0.00000     1.25520  0.0
     27     19     34     41   5     0.00000     0.00000     1.25520  0.0
     27     19     34     42   5     0.00000     0.00000     1.25520  0.0
     19     20     22     23   5    12.53945    12.88254     0.00000  0.0
     19     20     22     24   5    12.53945    12.88254     0.00000  0.0
     21     20     22     23   5     0.00000    25.47638     0.00000  0.0
     21     20     22     24   5     0.00000    25.47638     0.00000  0.0
     20     22     23     28   5     0.00000     0.00000     0.00000  0.0
     20     22     23     29   5     0.00000     0.00000     0.00000  0.0
     20     22     23     30   5     0.00000     0.00000     0.00000  0.0
     24     22     23     28   5     0.00000     0.00000     0.00000  0.0
     24     22     23     29   5     0.00000     0.00000     0.00000  0.0
     24     22     23     30   5     0.00000     0.00000     0.00000  0.0
     20     22     24     31   5     0.00000     0.00000     0.00000  0.0
     20     22     24     32   5     0.00000     0.00000     0.00000  0.0
     20     22     24     33   5     0.00000     0.00000     0.00000  0.0
     23     22     24     31   5     0.00000     0.00000     0.00000  0.0
     23     22     24     32   5     0.00000     0.00000     0.00000  0.0
     23     22     24     33   5     0.00000     0.00000     0.00000  0.0
     19     34     35     36   5    -8.00818    -1.52298     2.46438  0.0
     19     34     35     43   5     0.00000     0.00000     1.25520  0.0
     19     34     35     50   5     4.74884    -0.63178     1.67360  0.0
     41     34     35     36   5     0.00000     0.00000    -0.94140  0.0
     41     34     35     43   5     0.00000     0.00000     1.25520  0.0
     41     34     35     50   5     0.00000     0.00000     1.25520  0.0
     42     34     35     36   5     0.00000     0.00000    -0.94140  0.0
     42     34     35     43   5     0.00000     0.00000     1.25520  0.0
     42     34     35     50   5     0.00000     0.00000     1.25520  0.0
     34     35     36     37   5     0.00000     2.52295     0.00000  0.0
     34     35     36     38   5    11.69428    -0.66526    -1.56900  0.0
     43     35     36     37   5     0.00000     0.00000     0.00000  0.0
     43     35     36     38   5     0.00000     0.00000     0.00000  0.0
     50     35     36     37   5     0.00000     2.52295     0.00000  0.0
     50     35     36     38   5    11.69428    -0.66526    -1.56900  0.0
     34     35     50     51   5     4.74884    -0.63178     1.67360  0.0
     34     35     50     57   5     0.00000     0.00000     1.25520  0.0
     34     35     50     58   5     0.00000     0.00000     1.25520  0.0
     36     35     50     51   5    -8.00818    -1.52298     2.46438  0.0
     36     35     50     57   5     0.00000     0.00000    -0.94140  0.0
     36     35     50     58   5     0.00000     0.00000    -0.94140  0.0
     43     35     50     51   5     0.00000     0.00000     1.25520  0.0
     43     35     50     57   5     0.00000     0.00000     1.25520  0.0
     43     35     50     58   5     0.00000     0.00000     1.25520  0.0
     35     36     38     39   5    12.53945    12.88254     0.00000  0.0
     35     36     38     40   5    12.53945    12.88254     0.00000  0.0
     37     36     38     39   5     0.00000    25.47638     0.00000  0.0
     37     36     38     40   5     0.00000    25.47638     0.00000  0.0
     36     38     39     44   5     0.00000     0.00000     0.00000  0.0
     36     38     39     45   5     0.00000     0.00000     0.00000  0.0
     36     38     39     46   5     0.00000     0.00000     0.00000  0.0
     40     38     39     44   5     0.00000     0.00000     0.00000  0.0
     40     38     39     45   5     0.00000     0.00000     0.00000  0.0
     40     38     39     46   5     0.00000     0.00000     0.00000  0.0
     36     38     40     47   5     0.00000     0.00000     0.00000  0.0
     36     38     40     48   5     0.00000     0.00000     0.00000  0.0
     36     38     40     49   5     0.00000     0.00000     0.00000  0.0
     39     38     40     47   5     0.00000     0.00000     0.00000  0.0
     39     38     40     48   5     0.00000     0.00000     0.00000  0.0
     39     38     40     49   5     0.00000     0.00000     0.00000  0.0
     35     50     51     52   5    -8.00818    -1.52298     2.46438  0.0
     35     50     51     59   5     0.00000     0.00000     1.25520  0.0
     35     50     51     66   5     4.74884    -0.63178     1.67360  0.0
     57     50     51     52   5     0.00000     0.00000    -0.94140  0.0
     57     50     51     59   5     0.00000     0.00000     1.25520  0.0
     57     50     51     66   5     0.00000     0.00000     1.25520  0.0
     58     50     51     52   5     0.00000     0.00000    -0.94140  0.0
     58     50     51     59   5     0.00000     0.00000     1.25520  0.0
     58     50     51     66   5     0.00000     0.00000     1.25520  0.0
     50     51     52     53   5     0.00000     2.52295     0.00000  0.0
     50     51     52     54   5    11.69428    -0.66526    -1.56900  0.0
     59     51     52     53   5     0.00000     0.00000     0.00000  0.0
     59     51     52     54   5     0.00000     0.00000     0.00000  0.0
     66     51     52     53   5     0.00000     2.52295     0.00000  0.0
     66     51     52     54   5    11.69428    -0.66526    -1.56900  0.0
     50     51     66     67   5     4.74884    -0.63178     1.67360  0.0
     50     51     66     73   5     0.00000     0.00000     1.25520  0.0
     50     51     66     74   5     0.00000     0.00000     1.25520  0.0
     52     51     66     67   5    -8.00818    -1.52298     2.46438  0.0
     52     51     66     73   5     0.00000     0.00000    -0.94140  0.0
     52     51     66     74   5     0.00000     0.00000    -0.94140  0.0
     59     51     66     67   5     0.00000     0.00000     1.25520  0.0
     59     51     66     73   5     0.00000     0.00000     1.25520  0.0
     59     51     66     74   5     0.00000     0.00000     1.25520  0.0
     51     52     54     55   5    12.53945    12.88254     0.00000  0.0
     51     52     54     56   5    12.53945    12.88254     0.00000  0.0
     53     52     54     55   5     0.00000    25.47638     0.00000  0.0
     53     52     54     56   5     0.00000    25.47638     0.00000  0.0
     52     54     55     60   5     0.00000     0.00000     0.00000  0.0
     52     54     55     61   5     0.00000     0.00000     0.00000  0.0
     52     54     55     62   5     0.00000     0.00000     0.00000  0.0
     56     54     55     60   5     0.00000     0.00000     0.00000  0.0
     56     54     55     61   5     0.00000     0.00000     0.00000  0.0
     56     54     55     62   5     0.00000     0.00000     0.00000  0.0
     52     54     56     63   5     0.00000     0.00000     0.00000  0.0
     52     54     56     64   5     0.00000     0.00000     0.00000  0.0
     52     54     56     65   5     0.00000     0.00000     0.00000  0.0
     55     54     56     63   5     0.00000     0.00000     0.00000  0.0
     55     54     56     64   5     0.00000     0.00000     0.00000  0.0
     55     54     56     65   5     0.00000     0.00000     0.00000  0.0
     51     66     67     68   5    -8.00818    -1.52298     2.46438  0.0
     51     66     67     75   5     0.00000     0.00000     1.25520  0.0
     51     66     67     82   5     4.74884    -0.63178     1.67360  0.0
     73     66     67     68   5     0.00000     0.00000    -0.94140  0.0
     73     66     67     75   5     0.00000     0.00000     1.25520  0.0
     73     66     67     82   5     0.00000     0.00000     1.25520  0.0
     74     66     67     68   5     0.00000     0.00000    -0.94140  0.0
     74     66     67     75   5     0.00000     0.00000     1.25520  0.0
     74     66     67     82   5     0.00000     0.00000     1.25520  0.0
     66     67     68     69   5     0.00000     2.52295     0.00000  0.0
     66     67     68     70   5    11.69428    -0.66526    -1.56900  0.0
     75     67     68     69   5     0.00000     0.00000     0.00000  0.0
     75     67     68     70   5     0.00000     0.00000     0.00000  0.0
     82     67     68     69   5     0.00000     2.52295     0.00000  0.0
     82     67     68     70   5    11.69428    -0.66526    -1.56900  0.0
     66     67     82     83   5     4.74884    -0.63178     1.67360  0.0
     66     67     82     89   5     0.00000     0.00000     1.25520  0.0
     66     67     82     90   5     0.00000     0.00000     1.25520  0.0
     68     67     82     83   5    -8.00818    -1.52298     2.46438  0.0
     68     67     82     89   5     0.00000     0.00000    -0.94140  0.0
     68     67     82     90   5     0.00000     0.00000    -0.94140  0.0
     75     67     82     83   5     0.00000     0.00000     1.25520  0.0
     75     67     82     89   5     0.00000     0.00000     1.25520  0.0
     75     67     82     90   5     0.00000     0.00000     1.25520  0.0
     67     68     70     71   5    12.53945    12.88254     0.00000  0.0
     67     68     70     72   5    12.53945    12.88254     0.00000  0.0
     69     68     70     71   5     0.00000    25.47638     0.00000  0.0
     69     68     70     72   5     0.00000    25.47638     0.00000  0.0
     68     70     71     76   5     0.00000     0.00000     0.00000  0.0
     68     70     71     77   5     0.00000     0.00000     0.00000  0.0
     68     70     71     78   5     0.00000     0.00000     0.00000  0.0
     72     70     71     76   5     0.00000     0.00000     0.00000  0.0
     72     70     71     77   5     0.00000     0.00000     0.00000  0.0
     72     70     71     78   5     0.00000     0.00000     0.00000  0.0
     68     70     72     79   5     0.00000     0.00000     0.00000  0.0
     68     70     72     80   5     0.00000     0.00000     0.00000  0.0
     68     70     72     81   5     0.00000     0.00000     0.00000  0.0
     71     70     72     79   5     0.00000     0.00000     0.00000  0.0
     71     70     72     80   5     0.00000     0.00000     0.00000  0.0
     71     70     72     81   5     0.00000     0.00000     0.00000  0.0
     67     82     83     84   5    -8.00818    -1.52298     2.46438  0.0
     67     82     83     91   5     0.00000     0.00000     1.25520  0.0
     67     82     83     98   5     4.74884    -0.63178     1.67360  0.0
     89     82     83     84   5     0.00000     0.00000    -0.94140  0.0
     89     82     83     91   5     0.00000     0.00000     1.25520  0.0
     89     82     83     98   5     0.00000     0.00000     1.25520  0.0
     90     82     83     84   5     0.00000     0.00000    -0.94140  0.0
     90     82     83     91   5     0.00000     0.00000     1.25520  0.0
     90     82     83     98   5     0.00000     0.00000     1.25520  0.0
     82     83     84     85   5     0.00000     2.52295     0.00000  0.0
     82     83     84     86   5    11.69428    -0.66526    -1.56900  0.0
     91     83     84     85   5     0.00000     0.00000     0.00000  0.0
     91     83     84     86   5     0.00000     0.00000     0.00000  0.0
     98     83     84     85   5     0.00000     2.52295     0.00000  0.0
     98     83     84     86   5    11.69428    -0.66526    -1.56900  0.0
     82     83     98     99   5     4.74884    -0.63178     1.67360  0.0
     82     83     98    105   5     0.00000     0.00000     1.25520  0.0
     82     83     98    106   5     0.00000     0.00000     1.25520  0.0
     84     83     98     99   5    -8.00818    -1.52298     2.46438  0.0
     84     83     98    105   5     0.00000     0.00000    -0.94140  0.0
     84     83     98    106   5     0.00000     0.00000    -0.94140  0.0
     91     83     98     99   5     0.00000     0.00000     1.25520  0.0
     91     83     98    105   5     0.00000     0.00000     1.25520  0.0
     91     83     98    106   5     0.00000     0.00000     1.25520  0.0
     83     84     86     87   5    12.53945    12.88254     0.00000  0.0
     83     84     86     88   5    12.53945    12.88254     0.00000  0.0
     85     84     86     87   5     0.00000    25.47638     0.00000  0.0
     85     84     86     88   5     0.00000    25.47638     0.00000  0.0
     84     86     87     92   5     0.00000     0.00000     0.00000  0.0
     84     86     87     93   5     0.00000     0.00000     0.00000  0.0
     84     86     87     94   5     0.00000     0.00000     0.00000  0.0
     88     86     87     92   5     0.00000     0.00000     0.00000  0.0
     88     86     87     93   5     0.00000     0.00000     0.00000  0.0
     88     86     87     94   5     0.00000     0.00000     0.00000  0.0
     84     86     88     95   5     0.00000     0.00000     0.00000  0.0
     84     86     88     96   5     0.00000     0.00000     0.00000  0.0
     84     86     88     97   5     0.00000     0.00000     0.00000  0.0
     87     86     88     95   5     0.00000     0.00000     0.00000  0.0
     87     86     88     96   5     0.00000     0.00000     0.00000  0.0
     87     86     88     97   5     0.00000     0.00000     0.00000  0.0
     83     98     99    100   5    -8.00818    -1.52298     2.46438  0.0
     83     98     99    107   5     0.00000     0.00000     1.25520  0.0
     83     98     99    114   5     4.74884    -0.63178     1.67360  0.0
    105     98     99    100   5     0.00000     0.00000    -0.94140  0.0
    105     98     99    107   5     0.00000     0.00000     1.25520  0.0
    105     98     99    114   5     0.00000     0.00000     1.25520  0.0
    106     98     99    100   5     0.00000     0.00000    -0.94140  0.0
    106     98     99    107   5     0.00000     0.00000     1.25520  0.0
    106     98     99    114   5     0.00000     0.00000     1.25520  0.0
     98     99    100    101   5     0.00000     2.52295     0.00000  0.0
     98     99    100    102   5    11.69428    -0.66526    -1.56900  0.0
    107     99    100    101   5     0.00000     0.00000     0.00000  0.0
    107     99    100    102   5     0.00000     0.00000     0.00000  0.0
    114     99    100    101   5     0.00000     2.52295     0.00000  0.0
    114     99    100    102   5    11.69428    -0.66526    -1.56900  0.0
     98     99    114    115   5     4.74884    -0.63178     1.67360  0.0
     98     99    114    121   5     0.00000     0.00000     1.25520  0.0
     98     99    114    122   5     0.00000     0.00000     1.25520  0.0
    100     99    114    115   5    -8.00818    -1.52298     2.46438  0.0
    100     99    114    121   5     0.00000     0.00000    -0.94140  0.0
    100     99    114    122   5     0.00000     0.00000    -0.94140  0.0
    107     99    114    115   5     0.00000     0.00000     1.25520  0.0
    107     99    114    121   5     0.00000     0.00000     1.25520  0.0
    107     99    114    122   5     0.00000     0.00000     1.25520  0.0
     99    100    102    103   5    12.53945    12.88254     0.00000  0.0
     99    100    102    104   5    12.53945    12.88254     0.00000  0.0
    101    100    102    103   5     0.00000    25.47638     0.00000  0.0
    101    100    102    104   5     0.00000    25.47638     0.00000  0.0
    100    102    103    108   5     0.00000     0.00000     0.00000  0.0
    100    102    103    109   5     0.00000     0.00000     0.00000  0.0
    100    102    103    110   5     0.00000     0.00000     0.00000  0.0
    104    102    103    108   5     0.00000     0.00000     0.00000  0.0
    104    102    103    109   5     0.00000     0.00000     0.00000  0.0
    104    102    103    110   5     0.00000     0.00000     0.00000  0.0
    100    102    104    111   5     0.00000     0.00000     0.00000  0.0
    100    102    104    112   5     0.00000     0.00000     0.00000  0.0
    100    102    104    113   5     0.00000     0.00000     0.00000  0.0
    103    102    104    111   5     0.00000     0.00000     0.00000  0.0
    103    102    104    112   5     0.00000     0.00000     0.00000  0.0
    103    102    104    113   5     0.00000     0.00000     0.00000  0.0
     99    114    115    116   5    -8.00818    -1.52298     2.46438  0.0
     99    114    115    123   5     0.00000     0.00000     1.25520  0.0
     99    114    115    130   5     4.74884    -0.63178     1.67360  0.0
    121    114    115    116   5     0.00000     0.00000    -0.94140  0.0
    121    114    115    123   5     0.00000     0.00000     1.25520  0.0
    121    114    115    130   5     0.00000     0.00000     1.25520  0.0
    122    114    115    116   5     0.00000     0.00000    -0.94140  0.0
    122    114    115    123   5     0.00000     0.00000     1.25520  0.0
    122    114    115    130   5     0.00000     0.00000     1.25520  0.0
    114    115    116    117   5     0.00000     2.52295     0.00000  0.0
    114    115    116    118   5    11.69428    -0.66526    -1.56900  0.0
    123    115    116    117   5     0.00000     0.00000     0.00000  0.0
    123    115    116    118   5     0.00000     0.00000     0.00000  0.0
    130    115    116    117   5     0.00000     2.52295     0.00000  0.0
    130    115    116    118   5    11.69428    -0.66526    -1.56900  0.0
    114    115    130    131   5     4.74884    -0.63178     1.67360  0.0
    114    115    130    137   5     0.00000     0.00000     1.25520  0.0
    114    115    130    138   5     0.00000     0.00000     1.25520  0.0
    116    115    130    131   5    -8.00818    -1.52298     2.46438  0.0
    116    115    130    137   5     0.00000     0.00000    -0.94140  0.0
    116    115    130    138   5     0.00000     0.00000    -0.94140  0.0
    123    115    130    131   5     0.00000     0.00000     1.25520  0.0
    123    115    130    137   5     0.00000     0.00000     1.25520  0.0
    123    115    130    138   5     0.00000     0.00000     1.25520  0.0
    115    116    118    119   5    12.53945    12.88254     0.00000  0.0
    115    116    118    120   5    12.53945    12.88254     0.00000  0.0
    117    116    118    119   5     0.00000    25.47638     0.00000  0.0
    117    116    118    120   5     0.00000    25.47638     0.00000  0.0
    116    118    119    124   5     0.00000     0.00000     0.00000  0.0
    116    118    119    125   5     0.00000     0.00000     0.00000  0.0
    116    118    119    126   5     0.00000     0.00000     0.00000  0.0
    120    118    119    124   5     0.00000     0.00000     0.00000  0.0
    120    118    119    125   5     0.00000     0.00000     0.00000  0.0
    120    118    119    126   5     0.00000     0.00000     0.00000  0.0
    116    118    120    127   5     0.00000     0.00000     0.00000  0.0
    116    118    120    128   5     0.00000     0.00000     0.00000  0.0
    116    118    120    129   5     0.00000     0.00000     0.00000  0.0
    119    118    120    127   5     0.00000     0.00000     0.00000  0.0
    119    118    120    128   5     0.00000     0.00000     0.00000  0.0
    119    118    120    129   5     0.00000     0.00000     0.00000  0.0
    115    130    131    132   5    -8.00818    -1.52298     2.46438  0.0
    115    130    131    139   5     0.00000     0.00000     1.25520  0.0
    115    130    131    146   5     4.74884    -0.63178     1.67360  0.0
    137    130    131    132   5     0.00000     0.00000    -0.94140  0.0
    137    130    131    139   5     0.00000     0.00000     1.25520  0.0
    137    130    131    146   5     0.00000     0.00000     1.25520  0.0
    138    130    131    132   5     0.00000     0.00000    -0.94140  0.0
    138    130    131    139   5     0.00000     0.00000     1.25520  0.0
    138    130    131    146   5     0.00000     0.00000     1.25520  0.0
    130    131    132    133   5     0.00000     2.52295     0.00000  0.0
    130    131    132    134   5    11.69428    -0.66526    -1.56900  0.0
    139    131    132    133   5     0.00000     0.00000     0.00000  0.0
    139    131    132    134   5     0.00000     0.00000     0.00000  0.0
    146    131    132    133   5     0.00000     2.52295     0.00000  0.0
    146    131    132    134   5    11.69428    -0.66526    -1.56900  0.0
    130    131    146    147   5     4.74884    -0.63178     1.67360  0.0
    130    131    146    153   5     0.00000     0.00000     1.25520  0.0
    130    131    146    154   5     0.00000     0.00000     1.25520  0.0
    132    131    146    147   5    -8.00818    -1.52298     2.46438  0.0
    132    131    146    153   5     0.00000     0.00000    -0.94140  0.0
    132    131    146    154   5     0.00000     0.00000    -0.94140  0.0
    139    131    146    147   5     0.00000     0.00000     1.25520  0.0
    139    131    146    153   5     0.00000     0.00000     1.25520  0.0
    139    131    146    154   5     0.00000     0.00000     1.25520  0.0
    131    132    134    135   5    12.53945    12.88254     0.00000  0.0
    131    132    134    136   5    12.53945    12.88254     0.00000  0.0
    133    132    134    135   5     0.00000    25.47638     0.00000  0.0
    133    132    134    136   5     0.00000    25.47638     0.00000  0.0
    132    134    135    140   5     0.00000     0.00000     0.00000  0.0
    132    134    135    141   5     0.00000     0.00000     0.00000  0.0
    132    134    135    142   5     0.00000     0.00000     0.00000  0.0
    136    134    135    140   5     0.00000     0.00000     0.00000  0.0
    136    134    135    141   5     0.00000     0.00000     0.00000  0.0
    136    134    135    142   5     0.00000     0.00000     0.00000  0.0
    132    134    136    143   5     0.00000     0.00000     0.00000  0.0
    132    134    136    144   5     0.00000     0.00000     0.00000  0.0
    132    134    136    145   5     0.00000     0.00000     0.00000  0.0
    135    134    136    143   5     0.00000     0.00000     0.00000  0.0
    135    134    136    144   5     0.00000     0.00000     0.00000  0.0
    135    134    136    145   5     0.00000     0.00000     0.00000  0.0
    131    146    147    148   5    -8.00818    -1.52298     2.46438  0.0
    131    146    147    155   5     0.00000     0.00000     1.25520  0.0
    131    146    147    162   5     4.74884    -0.63178     1.67360  0.0
    153    146    147    148   5     0.00000     0.00000    -0.94140  0.0
    153    146    147    155   5     0.00000     0.00000     1.25520  0.0
    153    146    147    162   5     0.00000     0.00000     1.25520  0.0
    154    146    147    148   5     0.00000     0.00000    -0.94140  0.0
    154    146    147    155   5     0.00000     0.00000     1.25520  0.0
    154    146    147    162   5     0.00000     0.00000     1.25520  0.0
    146    147    148    149   5     0.00000     2.52295     0.00000  0.0
    146    147    148    150   5    11.69428    -0.66526    -1.56900  0.0
    155    147    148    149   5     0.00000     0.00000     0.00000  0.0
    155    147    148    150   5     0.00000     0.00000     0.00000  0.0
    162    147    148    149   5     0.00000     2.52295     0.00000  0.0
    162    147    148    150   5    11.69428    -0.66526    -1.56900  0.0
    146    147    162    163   5     4.74884    -0.63178     1.67360  0.0
    146    147    162    169   5     0.00000     0.00000     1.25520  0.0
    146    147    162    170   5     0.00000     0.00000     1.25520  0.0
    148    147    162    163   5    -8.00818    -1.52298     2.46438  0.0
    148    147    162    169   5     0.00000     0.00000    -0.94140  0.0
    148    147    162    170   5     0.00000     0.00000    -0.94140  0.0
    155    147    162    163   5     0.00000     0.00000     1.25520  0.0
    155    147    162    169   5     0.00000     0.00000     1.25520  0.0
    155    147    162    170   5     0.00000     0.00000     1.25520  0.0
    147    148    150    151   5    12.53945    12.88254     0.00000  0.0
    147    148    150    152   5    12.53945    12.88254     0.00000  0.0
    149    148    150    151   5     0.00000    25.47638     0.00000  0.0
    149    148    150    152   5     0.00000    25.47638     0.00000  0.0
    148    150    151    156   5     0.00000     0.00000     0.00000  0.0
    148    150    151    157   5     0.00000     0.00000     0.00000  0.0
    148    150    151    158   5     0.00000     0.00000     0.00000  0.0
    152    150    151    156   5     0.00000     0.00000     0.00000  0.0
    152    150    151    157   5     0.00000     0.00000     0.00000  0.0
    152    150    151    158   5     0.00000     0.00000     0.00000  0.0
    148    150    152    159   5     0.00000     0.00000     0.00000  0.0
    148    150    152    160   5     0.00000     0.00000     0.00000  0.0
    148    150    152    161   5     0.00000     0.00000     0.00000  0.0
    151    150    152    159   5     0.00000     0.00000     0.00000  0.0
    151    150    152    160   5     0.00000     0.00000     0.00000  0.0
    151    150    152    161   5     0.00000     0.00000     0.00000  0.0
    147    162    163    164   5    -8.00818    -1.52298     2.46438  0.0
    147    162    163    171   5     0.00000     0.00000     1.25520  0.0
    147    162    163    178   5     4.74884    -0.63178     1.67360  0.0
    169    162    163    164   5     0.00000     0.00000    -0.94140  0.0
    169    162    163    171   5     0.00000     0.00000     1.25520  0.0
    169    162    163    178   5     0.00000     0.00000     1.25520  0.0
    170    162    163    164   5     0.00000     0.00000    -0.94140  0.0
    170    162    163    171   5     0.00000     0.00000     1.25520  0.0
    170    162    163    178   5     0.00000     0.00000     1.25520  0.0
    162    163    164    165   5     0.00000     2.52295     0.00000  0.0
    162    163    164    166   5    11.69428    -0.66526    -1.56900  0.0
    171    163    164    165   5     0.00000     0.00000     0.00000  0.0
    171    163    164    166   5     0.00000     0.00000     0.00000  0.0
    178    163    164    165   5     0.00000     2.52295     0.00000  0.0
    178    163    164    166   5    11.69428    -0.66526    -1.56900  0.0
    162    163    178    179   5     4.74884    -0.63178     1.67360  0.0
    162    163    178    185   5     0.00000     0.00000     1.25520  0.0
    162    163    178    186   5     0.00000     0.00000     1.25520  0.0
    164    163    178    179   5    -8.00818    -1.52298     2.46438  0.0
    164    163    178    185   5     0.00000     0.00000    -0.94140  0.0
    164    163    178    186   5     0.00000     0.00000    -0.94140  0.0
    171    163    178    179   5     0.00000     0.00000     1.25520  0.0
    171    163    178    185   5     0.00000     0.00000     1.25520  0.0
    171    163    178    186   5     0.00000     0.00000     1.25520  0.0
    163    164    166    167   5    12.53945    12.88254     0.00000  0.0
    163    164    166    168   5    12.53945    12.88254     0.00000  0.0
    165    164    166    167   5     0.00000    25.47638     0.00000  0.0
    165    164    166    168   5     0.00000    25.47638     0.00000  0.0
    164    166    167    172   5     0.00000     0.00000     0.00000  0.0
    164    166    167    173   5     0.00000     0.00000     0.00000  0.0
    164    166    167    174   5     0.00000     0.00000     0.00000  0.0
    168    166    167    172   5     0.00000     0.00000     0.00000  0.0
    168    166    167    173   5     0.00000     0.00000     0.00000  0.0
    168    166    167    174   5     0.00000     0.00000     0.00000  0.0
    164    166    168    175   5     0.00000     0.00000     0.00000  0.0
    164    166    168    176   5     0.00000     0.00000     0.00000  0.0
    164    166    168    177   5     0.00000     0.00000     0.00000  0.0
    167    166    168    175   5     0.00000     0.00000     0.00000  0.0
    167    166    168    176   5     0.00000     0.00000     0.00000  0.0
    167    166    168    177   5     0.00000     0.00000     0.00000  0.0
    163    178    179    180   5    -8.00818    -1.52298     2.46438  0.0
    163    178    179    187   5     0.00000     0.00000     1.25520  0.0
    163    178    179    194   5     4.74884    -0.63178     1.67360  0.0
    185    178    179    180   5     0.00000     0.00000    -0.94140  0.0
    185    178    179    187   5     0.00000     0.00000     1.25520  0.0
    185    178    179    194   5     0.00000     0.00000     1.25520  0.0
    186    178    179    180   5     0.00000     0.00000    -0.94140  0.0
    186    178    179    187   5     0.00000     0.00000     1.25520  0.0
    186    178    179    194   5     0.00000     0.00000     1.25520  0.0
    178    179    180    181   5     0.00000     2.52295     0.00000  0.0
    178    179    180    182   5    11.69428    -0.66526    -1.56900  0.0
    187    179    180    181   5     0.00000     0.00000     0.00000  0.0
    187    179    180    182   5     0.00000     0.00000     0.00000  0.0
    194    179    180    181   5     0.00000     2.52295     0.00000  0.0
    194    179    180    182   5    11.69428    -0.66526    -1.56900  0.0
    178    179    194    195   5     4.74884    -0.63178     1.67360  0.0
    178    179    194    201   5     0.00000     0.00000     1.25520  0.0
    178    179    194    202   5     0.00000     0.00000     1.25520  0.0
    180    179    194    195   5    -8.00818    -1.52298     2.46438  0.0
    180    179    194    201   5     0.00000     0.00000    -0.94140  0.0
    180    179    194    202   5     0.00000     0.00000    -0.94140  0.0
    187    179    194    195   5     0.00000     0.00000     1.25520  0.0
    187    179    194    201   5     0.00000     0.00000     1.25520  0.0
    187    179    194    202   5     0.00000     0.00000     1.25520  0.0
    179    180    182    183   5    12.53945    12.88254     0.00000  0.0
    179    180    182    184   5    12.53945    12.88254     0.00000  0.0
    181    180    182    183   5     0.00000    25.47638     0.00000  0.0
    181    180    182    184   5     0.00000    25.47638     0.00000  0.0
    180    182    183    188   5     0.00000     0.00000     0.00000  0.0
    180    182    183    189   5     0.00000     0.00000     0.00000  0.0
    180    182    183    190   5     0.00000     0.00000     0.00000  0.0
    184    182    183    188   5     0.00000     0.00000     0.00000  0.0
    184    182    183    189   5     0.00000     0.00000     0.00000  0.0
    184    182    183    190   5     0.00000     0.00000     0.00000  0.0
    180    182    184    191   5     0.00000     0.00000     0.00000  0.0
    180    182    184    192   5     0.00000     0.00000     0.00000  0.0
    180    182    184    193   5     0.00000     0.00000     0.00000  0.0
    183    182    184    191   5     0.00000     0.00000     0.00000  0.0
    183    182    184    192   5     0.00000     0.00000     0.00000  0.0
    183    182    184    193   5     0.00000     0.00000     0.00000  0.0
    179    194    195    196   5    -8.00818    -1.52298     2.46438  0.0
    179    194    195    203   5     0.00000     0.00000     1.25520  0.0
    179    194    195    210   5     4.74884    -0.63178     1.67360  0.0
    201    194    195    196   5     0.00000     0.00000    -0.94140  0.0
    201    194    195    203   5     0.00000     0.00000     1.25520  0.0
    201    194    195    210   5     0.00000     0.00000     1.25520  0.0
    202    194    195    196   5     0.00000     0.00000    -0.94140  0.0
    202    194    195    203   5     0.00000     0.00000     1.25520  0.0
    202    194    195    210   5     0.00000     0.00000     1.25520  0.0
    194    195    196    197   5     0.00000     2.52295     0.00000  0.0
    194    195    196    198   5    11.69428    -0.66526    -1.56900  0.0
    203    195    196    197   5     0.00000     0.00000     0.00000  0.0
    203    195    196    198   5     0.00000     0.00000     0.00000  0.0
    210    195    196    197   5     0.00000     2.52295     0.00000  0.0
    210    195    196    198   5    11.69428    -0.66526    -1.56900  0.0
    194    195    210    211   5     4.74884    -0.63178     1.67360  0.0
    194    195    210    217   5     0.00000     0.00000     1.25520  0.0
    194    195    210    218   5     0.00000     0.00000     1.25520  0.0
    196    195    210    211   5    -8.00818    -1.52298     2.46438  0.0
    196    195    210    217   5     0.00000     0.00000    -0.94140  0.0
    196    195    210    218   5     0.00000     0.00000    -0.94140  0.0
    203    195    210    211   5     0.00000     0.00000     1.25520  0.0
    203    195    210    217   5     0.00000     0.00000     1.25520  0.0
    203    195    210    218   5     0.00000     0.00000     1.25520  0.0
    195    196    198    199   5    12.53945    12.88254     0.00000  0.0
    195    196    198    200   5    12.53945    12.88254     0.00000  0.0
    197    196    198    199   5     0.00000    25.47638     0.00000  0.0
    197    196    198    200   5     0.00000    25.47638     0.00000  0.0
    196    198    199    204   5     0.00000     0.00000     0.00000  0.0
    196    198    199    205   5     0.00000     0.00000     0.00000  0.0
    196    198    199    206   5     0.00000     0.00000     0.00000  0.0
    200    198    199    204   5     0.00000     0.00000     0.00000  0.0
    200    198    199    205   5     0.00000     0.00000     0.00000  0.0
    200    198    199    206   5     0.00000     0.00000     0.00000  0.0
    196    198    200    207   5     0.00000     0.00000     0.00000  0.0
    196    198    200    208   5     0.00000     0.00000     0.00000  0.0
    196    198    200    209   5     0.00000     0.00000     0.00000  0.0
    199    198    200    207   5     0.00000     0.00000     0.00000  0.0
    199    198    200    208   5     0.00000     0.00000     0.00000  0.0
    199    198    200    209   5     0.00000     0.00000     0.00000  0.0
    195    210    211    212   5    -8.00818    -1.52298     2.46438  0.0
    195    210    211    219   5     0.00000     0.00000     1.25520  0.0
    195    210    211    226   5     4.74884    -0.63178     1.67360  0.0
    217    210    211    212   5     0.00000     0.00000    -0.94140  0.0
    217    210    211    219   5     0.00000     0.00000     1.25520  0.0
    217    210    211    226   5     0.00000     0.00000     1.25520  0.0
    218    210    211    212   5     0.00000     0.00000    -0.94140  0.0
    218    210    211    219   5     0.00000     0.00000     1.25520  0.0
    218    210    211    226   5     0.00000     0.00000     1.25520  0.0
    210    211    212    213   5     0.00000     2.52295     0.00000  0.0
    210    211    212    214   5    11.69428    -0.66526    -1.56900  0.0
    219    211    212    213   5     0.00000     0.00000     0.00000  0.0
    219    211    212    214   5     0.00000     0.00000     0.00000  0.0
    226    211    212    213   5     0.00000     2.52295     0.00000  0.0
    226    211    212    214   5    11.69428    -0.66526    -1.56900  0.0
    210    211    226    227   5     4.74884    -0.63178     1.67360  0.0
    210    211    226    233   5     0.00000     0.00000     1.25520  0.0
    210    211    226    234   5     0.00000     0.00000     1.25520  0.0
    212    211    226    227   5    -8.00818    -1.52298     2.46438  0.0
    212    211    226    233   5     0.00000     0.00000    -0.94140  0.0
    212    211    226    234   5     0.00000     0.00000    -0.94140  0.0
    219    211    226    227   5     0.00000     0.00000     1.25520  0.0
    219    211    226    233   5     0.00000     0.00000     1.25520  0.0
    219    211    226    234   5     0.00000     0.00000     1.25520  0.0
    211    212    214    215   5    12.53945    12.88254     0.00000  0.0
    211    212    214    216   5    12.53945    12.88254     0.00000  0.0
    213    212    214    215   5     0.00000    25.47638     0.00000  0.0
    213    212    214    216   5     0.00000    25.47638     0.00000  0.0
    212    214    215    220   5     0.00000     0.00000     0.00000  0.0
    212    214    215    221   5     0.00000     0.00000     0.00000  0.0
    212    214    215    222   5     0.00000     0.00000     0.00000  0.0
    216    214    215    220   5     0.00000     0.00000     0.00000  0.0
    216    214    215    221   5     0.00000     0.00000     0.00000  0.0
    216    214    215    222   5     0.00000     0.00000     0.00000  0.0
    212    214    216    223   5     0.00000     0.00000     0.00000  0.0
    212    214    216    224   5     0.00000     0.00000     0.00000  0.0
    212    214    216    225   5     0.00000     0.00000     0.00000  0.0
    215    214    216    223   5     0.00000     0.00000     0.00000  0.0
    215    214    216    224   5     0.00000     0.00000     0.00000  0.0
    215    214    216    225   5     0.00000     0.00000     0.00000  0.0
    211    226    227    228   5    -8.00818    -1.52298     2.46438  0.0
    211    226    227    235   5     0.00000     0.00000     1.25520  0.0
    211    226    227    242   5     4.74884    -0.63178     1.67360  0.0
    233    226    227    228   5     0.00000     0.00000    -0.94140  0.0
    233    226    227    235   5     0.00000     0.00000     1.25520  0.0
    233    226    227    242   5     0.00000     0.00000     1.25520  0.0
    234    226    227    228   5     0.00000     0.00000    -0.94140  0.0
    234    226    227    235   5     0.00000     0.00000     1.25520  0.0
    234    226    227    242   5     0.00000     0.00000     1.25520  0.0
    226    227    228    229   5     0.00000     2.52295     0.00000  0.0
    226    227    228    230   5    11.69428    -0.66526    -1.56900  0.0
    235    227    228    229   5     0.00000     0.00000     0.00000  0.0
    235    227    228    230   5     0.00000     0.00000     0.00000  0.0
    242    227    228    229   5     0.00000     2.52295     0.00000  0.0
    242    227    228    230   5    11.69428    -0.66526    -1.56900  0.0
    226    227    242    243   5     4.74884    -0.63178     1.67360  0.0
    226    227    242    249   5     0.00000     0.00000     1.25520  0.0
    226    227    242    250   5     0.00000     0.00000     1.25520  0.0
    228    227    242    243   5    -8.00818    -1.52298     2.46438  0.0
    228    227    242    249   5     0.00000     0.00000    -0.94140  0.0
    228    227    242    250   5     0.00000     0.00000    -0.94140  0.0
    235    227    242    243   5     0.00000     0.00000     1.25520  0.0
    235    227    242    249   5     0.00000     0.00000     1.25520  0.0
    235    227    242    250   5     0.00000     0.00000     1.25520  0.0
    227    228    230    231   5    12.53945    12.88254     0.00000  0.0
    227    228    230    232   5    12.53945    12.88254     0.00000  0.0
    229    228    230    231   5     0.00000    25.47638     0.00000  0.0
    229    228    230    232   5     0.00000    25.47638     0.00000  0.0
    228    230    231    236   5     0.00000     0.00000     0.00000  0.0
    228    230    231    237   5     0.00000     0.00000     0.00000  0.0
    228    230    231    238   5     0.00000     0.00000     0.00000  0.0
    232    230    231    236   5     0.00000     0.00000     0.00000  0.0
    232    230    231    237   5     0.00000     0.00000     0.00000  0.0
    232    230    231    238   5     0.00000     0.00000     0.00000  0.0
    228    230    232    239   5     0.00000     0.00000     0.00000  0.0
    228    230    232    240   5     0.00000     0.00000     0.00000  0.0
    228    230    232    241   5     0.00000     0.00000     0.00000  0.0
    231    230    232    239   5     0.00000     0.00000     0.00000  0.0
    231    230    232    240   5     0.00000     0.00000     0.00000  0.0
    231    230    232    241   5     0.00000     0.00000     0.00000  0.0
    227    242    243    244   5    -8.00818    -1.52298     2.46438  0.0
    227    242    243    251   5     0.00000     0.00000     1.25520  0.0
    227    242    243    258   5     4.74884    -0.63178     1.67360  0.0
    249    242    243    244   5     0.00000     0.00000    -0.94140  0.0
    249    242    243    251   5     0.00000     0.00000     1.25520  0.0
    249    242    243    258   5     0.00000     0.00000     1.25520  0.0
    250    242    243    244   5     0.00000     0.00000    -0.94140  0.0
    250    242    243    251   5     0.00000     0.00000     1.25520  0.0
    250    242    243    258   5     0.00000     0.00000     1.25520  0.0
    242    243    244    245   5     0.00000     2.52295     0.00000  0.0
    242    243    244    246   5    11.69428    -0.66526    -1.56900  0.0
    251    243    244    245   5     0.00000     0.00000     0.00000  0.0
    251    243    244    246   5     0.00000     0.00000     0.00000  0.0
    258    243    244    245   5     0.00000     2.52295     0.00000  0.0
    258    243    244    246   5    11.69428    -0.66526    -1.56900  0.0
    242    243    258    259   5     4.74884    -0.63178     1.67360  0.0
    242    243    258    265   5     0.00000     0.00000     1.25520  0.0
    242    243    258    266   5     0.00000     0.00000     1.25520  0.0
    244    243    258    259   5    -8.00818    -1.52298     2.46438  0.0
    244    243    258    265   5     0.00000     0.00000    -0.94140  0.0
    244    243    258    266   5     0.00000     0.00000    -0.94140  0.0
    251    243    258    259   5     0.00000     0.00000     1.25520  0.0
    251    243    258    265   5     0.00000     0.00000     1.25520  0.0
    251    243    258    266   5     0.00000     0.00000     1.25520  0.0
    243    244    246    247   5    12.53945    12.88254     0.00000  0.0
    243    244    246    248   5    12.53945    12.88254     0.00000  0.0
    245    244    246    247   5     0.00000    25.47638     0.00000  0.0
    245    244    246    248   5     0.00000    25.47638     0.00000  0.0
    244    246    247    252   5     0.00000     0.00000     0.00000  0.0
    244    246    247    253   5     0.00000     0.00000     0.00000  0.0
    244    246    247    254   5     0.00000     0.00000     0.00000  0.0
    248    246    247    252   5     0.00000     0.00000     0.00000  0.0
    248    246    247    253   5     0.00000     0.00000     0.00000  0.0
    248    246    247    254   5     0.00000     0.00000     0.00000  0.0
    244    246    248    255   5     0.00000     0.00000     0.00000  0.0
    244    246    248    256   5     0.00000     0.00000     0.00000  0.0
    244    246    248    257   5     0.00000     0.00000     0.00000  0.0
    247    246    248    255   5     0.00000     0.00000     0.00000  0.0
    247    246    248    256   5     0.00000     0.00000     0.00000  0.0
    247    246    248    257   5     0.00000     0.00000     0.00000  0.0
    243    258    259    260   5    -8.00818    -1.52298     2.46438  0.0
    243    258    259    267   5     0.00000     0.00000     1.25520  0.0
    243    258    259    274   5     4.74884    -0.63178     1.67360  0.0
    265    258    259    260   5     0.00000     0.00000    -0.94140  0.0
    265    258    259    267   5     0.00000     0.00000     1.25520  0.0
    265    258    259    274   5     0.00000     0.00000     1.25520  0.0
    266    258    259    260   5     0.00000     0.00000    -0.94140  0.0
    266    258    259    267   5     0.00000     0.00000     1.25520  0.0
    266    258    259    274   5     0.00000     0.00000     1.25520  0.0
    258    259    260    261   5     0.00000     2.52295     0.00000  0.0
    258    259    260    262   5    11.69428    -0.66526    -1.56900  0.0
    267    259    260    261   5     0.00000     0.00000     0.00000  0.0
    267    259    260    262   5     0.00000     0.00000     0.00000  0.0
    274    259    260    261   5     0.00000     2.52295     0.00000  0.0
    274    259    260    262   5    11.69428    -0.66526    -1.56900  0.0
    258    259    274    275   5     4.74884    -0.63178     1.67360  0.0
    258    259    274    281   5     0.00000     0.00000     1.25520  0.0
    258    259    274    282   5     0.00000     0.00000     1.25520  0.0
    260    259    274    275   5    -8.00818    -1.52298     2.46438  0.0
    260    259    274    281   5     0.00000     0.00000    -0.94140  0.0
    260    259    274    282   5     0.00000     0.00000    -0.94140  0.0
    267    259    274    275   5     0.00000     0.00000     1.25520  0.0
    267    259    274    281   5     0.00000     0.00000     1.25520  0.0
    267    259    274    282   5     0.00000     0.00000     1.25520  0.0
    259    260    262    263   5    12.53945    12.88254     0.00000  0.0
    259    260    262    264   5    12.53945    12.88254     0.00000  0.0
    261    260    262    263   5     0.00000    25.47638     0.00000  0.0
    261    260    262    264   5     0.00000    25.47638     0.00000  0.0
    260    262    263    268   5     0.00000     0.00000     0.00000  0.0
    260    262    263    269   5     0.00000     0.00000     0.00000  0.0
    260    262    263    270   5     0.00000     0.00000     0.00000  0.0
    264    262    263    268   5     0.00000     0.00000     0.00000  0.0
    264    262    263    269   5     0.00000     0.00000     0.00000  0.0
    264    262    263    270   5     0.00000     0.00000     0.00000  0.0
    260    262    264    271   5     0.00000     0.00000     0.00000  0.0
    260    262    264    272   5     0.00000     0.00000     0.00000  0.0
    260    262    264    273   5     0.00000     0.00000     0.00000  0.0
    263    262    264    271   5     0.00000     0.00000     0.00000  0.0
    263    262    264    272   5     0.00000     0.00000     0.00000  0.0
    263    262    264    273   5     0.00000     0.00000     0.00000  0.0
    259    274    275    276   5    -8.00818    -1.52298     2.46438  0.0
    259    274    275    283   5     0.00000     0.00000     1.25520  0.0
    259    274    275    290   5     4.74884    -0.63178     1.67360  0.0
    281    274    275    276   5     0.00000     0.00000    -0.94140  0.0
    281    274    275    283   5     0.00000     0.00000     1.25520  0.0
    281    274    275    290   5     0.00000     0.00000     1.25520  0.0
    282    274    275    276   5     0.00000     0.00000    -0.94140  0.0
    282    274    275    283   5     0.00000     0.00000     1.25520  0.0
    282    274    275    290   5     0.00000     0.00000     1.25520  0.0
    274    275    276    277   5     0.00000     2.52295     0.00000  0.0
    274    275    276    278   5    11.69428    -0.66526    -1.56900  0.0
    283    275    276    277   5     0.00000     0.00000     0.00000  0.0
    283    275    276    278   5     0.00000     0.00000     0.00000  0.0
    290    275    276    277   5     0.00000     2.52295     0.00000  0.0
    290    275    276    278   5    11.69428    -0.66526    -1.56900  0.0
    274    275    290    291   5     4.74884    -0.63178     1.67360  0.0
    274    275    290    297   5     0.00000     0.00000     1.25520  0.0
    274    275    290    298   5     0.00000     0.00000     1.25520  0.0
    276    275    290    291   5    -8.00818    -1.52298     2.46438  0.0
    276    275    290    297   5     0.00000     0.00000    -0.94140  0.0
    276    275    290    298   5     0.00000     0.00000    -0.94140  0.0
    283    275    290    291   5     0.00000     0.00000     1.25520  0.0
    283    275    290    297   5     0.00000     0.00000     1.25520  0.0
    283    275    290    298   5     0.00000     0.00000     1.25520  0.0
    275    276    278    279   5    12.53945    12.88254     0.00000  0.0
    275    276    278    280   5    12.53945    12.88254     0.00000  0.0
    277    276    278    279   5     0.00000    25.47638     0.00000  0.0
    277    276    278    280   5     0.00000    25.47638     0.00000  0.0
    276    278    279    284   5     0.00000     0.00000     0.00000  0.0
    276    278    279    285   5     0.00000     0.00000     0.00000  0.0
    276    278    279    286   5     0.00000     0.00000     0.00000  0.0
    280    278    279    284   5     0.00000     0.00000     0.00000  0.0
    280    278    279    285   5     0.00000     0.00000     0.00000  0.0
    280    278    279    286   5     0.00000     0.00000     0.00000  0.0
    276    278    280    287   5     0.00000     0.00000     0.00000  0.0
    276    278    280    288   5     0.00000     0.00000     0.00000  0.0
    276    278    280    289   5     0.00000     0.00000     0.00000  0.0
    279    278    280    287   5     0.00000     0.00000     0.00000  0.0
    279    278    280    288   5     0.00000     0.00000     0.00000  0.0
    279    278    280    289   5     0.00000     0.00000     0.00000  0.0
    275    290    291    292   5    -8.00818    -1.52298     2.46438  0.0
    275    290    291    299   5     0.00000     0.00000     1.25520  0.0
    275    290    291    306   5     4.74884    -0.63178     1.67360  0.0
    297    290    291    292   5     0.00000     0.00000    -0.94140  0.0
    297    290    291    299   5     0.00000     0.00000     1.25520  0.0
    297    290    291    306   5     0.00000     0.00000     1.25520  0.0
    298    290    291    292   5     0.00000     0.00000    -0.94140  0.0
    298    290    291    299   5     0.00000     0.00000     1.25520  0.0
    298    290    291    306   5     0.00000     0.00000     1.25520  0.0
    290    291    292    293   5     0.00000     2.52295     0.00000  0.0
    290    291    292    294   5    11.69428    -0.66526    -1.56900  0.0
    299    291    292    293   5     0.00000     0.00000     0.00000  0.0
    299    291    292    294   5     0.00000     0.00000     0.00000  0.0
    306    291    292    293   5     0.00000     2.52295     0.00000  0.0
    306    291    292    294   5    11.69428    -0.66526    -1.56900  0.0
    290    291    306    307   5     4.74884    -0.63178     1.67360  0.0
    290    291    306    313   5     0.00000     0.00000     1.25520  0.0
    290    291    306    314   5     0.00000     0.00000     1.25520  0.0
    292    291    306    307   5    -8.00818    -1.52298     2.46438  0.0
    292    291    306    313   5     0.00000     0.00000    -0.94140  0.0
    292    291    306    314   5     0.00000     0.00000    -0.94140  0.0
    299    291    306    307   5     0.00000     0.00000     1.25520  0.0
    299    291    306    313   5     0.00000     0.00000     1.25520  0.0
    299    291    306    314   5     0.00000     0.00000     1.25520  0.0
    291    292    294    295   5    12.53945    12.88254     0.00000  0.0
    291    292    294    296   5    12.53945    12.88254     0.00000  0.0
    293    292    294    295   5     0.00000    25.47638     0.00000  0.0
    293    292    294    296   5     0.00000    25.47638     0.00000  0.0
    292    294    295    300   5     0.00000     0.00000     0.00000  0.0
    292    294    295    301   5     0.00000     0.00000     0.00000  0.0
    292    294    295    302   5     0.00000     0.00000     0.00000  0.0
    296    294    295    300   5     0.00000     0.00000     0.00000  0.0
    296    294    295    301   5     0.00000     0.00000     0.00000  0.0
    296    294    295    302   5     0.00000     0.00000     0.00000  0.0
    292    294    296    303   5     0.00000     0.00000     0.00000  0.0
    292    294    296    304   5     0.00000     0.00000     0.00000  0.0
    292    294    296    305   5     0.00000     0.00000     0.00000  0.0
    295    294    296    303   5     0.00000     0.00000     0.00000  0.0
    295    294    296    304   5     0.00000     0.00000     0.00000  0.0
    295    294    296    305   5     0.00000     0.00000     0.00000  0.0
    291    306    307    308   5    -8.00818    -1.52298     2.46438  0.0
    291    306    307    315   5     0.00000     0.00000     1.25520  0.0
    291    306    307    322   5     0.00000     0.00000     1.25520  0.0
    313    306    307    308   5     0.00000     0.00000    -0.94140  0.0
    313    306    307    315   5     0.00000     0.00000     1.25520  0.0
    313    306    307    322   5     0.00000     0.00000     1.25520  0.0
    314    306    307    308   5     0.00000     0.00000    -0.94140  0.0
    314    306    307    315   5     0.00000     0.00000     1.25520  0.0
    314    306    307    322   5     0.00000     0.00000     1.25520  0.0
    306    307    308    309   5     0.00000     2.52295     0.00000  0.0
    306    307    308    310   5    11.69428    -0.66526    -1.56900  0.0
    315    307    308    309   5     0.00000     0.00000     0.00000  0.0
    315    307    308    310   5     0.00000     0.00000     0.00000  0.0
    322    307    308    309   5     0.00000     0.00000     0.00000  0.0
    322    307    308    310   5     0.00000     0.00000     0.00000  0.0
    307    308    310    311   5    12.53945    12.88254     0.00000  0.0
    307    308    310    312   5    12.53945    12.88254     0.00000  0.0
    309    308    310    311   5     0.00000    25.47638     0.00000  0.0
    309    308    310    312   5     0.00000    25.47638     0.00000  0.0
    308    310    311    316   5     0.00000     0.00000     0.00000  0.0
    308    310    311    317   5     0.00000     0.00000     0.00000  0.0
    308    310    311    318   5     0.00000     0.00000     0.00000  0.0
    312    310    311    316   5     0.00000     0.00000     0.00000  0.0
    312    310    311    317   5     0.00000     0.00000     0.00000  0.0
    312    310    311    318   5     0.00000     0.00000     0.00000  0.0
    308    310    312    319   5     0.00000     0.00000     0.00000  0.0
    308    310    312    320   5     0.00000     0.00000     0.00000  0.0
    308    310    312    321   5     0.00000     0.00000     0.00000  0.0
    311    310    312    319   5     0.00000     0.00000     0.00000  0.0
    311    310    312    320   5     0.00000     0.00000     0.00000  0.0
    311    310    312    321   5     0.00000     0.00000     0.00000  0.0

[ dihedrals ]
; Improper dihedrals
; h   i   j   k   funct
      2      4      3      5   5     0.00000    87.86400     0.00000  0.0
      3      6      5      7   5     0.00000     8.36800     0.00000  0.0
     19     21     20     22   5     0.00000    87.86400     0.00000  0.0
     20     23     22     24   5     0.00000     8.36800     0.00000  0.0
     35     37     36     38   5     0.00000    87.86400     0.00000  0.0
     36     39     38     40   5     0.00000     8.36800     0.00000  0.0
     51     53     52     54   5     0.00000    87.86400     0.00000  0.0
     52     55     54     56   5     0.00000     8.36800     0.00000  0.0
     67     69     68     70   5     0.00000    87.86400     0.00000  0.0
     68     71     70     72   5     0.00000     8.36800     0.00000  0.0
     83     85     84     86   5     0.00000    87.86400     0.00000  0.0
     84     87     86     88   5     0.00000     8.36800     0.00000  0.0
     99    101    100    102   5     0.00000    87.86400     0.00000  0.0
    100    103    102    104   5     0.00000     8.36800     0.00000  0.0
    115    117    116    118   5     0.00000    87.86400     0.00000  0.0
    116    119    118    120   5     0.00000     8.36800     0.00000  0.0
    131    133    132    134   5     0.00000    87.86400     0.00000  0.0
    132    135    134    136   5     0.00000     8.36800     0.00000  0.0
    147    149    148    150   5     0.00000    87.86400     0.00000  0.0
    148    151    150    152   5     0.00000     8.36800     0.00000  0.0
    163    165    164    166   5     0.00000    87.86400     0.00000  0.0
    164    167    166    168   5     0.00000     8.36800     0.00000  0.0
    179    181    180    182   5     0.00000    87.86400     0.00000  0.0
    180    183    182    184   5     0.00000     8.36800     0.00000  0.0
    195    197    196    198   5     0.00000    87.86400     0.00000  0.0
    196    199    198    200   5     0.00000     8.36800     0.00000  0.0
    211    213    212    214   5     0.00000    87.86400     0.00000  0.0
    212    215    214    216   5     0.00000     8.36800     0.00000  0.0
    227    229    228    230   5     0.00000    87.86400     0.00000  0.0
    228    231    230    232   5     0.00000     8.36800     0.00000  0.0
    243    245    244    246   5     0.00000    87.86400     0.00000  0.0
    244    247    246    248   5     0.00000     8.36800     0.00000  0.0
    259    261    260    262   5     0.00000    87.86400     0.00000  0.0
    260    263    262    264   5     0.00000     8.36800     0.00000  0.0
    275    277    276    278   5     0.00000    87.86400     0.00000  0.0
    276    279    278    280   5     0.00000     8.36800     0.00000  0.0
    291    293    292    294   5     0.00000    87.86400     0.00000  0.0
    292    295    294    296   5     0.00000     8.36800     0.00000  0.0
    307    309    308    310   5     0.00000    87.86400     0.00000  0.0
    308    311    310    312   5     0.00000     8.36800     0.00000  0.0
